<event>
 8    1  0.6840084E-009  0.1099885E+03  0.7561462E-02  0.1260591E+00
          1   -1    0    0  501    0  0.00000000000E+00  0.00000000000E+00  0.46623029251E+02  0.46623029251E+02  0.00000000000E+00 0. -1.
         -1   -1    0    0    0  501 -0.00000000000E+00 -0.00000000000E+00 -0.41315475453E+03  0.41315475453E+03  0.00000000000E+00 0.  1.
         25    2    1    2    0    0  0.37006022580E+02  0.77828015152E+02 -0.17679489107E+03  0.23309000649E+03  0.12509145442E+03 0.  0.
         23    2    1    2    0    0 -0.37006022580E+02 -0.77828015152E+02 -0.18973683421E+03  0.22668777729E+03  0.89222398905E+02 0.  0.
          5    1    3    3  502    0 -0.11570475016E+02  0.82269072392E+02 -0.49720140728E+02  0.96910479094E+02  0.41800000000E+01 0. -1.
         -5    1    3    3    0  502  0.48576497596E+02 -0.44410572398E+01 -0.12707475034E+03  0.13617952740E+03  0.41800000000E+01 0. -1.
        -11    1    4    4    0    0 -0.26341305972E+02 -0.69436452275E+02 -0.19753664645E+03  0.21103557045E+03  0.00000000000E+00 0.  1.
         11    1    4    4    0    0 -0.10664716608E+02 -0.83915628772E+01  0.77998122410E+01  0.15652206836E+02  0.00000000000E+00 0. -1.
</event>
<event>
 8    1  0.6840084E-009  0.2446207E+03  0.7561462E-02  0.1116752E+00
          2   -1    0    0  501    0  0.00000000000E+00  0.00000000000E+00  0.40854503555E+03  0.40854503555E+03  0.00000000000E+00 0. -1.
         -2   -1    0    0    0  501 -0.00000000000E+00 -0.00000000000E+00 -0.22993361945E+03  0.22993361945E+03  0.00000000000E+00 0.  1.
         25    2    1    2    0    0 -0.18543951661E+03  0.14552479561E+03 -0.78031308953E+02  0.27803253909E+03  0.12509167501E+03 0.  0.
         23    2    1    2    0    0  0.18543951661E+03 -0.14552479561E+03  0.25664272506E+03  0.36044611591E+03  0.92144634618E+02 0.  0.
          5    1    3    3  502    0 -0.72707889113E+01  0.77645980796E+01 -0.49707609441E+02  0.51004629114E+02  0.41800000000E+01 0. -1.
         -5    1    3    3    0  502 -0.17816872770E+03  0.13776019753E+03 -0.28323699512E+02  0.22702790998E+03  0.41800000000E+01 0. -1.
        -11    1    4    4    0    0  0.16396163929E+03 -0.77751084519E+02  0.19469687241E+03  0.26614943627E+03  0.00000000000E+00 0. -1.
         11    1    4    4    0    0  0.21477877319E+02 -0.67773711094E+02  0.61945852649E+02  0.94296679634E+02  0.00000000000E+00 0.  1.
</event>
<event>
 8    1  0.6840084E-009  0.9857863E+02  0.7561462E-02  0.1283314E+00
         -1   -1    0    0    0  501 -0.00000000000E+00  0.00000000000E+00  0.27707104680E+02  0.27707104680E+02  0.00000000000E+00 0. -1.
          1   -1    0    0  501    0  0.00000000000E+00 -0.00000000000E+00 -0.49933383739E+03  0.49933383739E+03  0.00000000000E+00 0.  1.
         25    2    1    2    0    0 -0.15663546899E+02  0.40446948998E+02 -0.22780440730E+03  0.26348356397E+03  0.12508972025E+03 0.  0.
         23    2    1    2    0    0  0.15663546899E+02 -0.40446948998E+02 -0.24382232541E+03  0.26355737810E+03  0.90176841809E+02 0.  0.
          5    1    3    3  502    0 -0.31297641735E+02 -0.18075381172E+02 -0.10518022665E+02  0.37872984877E+02  0.41800000000E+01 0.  1.
         -5    1    3    3    0  502  0.15634094837E+02  0.58522330170E+02 -0.21728638463E+03  0.22561057909E+03  0.41800000000E+01 0.  1.
        -11    1    4    4    0    0  0.50679227616E+02 -0.61667342141E+01 -0.12250901408E+03  0.13272102793E+03  0.00000000000E+00 0.  1.
         11    1    4    4    0    0 -0.35015680717E+02 -0.34280214784E+02 -0.12131331133E+03  0.13083635018E+03  0.00000000000E+00 0. -1.
</event>
<event>
 8    1  0.6840084E-009  0.1096720E+03  0.7561462E-02  0.1261178E+00
         -1   -1    0    0    0  501 -0.00000000000E+00  0.00000000000E+00  0.17525982746E+03  0.17525982746E+03  0.00000000000E+00 0.  1.
          1   -1    0    0  501    0  0.00000000000E+00 -0.00000000000E+00 -0.10017692472E+03  0.10017692472E+03  0.00000000000E+00 0. -1.
         25    2    1    2    0    0 -0.52310637318E+01  0.66110074421E+02  0.79870001661E+02  0.16255520841E+03  0.12508825944E+03 0.  0.
         23    2    1    2    0    0  0.52310637318E+01 -0.66110074421E+02 -0.47870989175E+01  0.11288154377E+03  0.91221821074E+02 0.  0.
          5    1    3    3  502    0  0.34548523854E+02  0.74266132649E+00  0.78541922525E+02  0.85909592249E+02  0.41800000000E+01 0.  1.
         -5    1    3    3    0  502 -0.39779587586E+02  0.65367413095E+02  0.13280791360E+01  0.76645616165E+02  0.41800000000E+01 0.  1.
        -11    1    4    4    0    0  0.43861494583E+02 -0.48666683696E+02 -0.18934552546E+02  0.68196730780E+02  0.00000000000E+00 0. -1.
         11    1    4    4    0    0 -0.38630430851E+02 -0.17443390725E+02  0.14147453628E+02  0.44684812990E+02  0.00000000000E+00 0.  1.
</event>
<event>
 8    1  0.6840084E-009  0.1200898E+03  0.7561462E-02  0.1242949E+00
          1   -1    0    0  501    0  0.00000000000E+00  0.00000000000E+00  0.66183866812E+02  0.66183866812E+02  0.00000000000E+00 0. -1.
         -1   -1    0    0    0  501 -0.00000000000E+00 -0.00000000000E+00 -0.33732599546E+03  0.33732599546E+03  0.00000000000E+00 0.  1.
         25    2    1    2    0    0  0.69806575018E+02  0.70997674491E+02 -0.10841763731E+03  0.19317237983E+03  0.12509019366E+03 0.  0.
         23    2    1    2    0    0 -0.69806575018E+02 -0.70997674491E+02 -0.16272449133E+03  0.21033748244E+03  0.88594405808E+02 0.  0.
          5    1    3    3  502    0  0.30802506950E+02  0.59423729637E+02 -0.13047752052E+03  0.14670320324E+03  0.41800000000E+01 0.  1.
         -5    1    3    3    0  502  0.39004068068E+02  0.11573944854E+02  0.22059883215E+02  0.46469176588E+02  0.41800000000E+01 0.  1.
        -11    1    4    4    0    0 -0.51120861906E+02  0.73730012813E+01 -0.76765794791E+02  0.92524001858E+02  0.00000000000E+00 0. -1.
         11    1    4    4    0    0 -0.18685713112E+02 -0.78370675773E+02 -0.85958696544E+02  0.11781348058E+03  0.00000000000E+00 0.  1.
</event>
<event>
 8    1  0.6840084E-009  0.8085019E+02  0.7561462E-02  0.1326656E+00
          1   -1    0    0  501    0  0.00000000000E+00  0.00000000000E+00  0.18800105264E+03  0.18800105264E+03  0.00000000000E+00 0. -1.
         -1   -1    0    0    0  501 -0.00000000000E+00 -0.00000000000E+00 -0.81853198669E+02  0.81853198669E+02  0.00000000000E+00 0.  1.
         25    2    1    2    0    0 -0.42195876780E+02  0.29861004285E+02  0.98080880633E+02  0.16715109439E+03  0.12508979821E+03 0.  0.
         23    2    1    2    0    0  0.42195876780E+02 -0.29861004285E+02  0.80669733429E+01  0.10270315692E+03  0.88378112610E+02 0.  0.
          5    1    3    3  502    0  0.70105821175E+01  0.49549353673E+02  0.10215595021E+03  0.11383144238E+03  0.41800000000E+01 0. -1.
         -5    1    3    3    0  502 -0.49206458898E+02 -0.19688349388E+02 -0.40750695741E+01  0.53319652015E+02  0.41800000000E+01 0. -1.
        -11    1    4    4    0    0  0.21177951283E+02  0.74571067815E+00  0.45368177867E+02  0.50073278981E+02  0.00000000000E+00 0. -1.
         11    1    4    4    0    0  0.21017925498E+02 -0.30606714963E+02 -0.37301204524E+02  0.52629877940E+02  0.00000000000E+00 0.  1.
</event>
<event>
 8    1  0.6840084E-009  0.1099526E+03  0.7561462E-02  0.1260658E+00
         -2   -1    0    0    0  501 -0.00000000000E+00  0.00000000000E+00  0.54737785831E+02  0.54737785831E+02  0.00000000000E+00 0. -1.
          2   -1    0    0  501    0  0.00000000000E+00 -0.00000000000E+00 -0.37519804253E+03  0.37519804253E+03  0.00000000000E+00 0.  1.
         25    2    1    2    0    0 -0.37927248917E+02  0.63498644818E+02 -0.89114114467E+02  0.17046800733E+03  0.12508981582E+03 0.  0.
         23    2    1    2    0    0  0.37927248917E+02 -0.63498644818E+02 -0.23134614224E+03  0.25946782104E+03  0.91279562453E+02 0.  0.
          5    1    3    3  502    0 -0.59201280735E+02  0.71075359340E+02 -0.10689474213E+03  0.14142297070E+03  0.41800000000E+01 0. -1.
         -5    1    3    3    0  502  0.21274031818E+02 -0.75767145221E+01  0.17780627663E+02  0.29045036630E+02  0.41800000000E+01 0. -1.
        -11    1    4    4    0    0 -0.22231843909E+02 -0.12689696590E+02 -0.16027453171E+02  0.30202028711E+02  0.00000000000E+00 0. -1.
         11    1    4    4    0    0  0.60159092826E+02 -0.50808948228E+02 -0.21531868907E+03  0.22926579232E+03  0.00000000000E+00 0.  1.
</event>
<event>
 8    1  0.6840084E-009  0.1160258E+03  0.7561462E-02  0.1249801E+00
         -1   -1    0    0    0  501 -0.00000000000E+00  0.00000000000E+00  0.63010726178E+02  0.63010726178E+02  0.00000000000E+00 0.  1.
          1   -1    0    0  501    0  0.00000000000E+00 -0.00000000000E+00 -0.39959860243E+03  0.39959860243E+03  0.00000000000E+00 0. -1.
         25    2    1    2    0    0  0.96461080098E+02  0.29713488769E+02 -0.98715616920E+02  0.18862550718E+03  0.12508867873E+03 0.  0.
         23    2    1    2    0    0 -0.96461080098E+02 -0.29713488769E+02 -0.23787225933E+03  0.27398382143E+03  0.91083979143E+02 0.  0.
          5    1    3    3  502    0  0.82811199400E+02  0.41945949416E+01  0.27122088052E+01  0.83066947996E+02  0.41800000000E+01 0. -1.
         -5    1    3    3    0  502  0.13649880697E+02  0.25518893827E+02 -0.10142782572E+03  0.10555855918E+03  0.41800000000E+01 0. -1.
        -11    1    4    4    0    0 -0.63237923477E+02 -0.50213837678E+02 -0.89418971556E+02  0.12048326412E+03  0.00000000000E+00 0.  1.
         11    1    4    4    0    0 -0.33223156620E+02  0.20500348909E+02 -0.14845328777E+03  0.15350055730E+03  0.00000000000E+00 0. -1.
</event>
<event>
 8    1  0.6840084E-009  0.9752775E+02  0.7561462E-02  0.1285582E+00
          3   -1    0    0  501    0  0.00000000000E+00  0.00000000000E+00  0.24939569027E+03  0.24939569027E+03  0.00000000000E+00 0. -1.
         -3   -1    0    0    0  501 -0.00000000000E+00 -0.00000000000E+00 -0.61334013754E+02  0.61334013754E+02  0.00000000000E+00 0.  1.
         25    2    1    2    0    0 -0.13678523858E+02  0.46336934076E+02  0.15222682920E+03  0.20286834775E+03  0.12509334721E+03 0.  0.
         23    2    1    2    0    0  0.13678523858E+02 -0.46336934076E+02  0.35834847311E+02  0.10786135627E+03  0.89530566962E+02 0.  0.
          5    1    3    3  502    0  0.41862695584E+02 -0.19254156026E+02  0.38093272524E+02  0.59931440976E+02  0.41800000000E+01 0. -1.
         -5    1    3    3    0  502 -0.55541219442E+02  0.65591090102E+02  0.11413355668E+03  0.14293690677E+03  0.41800000000E+01 0. -1.
        -11    1    4    4    0    0  0.11790937901E+02  0.39358167811E+01 -0.25598821161E+02  0.28457275259E+02  0.00000000000E+00 0.  1.
         11    1    4    4    0    0  0.18875859573E+01 -0.50272750857E+02  0.61433668472E+02  0.79404081013E+02  0.00000000000E+00 0. -1.
</event>
<event>
 8    1  0.6840084E-009  0.9155702E+02  0.7561462E-02  0.1299124E+00
         -2   -1    0    0    0  501 -0.00000000000E+00  0.00000000000E+00  0.33949603627E+02  0.33949603627E+02  0.00000000000E+00 0.  1.
          2   -1    0    0  501    0  0.00000000000E+00 -0.00000000000E+00 -0.53438483595E+03  0.53438483595E+03  0.00000000000E+00 0. -1.
         25    2    1    2    0    0 -0.16437646118E+02  0.72843811632E+02 -0.21310050731E+03  0.25813947026E+03  0.12509093807E+03 0.  0.
         23    2    1    2    0    0  0.16437646118E+02 -0.72843811632E+02 -0.28733472502E+03  0.31019496932E+03  0.89906939040E+02 0.  0.
          5    1    3    3  502    0  0.98390645887E+01  0.30704945841E+02 -0.20510534889E+03  0.20766626456E+03  0.41800000000E+01 0. -1.
         -5    1    3    3    0  502 -0.26276710707E+02  0.42138865791E+02 -0.79951584150E+01  0.50473205702E+02  0.41800000000E+01 0. -1.
        -11    1    4    4    0    0 -0.26422538359E+02 -0.23026023996E+02 -0.35340658047E+02  0.49772587089E+02  0.00000000000E+00 0.  1.
         11    1    4    4    0    0  0.42860184477E+02 -0.49817787637E+02 -0.25199406697E+03  0.26042238223E+03  0.00000000000E+00 0. -1.
</event>
<event>
 8    1  0.6840084E-009  0.6327418E+02  0.7561462E-02  0.1384583E+00
          1   -1    0    0  501    0  0.00000000000E+00  0.00000000000E+00  0.24536504427E+02  0.24536504427E+02  0.00000000000E+00 0. -1.
         -1   -1    0    0    0  501 -0.00000000000E+00 -0.00000000000E+00 -0.50097640153E+03  0.50097640153E+03  0.00000000000E+00 0.  1.
         25    2    1    2    0    0  0.15890990582E+02  0.21470470900E+00 -0.30741816990E+03  0.33227452761E+03  0.12509140992E+03 0.  0.
         23    2    1    2    0    0 -0.15890990582E+02 -0.21470470900E+00 -0.16902172721E+03  0.19323837835E+03  0.92304696081E+02 0.  0.
          5    1    3    3  502    0  0.39697448370E+02 -0.12831108761E+01 -0.30537059755E+03  0.30797111558E+03  0.41800000000E+01 0. -1.
         -5    1    3    3    0  502 -0.23806457788E+02  0.14978155851E+01 -0.20475723441E+01  0.24303412033E+02  0.41800000000E+01 0. -1.
        -11    1    4    4    0    0  0.10800291070E+02  0.24023433139E+02 -0.70003515300E+01  0.27253927212E+02  0.00000000000E+00 0. -1.
         11    1    4    4    0    0 -0.26691281651E+02 -0.24238137848E+02 -0.16202137568E+03  0.16598445113E+03  0.00000000000E+00 0.  1.
</event>
<event>
 8    1  0.6840084E-009  0.1145734E+03  0.7561462E-02  0.1252328E+00
          1   -1    0    0  501    0  0.00000000000E+00  0.00000000000E+00  0.35383987154E+02  0.35383987154E+02  0.00000000000E+00 0. -1.
         -1   -1    0    0    0  501 -0.00000000000E+00 -0.00000000000E+00 -0.60122188962E+03  0.60122188962E+03  0.00000000000E+00 0.  1.
         25    2    1    2    0    0 -0.53380370579E+02  0.59762060516E+02 -0.18686941780E+03  0.23872193106E+03  0.12508802188E+03 0.  0.
         23    2    1    2    0    0  0.53380370579E+02 -0.59762060516E+02 -0.37896848466E+03  0.39788394572E+03  0.90959078998E+02 0.  0.
          5    1    3    3  502    0  0.83228831194E+01  0.55573610309E+02 -0.18505111308E+02  0.59309426660E+02  0.41800000000E+01 0. -1.
         -5    1    3    3    0  502 -0.61703253699E+02  0.41884502065E+01 -0.16836430649E+03  0.17941250440E+03  0.41800000000E+01 0. -1.
        -11    1    4    4    0    0  0.45239988207E+01 -0.61749475077E+02 -0.12789730301E+03  0.14209568732E+03  0.00000000000E+00 0. -1.
         11    1    4    4    0    0  0.48856371759E+02  0.19874145607E+01 -0.25107118165E+03  0.25578825840E+03  0.00000000000E+00 0.  1.
</event>
<event>
 7    1  0.6840084E-009  0.1447778E+03  0.7561462E-02  0.1207041E+00
          2   -1    0    0  501    0  0.00000000000E+00  0.00000000000E+00  0.44623124717E+03  0.44623124717E+03  0.00000000000E+00 0.  1.
         -2   -1    0    0    0  501 -0.00000000000E+00 -0.00000000000E+00 -0.16780386231E+03  0.16780386231E+03  0.00000000000E+00 0. -1.
         25    2    1    2    0    0  0.32560358825E+00  0.83102695619E+02  0.36797463805E+03  0.39744082895E+03  0.12509082392E+03 0.  0.
          5    1    3    3  502    0  0.26999490281E+02 -0.16590188288E+02  0.18131960532E+03  0.18411539451E+03  0.41800000000E+01 0. -1.
         -5    1    3    3    0  502 -0.26673886693E+02  0.99692883907E+02  0.18665503274E+03  0.21332543444E+03  0.41800000000E+01 0. -1.
        -11    1    1    2    0    0  0.63773377864E+02 -0.55408766410E+02 -0.11463176544E+03  0.14239949708E+03  0.00000000000E+00 0. -1.
         11    1    1    2    0    0 -0.64098981453E+02 -0.27693929209E+02  0.25084512246E+02  0.74194783461E+02  0.00000000000E+00 0.  1.
</event>
<event>
 8    1  0.6840084E-009  0.9265143E+02  0.7561462E-02  0.1296555E+00
         -2   -1    0    0    0  501 -0.00000000000E+00  0.00000000000E+00  0.32268876228E+03  0.32268876228E+03  0.00000000000E+00 0.  1.
          2   -1    0    0  501    0  0.00000000000E+00 -0.00000000000E+00 -0.47482529448E+02  0.47482529448E+02  0.00000000000E+00 0. -1.
         25    2    1    2    0    0  0.51681031981E+02  0.26748845322E+02  0.12719157008E+03  0.18764335967E+03  0.12508359259E+03 0.  0.
         23    2    1    2    0    0 -0.51681031981E+02 -0.26748845322E+02  0.14801466274E+03  0.18252793206E+03  0.89563808545E+02 0.  0.
          5    1    3    3  502    0  0.53191778192E+02 -0.24040449628E+02  0.12333434532E+03  0.13651425427E+03  0.41800000000E+01 0.  1.
         -5    1    3    3    0  502 -0.15107462117E+01  0.50789294950E+02  0.38572247699E+01  0.51129105395E+02  0.41800000000E+01 0.  1.
        -11    1    4    4    0    0 -0.42676455773E+02 -0.40843892034E+02  0.15385993797E+03  0.16481014504E+03  0.00000000000E+00 0.  1.
         11    1    4    4    0    0 -0.90045762078E+01  0.14095046712E+02 -0.58452752267E+01  0.17717787023E+02  0.00000000000E+00 0. -1.
</event>
<event>
 8    1  0.6840084E-009  0.1839074E+03  0.7561462E-02  0.1164074E+00
          2   -1    0    0  501    0  0.00000000000E+00  0.00000000000E+00  0.17720699510E+03  0.17720699510E+03  0.00000000000E+00 0. -1.
         -2   -1    0    0    0  501 -0.00000000000E+00 -0.00000000000E+00 -0.21198114160E+03  0.21198114160E+03  0.00000000000E+00 0.  1.
         25    2    1    2    0    0 -0.16049543000E+03  0.13736074439E+02 -0.20066119405E+02  0.20491515496E+03  0.12506042057E+03 0.  0.
         23    2    1    2    0    0  0.16049543000E+03 -0.13736074439E+02 -0.14708027089E+02  0.18427298175E+03  0.88276514148E+02 0.  0.
          5    1    3    3  502    0 -0.82823641480E+02  0.66551405059E+02  0.84474008874E+01  0.10666618998E+03  0.41800000000E+01 0. -1.
         -5    1    3    3    0  502 -0.77671788515E+02 -0.52815330620E+02 -0.28513520292E+02  0.98248964977E+02  0.41800000000E+01 0. -1.
        -11    1    4    4    0    0  0.13271586081E+03  0.68420998064E+01 -0.42920331223E+02  0.13965124014E+03  0.00000000000E+00 0.  1.
         11    1    4    4    0    0  0.27779569185E+02 -0.20578174245E+02  0.28212304133E+02  0.44621741605E+02  0.00000000000E+00 0. -1.
</event>
<event>
 8    1  0.6840084E-009  0.1134388E+03  0.7561462E-02  0.1254331E+00
         -2   -1    0    0    0  501 -0.00000000000E+00  0.00000000000E+00  0.10011019450E+03  0.10011019450E+03  0.00000000000E+00 0.  1.
          2   -1    0    0  501    0  0.00000000000E+00 -0.00000000000E+00 -0.15354314380E+03  0.15354314380E+03  0.00000000000E+00 0. -1.
         25    2    1    2    0    0  0.20302884707E+02  0.24868792771E+02 -0.52603233330E+02  0.13944488434E+03  0.12508841525E+03 0.  0.
         23    2    1    2    0    0 -0.20302884707E+02 -0.24868792771E+02 -0.82971597346E+00  0.11420845396E+03  0.10960026709E+03 0.  0.
          5    1    3    3  502    0 -0.26794290486E+02 -0.31390160799E+02 -0.51261756506E+02  0.65943280763E+02  0.41800000000E+01 0.  1.
         -5    1    3    3    0  502  0.47097175193E+02  0.56258953570E+02 -0.13414768240E+01  0.73501603575E+02  0.41800000000E+01 0.  1.
        -11    1    4    4    0    0 -0.27592532680E+02 -0.65264798113E+02  0.10484237727E+02  0.71629330398E+02  0.00000000000E+00 0.  1.
         11    1    4    4    0    0  0.72896479736E+01  0.40396005343E+02 -0.11313953700E+02  0.42579123565E+02  0.00000000000E+00 0. -1.
</event>
<event>
 8    1  0.6840084E-009  0.1366144E+03  0.7561462E-02  0.1217958E+00
          1   -1    0    0  501    0  0.00000000000E+00  0.00000000000E+00  0.76196650553E+03  0.76196650553E+03  0.00000000000E+00 0. -1.
         -1   -1    0    0    0  501 -0.00000000000E+00 -0.00000000000E+00 -0.55470974137E+02  0.55470974137E+02  0.00000000000E+00 0.  1.
         25    2    1    2    0    0 -0.25378636635E+02 -0.12389291961E+03  0.60428594942E+03  0.62992354275E+03  0.12509448553E+03 0.  0.
         23    2    1    2    0    0  0.25378636635E+02  0.12389291961E+03  0.10220958197E+03  0.18751393692E+03  0.93387082435E+02 0.  0.
          5    1    3    3  502    0  0.17817353641E+02 -0.12417855916E+02  0.32933510591E+03  0.33007687835E+03  0.41800000000E+01 0. -1.
         -5    1    3    3    0  502 -0.43195990276E+02 -0.11147506369E+03  0.27495084351E+03  0.29984666440E+03  0.41800000000E+01 0. -1.
        -11    1    4    4    0    0  0.45990206146E+01  0.98804415284E+02  0.22547996303E+02  0.10144888175E+03  0.00000000000E+00 0.  1.
         11    1    4    4    0    0  0.20779616021E+02  0.25088504325E+02  0.79661585663E+02  0.86065055171E+02  0.00000000000E+00 0. -1.
</event>
<event>
 8    1  0.6840084E-009  0.9913153E+02  0.7561462E-02  0.1282133E+00
          4   -1    0    0  501    0  0.00000000000E+00  0.00000000000E+00  0.17958642114E+02  0.17958642114E+02  0.00000000000E+00 0. -1.
         -4   -1    0    0    0  501 -0.00000000000E+00 -0.00000000000E+00 -0.14002956398E+04  0.14002956398E+04  0.00000000000E+00 0.  1.
         25    2    1    2    0    0  0.63398780798E+02 -0.65300328365E+02 -0.10606371838E+04  0.10718589521E+04  0.12508732631E+03 0.  0.
         23    2    1    2    0    0 -0.63398780798E+02  0.65300328365E+02 -0.32169981389E+03  0.34639532984E+03  0.90638931956E+02 0.  0.
          5    1    3    3  502    0 -0.40187508489E+00  0.39011942376E+01 -0.66985053143E+03  0.66987505378E+03  0.41800000000E+01 0.  1.
         -5    1    3    3    0  502  0.63800655883E+02 -0.69201522603E+02 -0.39078665240E+03  0.40198389833E+03  0.41800000000E+01 0.  1.
        -11    1    4    4    0    0 -0.18704073051E+02  0.45949259173E+02 -0.27317798938E+03  0.27764616087E+03  0.00000000000E+00 0.  1.
         11    1    4    4    0    0 -0.44694707748E+02  0.19351069192E+02 -0.48521824513E+02  0.68749168967E+02  0.00000000000E+00 0. -1.
</event>
<event>
 8    1  0.6840084E-009  0.1188893E+03  0.7561462E-02  0.1244941E+00
          1   -1    0    0  501    0  0.00000000000E+00  0.00000000000E+00  0.34361458315E+03  0.34361458315E+03  0.00000000000E+00 0. -1.
         -1   -1    0    0    0  501 -0.00000000000E+00 -0.00000000000E+00 -0.47417201456E+02  0.47417201456E+02  0.00000000000E+00 0.  1.
         25    2    1    2    0    0 -0.54671265044E+01 -0.66689682925E+02  0.16129517969E+03  0.21480593876E+03  0.12509217822E+03 0.  0.
         23    2    1    2    0    0  0.54671265044E+01  0.66689682925E+02  0.13490220201E+03  0.17622584585E+03  0.91539834823E+02 0.  0.
          5    1    3    3  502    0 -0.49121082190E+02 -0.17019644729E+01  0.11151311428E+03  0.12193614909E+03  0.41800000000E+01 0. -1.
         -5    1    3    3    0  502  0.43653955685E+02 -0.64987718452E+02  0.49782065416E+02  0.92869789671E+02  0.41800000000E+01 0. -1.
        -11    1    4    4    0    0 -0.37515476656E+02  0.53013250577E+02  0.58010813173E+02  0.87080825504E+02  0.00000000000E+00 0.  1.
         11    1    4    4    0    0  0.42982603160E+02  0.13676432347E+02  0.76891388832E+02  0.89145020347E+02  0.00000000000E+00 0. -1.
</event>
<event>
 8    1  0.6840084E-009  0.1528913E+03  0.7561462E-02  0.1196965E+00
         -1   -1    0    0    0  501 -0.00000000000E+00  0.00000000000E+00  0.21107425278E+03  0.21107425278E+03  0.00000000000E+00 0.  1.
          1   -1    0    0  501    0  0.00000000000E+00 -0.00000000000E+00 -0.31963396270E+03  0.31963396270E+03  0.00000000000E+00 0. -1.
         25    2    1    2    0    0 -0.84289574639E+02  0.10437779047E+03  0.14203864297E+03  0.23199554822E+03  0.12508997866E+03 0.  0.
         23    2    1    2    0    0  0.84289574639E+02 -0.10437779047E+03 -0.25059835288E+03  0.29871266726E+03  0.91816488575E+02 0.  0.
          5    1    3    3  502    0 -0.15504705776E+02 -0.70716932895E+01 -0.18013311049E+02  0.25146700024E+02  0.41800000000E+01 0.  1.
         -5    1    3    3    0  502 -0.68784868863E+02  0.11144948376E+03  0.16005195401E+03  0.20684884819E+03  0.41800000000E+01 0.  1.
        -11    1    4    4    0    0 -0.14353932686E+02 -0.31314365369E+02 -0.27522547581E+02  0.44092125004E+02  0.00000000000E+00 0. -1.
         11    1    4    4    0    0  0.98643507325E+02 -0.73063425105E+02 -0.22307580530E+03  0.25462054225E+03  0.00000000000E+00 0.  1.
</event>
<event>
 8    1  0.6840084E-009  0.1408277E+03  0.7561462E-02  0.1212220E+00
          2   -1    0    0  501    0  0.00000000000E+00  0.00000000000E+00  0.39946709321E+03  0.39946709321E+03  0.00000000000E+00 0. -1.
         -2   -1    0    0    0  501 -0.00000000000E+00 -0.00000000000E+00 -0.14179224630E+03  0.14179224630E+03  0.00000000000E+00 0.  1.
         25    2    1    2    0    0  0.54418742425E+02  0.10745450874E+03  0.33100354002E+03  0.37378936625E+03  0.12508907162E+03 0.  0.
         23    2    1    2    0    0 -0.54418742425E+02 -0.10745450874E+03 -0.73328693108E+02  0.16746997327E+03  0.90339491575E+02 0.  0.
          5    1    3    3  502    0 -0.14202903390E+02  0.88572775732E+02  0.11248656029E+03  0.14393595003E+03  0.41800000000E+01 0.  1.
         -5    1    3    3    0  502  0.68621645814E+02  0.18881733011E+02  0.21851697973E+03  0.22985341622E+03  0.41800000000E+01 0.  1.
        -11    1    4    4    0    0 -0.35255411072E+02 -0.64035175909E+02  0.77638382833E+01  0.73510032978E+02  0.00000000000E+00 0. -1.
         11    1    4    4    0    0 -0.19163331353E+02 -0.43419332834E+02 -0.81092531391E+02  0.93959940292E+02  0.00000000000E+00 0.  1.
</event>
<event>
 8    1  0.6840084E-009  0.1510212E+03  0.7561462E-02  0.1199224E+00
         -2   -1    0    0    0  501 -0.00000000000E+00  0.00000000000E+00  0.73905913930E+02  0.73905913930E+02  0.00000000000E+00 0.  1.
          2   -1    0    0  501    0  0.00000000000E+00 -0.00000000000E+00 -0.36831461232E+03  0.36831461232E+03  0.00000000000E+00 0. -1.
         25    2    1    2    0    0 -0.86523405398E+02 -0.70295755809E+02 -0.84906694779E+02  0.18784371545E+03  0.12509325181E+03 0.  0.
         23    2    1    2    0    0  0.86523405398E+02  0.70295755809E+02 -0.20950200361E+03  0.25437681080E+03  0.91589734094E+02 0.  0.
          5    1    3    3  502    0  0.26385546769E+02 -0.91323036932E+00  0.55984297609E+01  0.27310179124E+02  0.41800000000E+01 0.  1.
         -5    1    3    3    0  502 -0.11290895217E+03 -0.69382525440E+02 -0.90505124540E+02  0.16053353632E+03  0.41800000000E+01 0.  1.
        -11    1    4    4    0    0  0.63181157967E+02  0.91495897041E+02 -0.17749325199E+03  0.20944501044E+03  0.00000000000E+00 0.  1.
         11    1    4    4    0    0  0.23342247431E+02 -0.21200141232E+02 -0.32008751620E+02  0.44931800360E+02  0.00000000000E+00 0. -1.
</event>
<event>
 8    1  0.6840084E-009  0.9903158E+02  0.7561462E-02  0.1282346E+00
         -3   -1    0    0    0  501 -0.00000000000E+00  0.00000000000E+00  0.13886473746E+03  0.13886473746E+03  0.00000000000E+00 0.  1.
          3   -1    0    0  501    0  0.00000000000E+00 -0.00000000000E+00 -0.10678445026E+03  0.10678445026E+03  0.00000000000E+00 0. -1.
         25    2    1    2    0    0  0.34844259291E+02  0.59214471787E+01 -0.26599940558E+02  0.13267682487E+03  0.12508555903E+03 0.  0.
         23    2    1    2    0    0 -0.34844259291E+02 -0.59214471787E+01  0.58680227758E+02  0.11297236285E+03  0.89834290195E+02 0.  0.
          5    1    3    3  502    0  0.57901143840E+02  0.32493218758E+02 -0.55749936051E+02  0.86797923321E+02  0.41800000000E+01 0. -1.
         -5    1    3    3    0  502 -0.23056884549E+02 -0.26571771579E+02  0.29149995493E+02  0.45878901547E+02  0.41800000000E+01 0. -1.
        -11    1    4    4    0    0  0.10826710559E+02 -0.38509667875E+02  0.19224249530E+02  0.44382248156E+02  0.00000000000E+00 0. -1.
         11    1    4    4    0    0 -0.45670969850E+02  0.32588220696E+02  0.39455978228E+02  0.68590114689E+02  0.00000000000E+00 0.  1.
</event>
<event>
 8    1  0.6840084E-009  0.1000787E+03  0.7561462E-02  0.1280131E+00
         -1   -1    0    0    0  501 -0.00000000000E+00  0.00000000000E+00  0.13093729534E+02  0.13093729534E+02  0.00000000000E+00 0.  1.
          1   -1    0    0  501    0  0.00000000000E+00 -0.00000000000E+00 -0.97002495948E+03  0.97002495948E+03  0.00000000000E+00 0. -1.
         25    2    1    2    0    0 -0.42650873295E+00  0.28135034383E+02 -0.62794189552E+03  0.64089794469E+03  0.12508952513E+03 0.  0.
         23    2    1    2    0    0  0.42650873295E+00 -0.28135034383E+02 -0.32898933442E+03  0.34222074432E+03  0.89940500368E+02 0.  0.
          5    1    3    3  502    0  0.32400212042E+01  0.67076045006E+02 -0.54458602623E+03  0.54872680444E+03  0.41800000000E+01 0.  1.
         -5    1    3    3    0  502 -0.36665299372E+01 -0.38941010623E+02 -0.83355869291E+02  0.92171140252E+02  0.41800000000E+01 0.  1.
        -11    1    4    4    0    0 -0.34124817933E+02  0.15832016676E+02 -0.15324161325E+03  0.15779146993E+03  0.00000000000E+00 0. -1.
         11    1    4    4    0    0  0.34551326666E+02 -0.43967051059E+02 -0.17574772117E+03  0.18442927439E+03  0.00000000000E+00 0.  1.
</event>
<event>
 8    1  0.6840084E-009  0.1320685E+03  0.7561462E-02  0.1224418E+00
         -3   -1    0    0    0  501 -0.00000000000E+00  0.00000000000E+00  0.99171668647E+02  0.99171668647E+02  0.00000000000E+00 0.  1.
          3   -1    0    0  501    0  0.00000000000E+00 -0.00000000000E+00 -0.22712312303E+03  0.22712312303E+03  0.00000000000E+00 0. -1.
         25    2    1    2    0    0 -0.66350241131E+02  0.49302352270E+02 -0.42669590221E+01  0.14999052582E+03  0.12508346996E+03 0.  0.
         23    2    1    2    0    0  0.66350241131E+02 -0.49302352270E+02 -0.12368449536E+03  0.17630426586E+03  0.94616400959E+02 0.  0.
          5    1    3    3  502    0 -0.80820533862E+02 -0.16178994650E+02 -0.62853370661E+01  0.82768933929E+02  0.41800000000E+01 0. -1.
         -5    1    3    3    0  502  0.14470292732E+02  0.65481346920E+02  0.20183780440E+01  0.67221591889E+02  0.41800000000E+01 0. -1.
        -11    1    4    4    0    0  0.62548618167E+01 -0.53790642240E+02 -0.95479967667E+02  0.10976784918E+03  0.00000000000E+00 0. -1.
         11    1    4    4    0    0  0.60095379314E+02  0.44882899699E+01 -0.28204527697E+02  0.66536416678E+02  0.00000000000E+00 0.  1.
</event>
<event>
 8    1  0.6840084E-009  0.1351156E+03  0.7561462E-02  0.1220057E+00
          1   -1    0    0  501    0  0.00000000000E+00  0.00000000000E+00  0.86555502299E+03  0.86555502299E+03  0.00000000000E+00 0. -1.
         -1   -1    0    0    0  501 -0.00000000000E+00 -0.00000000000E+00 -0.24026675925E+02  0.24026675925E+02  0.00000000000E+00 0.  1.
         25    2    1    2    0    0 -0.17507181386E+00 -0.90122171321E+02  0.36827229785E+03  0.39924157963E+03  0.12508923664E+03 0.  0.
         23    2    1    2    0    0  0.17507181386E+00  0.90122171321E+02  0.47325604921E+03  0.49034011929E+03  0.91324192053E+02 0.  0.
          5    1    3    3  502    0 -0.56493651006E+02 -0.70870328347E+02  0.26335895964E+03  0.27854900838E+03  0.41800000000E+01 0. -1.
         -5    1    3    3    0  502  0.56318579192E+02 -0.19251842975E+02  0.10491333821E+03  0.12069257125E+03  0.41800000000E+01 0. -1.
        -11    1    4    4    0    0 -0.23051918319E+02 -0.35550435169E+01  0.38617049611E+02  0.45114363492E+02  0.00000000000E+00 0.  1.
         11    1    4    4    0    0  0.23226990133E+02  0.93677214838E+02  0.43463899960E+03  0.44522575580E+03  0.00000000000E+00 0. -1.
</event>
<event>
 8    1  0.6840084E-009  0.1496999E+03  0.7561462E-02  0.1200842E+00
         -2   -1    0    0    0  501 -0.00000000000E+00  0.00000000000E+00  0.48585425602E+02  0.48585425602E+02  0.00000000000E+00 0.  1.
          2   -1    0    0  501    0  0.00000000000E+00 -0.00000000000E+00 -0.11800396292E+04  0.11800396292E+04  0.00000000000E+00 0. -1.
         25    2    1    2    0    0 -0.71402178908E+02  0.86952770618E+02 -0.10255513320E+04  0.10392582362E+04  0.12507234561E+03 0.  0.
         23    2    1    2    0    0  0.71402178908E+02 -0.86952770618E+02 -0.10590287159E+03  0.18936681851E+03  0.10947747838E+03 0.  0.
          5    1    3    3  502    0 -0.37230020857E+02 -0.24327210972E+02 -0.43797609112E+03  0.44024813054E+03  0.41800000000E+01 0. -1.
         -5    1    3    3    0  502 -0.34172158051E+02  0.11127998159E+03 -0.58757524084E+03  0.59901010571E+03  0.41800000000E+01 0. -1.
        -11    1    4    4    0    0  0.29266453173E+00  0.14418498682E+02 -0.52626478536E+02  0.54566702300E+02  0.00000000000E+00 0. -1.
         11    1    4    4    0    0  0.71109514376E+02 -0.10137126930E+03 -0.53276393052E+02  0.13480011621E+03  0.00000000000E+00 0.  1.
</event>
<event>
 8    1  0.6840084E-009  0.8242646E+02  0.7561462E-02  0.1322303E+00
         -1   -1    0    0    0  501 -0.00000000000E+00  0.00000000000E+00  0.84236514047E+02  0.84236514047E+02  0.00000000000E+00 0.  1.
          1   -1    0    0  501    0  0.00000000000E+00 -0.00000000000E+00 -0.15346741073E+03  0.15346741073E+03  0.00000000000E+00 0. -1.
         25    2    1    2    0    0 -0.34303841316E+02 -0.18079645980E+01 -0.43789591715E+02  0.13691317620E+03  0.12509063598E+03 0.  0.
         23    2    1    2    0    0  0.34303841316E+02  0.18079645980E+01 -0.25441304968E+02  0.10079074857E+03  0.91277010987E+02 0.  0.
          5    1    3    3  502    0  0.17637573771E+02  0.80999986712E+01 -0.73487695232E+02  0.76122320889E+02  0.41800000000E+01 0.  1.
         -5    1    3    3    0  502 -0.51941415087E+02 -0.99079632692E+01  0.29698103517E+02  0.60790855315E+02  0.41800000000E+01 0.  1.
        -11    1    4    4    0    0 -0.24237425778E+02  0.19161853261E+02  0.69538702257E+01  0.31669950108E+02  0.00000000000E+00 0.  1.
         11    1    4    4    0    0  0.58541267094E+02 -0.17353888663E+02 -0.32395175194E+02  0.69120798466E+02  0.00000000000E+00 0. -1.
</event>
<event>
 8    1  0.6840084E-009  0.1055107E+03  0.7561462E-02  0.1269117E+00
         -1   -1    0    0    0  501 -0.00000000000E+00  0.00000000000E+00  0.47161645052E+03  0.47161645052E+03  0.00000000000E+00 0.  1.
          1   -1    0    0  501    0  0.00000000000E+00 -0.00000000000E+00 -0.51991722634E+02  0.51991722634E+02  0.00000000000E+00 0. -1.
         25    2    1    2    0    0 -0.82380353804E+02  0.39032230119E+02  0.34098315853E+03  0.37446872374E+03  0.12508906017E+03 0.  0.
         23    2    1    2    0    0  0.82380353804E+02 -0.39032230119E+02  0.78641569353E+02  0.14913944942E+03  0.88022958715E+02 0.  0.
          5    1    3    3  502    0 -0.41304701164E+01 -0.87380982625E+01 -0.82506585409E+01  0.13377627255E+02  0.41800000000E+01 0. -1.
         -5    1    3    3    0  502 -0.78249883688E+02  0.47770328381E+02  0.34923381707E+03  0.36109109648E+03  0.41800000000E+01 0. -1.
        -11    1    4    4    0    0  0.40257761567E+02  0.12505300920E+02  0.70418258145E+02  0.82071925758E+02  0.00000000000E+00 0.  1.
         11    1    4    4    0    0  0.42122592237E+02 -0.51537531039E+02  0.82233112080E+01  0.67067523658E+02  0.00000000000E+00 0. -1.
</event>
<event>
 8    1  0.6840084E-009  0.9630365E+02  0.7561462E-02  0.1288267E+00
         -4   -1    0    0    0  501 -0.00000000000E+00  0.00000000000E+00  0.11927008540E+03  0.11927008540E+03  0.00000000000E+00 0.  1.
          4   -1    0    0  501    0  0.00000000000E+00 -0.00000000000E+00 -0.14922879339E+03  0.14922879339E+03  0.00000000000E+00 0. -1.
         25    2    1    2    0    0  0.62415126083E+02  0.16830287032E+02  0.26535790948E+02  0.14330322623E+03  0.12511099041E+03 0.  0.
         23    2    1    2    0    0 -0.62415126083E+02 -0.16830287032E+02 -0.56494498932E+02  0.12519565256E+03  0.91123084259E+02 0.  0.
          5    1    3    3  502    0  0.27914924621E+02  0.63644929752E+02  0.44095508229E+02  0.82412416211E+02  0.41800000000E+01 0.  1.
         -5    1    3    3    0  502  0.34500201461E+02 -0.46814642720E+02 -0.17559717281E+02  0.60890810020E+02  0.41800000000E+01 0.  1.
        -11    1    4    4    0    0 -0.52491460175E+02 -0.13333448773E+02 -0.81621227880E+02  0.97954882921E+02  0.00000000000E+00 0. -1.
         11    1    4    4    0    0 -0.99236659073E+01 -0.34968382596E+01  0.25126728948E+02  0.27240769638E+02  0.00000000000E+00 0.  1.
</event>
<event>
 8    1  0.6840084E-009  0.1387702E+03  0.7561462E-02  0.1214993E+00
         -1   -1    0    0    0  501 -0.00000000000E+00  0.00000000000E+00  0.33993446092E+02  0.33993446092E+02  0.00000000000E+00 0.  1.
          1   -1    0    0  501    0  0.00000000000E+00 -0.00000000000E+00 -0.67501285453E+03  0.67501285453E+03  0.00000000000E+00 0. -1.
         25    2    1    2    0    0  0.44662434221E+02 -0.94628528611E+02 -0.32525894506E+03  0.36385440540E+03  0.12508939016E+03 0.  0.
         23    2    1    2    0    0 -0.44662434221E+02  0.94628528611E+02 -0.31576046337E+03  0.34515189522E+03  0.92064483296E+02 0.  0.
          5    1    3    3  502    0  0.87606664567E+02 -0.51554544877E+02 -0.19115703912E+03  0.21654395576E+03  0.41800000000E+01 0.  1.
         -5    1    3    3    0  502 -0.42944230345E+02 -0.43073983733E+02 -0.13410190594E+03  0.14731044964E+03  0.41800000000E+01 0.  1.
        -11    1    4    4    0    0  0.93126990730E+01  0.60390202406E+01  0.16483529255E+01  0.11221104975E+02  0.00000000000E+00 0.  1.
         11    1    4    4    0    0 -0.53975133294E+02  0.88589508370E+02 -0.31740881630E+03  0.33393079024E+03  0.00000000000E+00 0. -1.
</event>
<event>
 8    1  0.6840084E-009  0.3725892E+03  0.7561462E-02  0.1053707E+00
          2   -1    0    0  501    0  0.00000000000E+00  0.00000000000E+00  0.30494283177E+03  0.30494283177E+03  0.00000000000E+00 0. -1.
         -2   -1    0    0    0  501 -0.00000000000E+00 -0.00000000000E+00 -0.73113522009E+03  0.73113522009E+03  0.00000000000E+00 0.  1.
         25    2    1    2    0    0  0.25938872305E+03 -0.25240142751E+03  0.95234043509E+02  0.39459653496E+03  0.12509161486E+03 0.  0.
         23    2    1    2    0    0 -0.25938872305E+03  0.25240142751E+03 -0.52142643182E+03  0.64148151689E+03  0.92865615033E+02 0.  0.
          5    1    3    3  502    0  0.17306448618E+03 -0.83673789591E+02  0.33132980878E+02  0.19510993379E+03  0.41800000000E+01 0. -1.
         -5    1    3    3    0  502  0.86324236871E+02 -0.16872763792E+03  0.62101062631E+02  0.19948660118E+03  0.41800000000E+01 0. -1.
        -11    1    4    4    0    0 -0.35396246636E+02  0.20454889243E+02 -0.11889019284E+03  0.12572261024E+03  0.00000000000E+00 0. -1.
         11    1    4    4    0    0 -0.22399247642E+03  0.23194653827E+03 -0.40253623898E+03  0.51575890666E+03  0.00000000000E+00 0.  1.
</event>
<event>
 8    1  0.6840084E-009  0.1387489E+03  0.7561462E-02  0.1215022E+00
         -2   -1    0    0    0  501 -0.00000000000E+00  0.00000000000E+00  0.36197677711E+02  0.36197677711E+02  0.00000000000E+00 0.  1.
          2   -1    0    0  501    0  0.00000000000E+00 -0.00000000000E+00 -0.88491594830E+03  0.88491594830E+03  0.00000000000E+00 0. -1.
         25    2    1    2    0    0 -0.50007821934E+02 -0.74526274656E+02 -0.73164964112E+03  0.74767205257E+03  0.12508937994E+03 0.  0.
         23    2    1    2    0    0  0.50007821934E+02  0.74526274656E+02 -0.11706862947E+03  0.17344157344E+03  0.91224818570E+02 0.  0.
          5    1    3    3  502    0 -0.81423649363E+02 -0.85079061052E+02 -0.50447691956E+03  0.51805664949E+03  0.41800000000E+01 0. -1.
         -5    1    3    3    0  502  0.31415827429E+02  0.10552786396E+02 -0.22717272156E+03  0.22961540309E+03  0.41800000000E+01 0. -1.
        -11    1    4    4    0    0 -0.18971567664E+02  0.49274317553E+02 -0.35245761454E+02  0.63483402952E+02  0.00000000000E+00 0. -1.
         11    1    4    4    0    0  0.68979389599E+02  0.25251957103E+02 -0.81822868014E+02  0.10995817049E+03  0.00000000000E+00 0.  1.
</event>
<event>
 8    1  0.6840084E-009  0.1291169E+03  0.7561462E-02  0.1228772E+00
          2   -1    0    0  501    0  0.00000000000E+00  0.00000000000E+00  0.14871223818E+03  0.14871223818E+03  0.00000000000E+00 0. -1.
         -2   -1    0    0    0  501 -0.00000000000E+00 -0.00000000000E+00 -0.14569178991E+03  0.14569178991E+03  0.00000000000E+00 0.  1.
         25    2    1    2    0    0  0.26063518117E+02 -0.95105239311E+02 -0.22621032802E+01  0.15929996053E+03  0.12508815608E+03 0.  0.
         23    2    1    2    0    0 -0.26063518117E+02  0.95105239311E+02  0.52825515522E+01  0.13510406756E+03  0.92200272230E+02 0.  0.
          5    1    3    3  502    0  0.45116692717E+02  0.27575997224E+01 -0.31575487379E+02  0.55295606707E+02  0.41800000000E+01 0.  1.
         -5    1    3    3    0  502 -0.19053174600E+02 -0.97862839033E+02  0.29313384098E+02  0.10400435382E+03  0.41800000000E+01 0.  1.
        -11    1    4    4    0    0 -0.51593030028E+01  0.91732694977E+02  0.35252526337E+02  0.98408568470E+02  0.00000000000E+00 0. -1.
         11    1    4    4    0    0 -0.20904215114E+02  0.33725443341E+01 -0.29969974785E+02  0.36695499089E+02  0.00000000000E+00 0.  1.
</event>
<event>
 8    1  0.6840084E-009  0.1268681E+03  0.7561462E-02  0.1232178E+00
         -2   -1    0    0    0  501 -0.00000000000E+00  0.00000000000E+00  0.23096447789E+03  0.23096447789E+03  0.00000000000E+00 0.  1.
          2   -1    0    0  501    0  0.00000000000E+00 -0.00000000000E+00 -0.10941857762E+03  0.10941857762E+03  0.00000000000E+00 0. -1.
         25    2    1    2    0    0 -0.48504392851E+01  0.65294132743E+02  0.15530785417E+03  0.20989235128E+03  0.12508964396E+03 0.  0.
         23    2    1    2    0    0  0.48504392851E+01 -0.65294132743E+02 -0.33761953895E+02  0.13049070424E+03  0.10770842042E+03 0.  0.
          5    1    3    3  502    0 -0.50184930373E+02  0.27388031824E+01  0.20458655998E+02  0.54424785573E+02  0.41800000000E+01 0.  1.
         -5    1    3    3    0  502  0.45334491088E+02  0.62555329561E+02  0.13484919817E+03  0.15546756570E+03  0.41800000000E+01 0.  1.
        -11    1    4    4    0    0  0.31582674742E+02  0.19438442753E+02 -0.12469840621E+02  0.39125635147E+02  0.00000000000E+00 0.  1.
         11    1    4    4    0    0 -0.26732235457E+02 -0.84732575497E+02 -0.21292113274E+02  0.91365069094E+02  0.00000000000E+00 0. -1.
</event>
<event>
 8    1  0.6840084E-009  0.2070525E+03  0.7561462E-02  0.1143922E+00
         -1   -1    0    0    0  501 -0.00000000000E+00  0.00000000000E+00  0.49965229117E+02  0.49965229117E+02  0.00000000000E+00 0.  1.
          1   -1    0    0  501    0  0.00000000000E+00 -0.00000000000E+00 -0.89698624909E+03  0.89698624909E+03  0.00000000000E+00 0. -1.
         25    2    1    2    0    0 -0.17648498635E+03  0.50956500020E+01 -0.35046806760E+03  0.41188152378E+03  0.12508240152E+03 0.  0.
         23    2    1    2    0    0  0.17648498635E+03 -0.50956500020E+01 -0.49655295237E+03  0.53506995442E+03  0.92531646258E+02 0.  0.
          5    1    3    3  502    0 -0.11558277977E+03 -0.56398311726E+02 -0.18922333369E+03  0.22882982969E+03  0.41800000000E+01 0. -1.
         -5    1    3    3    0  502 -0.60902206588E+02  0.61493961728E+02 -0.16124473391E+03  0.18305169409E+03  0.41800000000E+01 0. -1.
        -11    1    4    4    0    0  0.36249580350E+02 -0.40288280873E+02 -0.11820016689E+03  0.13003252325E+03  0.00000000000E+00 0.  1.
         11    1    4    4    0    0  0.14023540600E+03  0.35192630871E+02 -0.37835278548E+03  0.40503743117E+03  0.00000000000E+00 0. -1.
</event>
<event>
 8    1  0.6840084E-009  0.1151623E+03  0.7561462E-02  0.1251298E+00
         -1   -1    0    0    0  501 -0.00000000000E+00  0.00000000000E+00  0.43365532946E+02  0.43365532946E+02  0.00000000000E+00 0.  1.
          1   -1    0    0  501    0  0.00000000000E+00 -0.00000000000E+00 -0.51488350712E+03  0.51488350712E+03  0.00000000000E+00 0. -1.
         25    2    1    2    0    0  0.10145639449E+03  0.22302102071E+01 -0.29264696579E+03  0.33404795986E+03  0.12508964417E+03 0.  0.
         23    2    1    2    0    0 -0.10145639449E+03 -0.22302102071E+01 -0.17887100838E+03  0.22420108021E+03  0.89291169256E+02 0.  0.
          5    1    3    3  502    0  0.69002549612E+02  0.31517634534E+02 -0.27731504487E+03  0.28753403216E+03  0.41800000000E+01 0. -1.
         -5    1    3    3    0  502  0.32453844875E+02 -0.29287424327E+02 -0.15331920925E+02  0.46513927700E+02  0.41800000000E+01 0. -1.
        -11    1    4    4    0    0 -0.80310447933E+02  0.16729275014E+02 -0.17776275220E+03  0.19577852988E+03  0.00000000000E+00 0. -1.
         11    1    4    4    0    0 -0.21145946554E+02 -0.18959485221E+02 -0.11082561766E+01  0.28422550330E+02  0.00000000000E+00 0.  1.
</event>
<event>
 8    1  0.6840084E-009  0.9982521E+02  0.7561462E-02  0.1280664E+00
         -2   -1    0    0    0  501 -0.00000000000E+00  0.00000000000E+00  0.21848417275E+02  0.21848417275E+02  0.00000000000E+00 0.  1.
          2   -1    0    0  501    0  0.00000000000E+00 -0.00000000000E+00 -0.93576201468E+03  0.93576201468E+03  0.00000000000E+00 0. -1.
         25    2    1    2    0    0 -0.51245329600E+02  0.69546364048E+02 -0.57164943623E+03  0.59151247075E+03  0.12506456156E+03 0.  0.
         23    2    1    2    0    0  0.51245329600E+02 -0.69546364048E+02 -0.34226416118E+03  0.36609796121E+03  0.97057614914E+02 0.  0.
          5    1    3    3  502    0 -0.42409729214E+02  0.15629228256E+01 -0.51570560651E+02  0.66918031842E+02  0.41800000000E+01 0.  1.
         -5    1    3    3    0  502 -0.88356003862E+01  0.67983441223E+02 -0.52007887557E+03  0.52459443891E+03  0.41800000000E+01 0.  1.
        -11    1    4    4    0    0  0.41716730261E+02 -0.42088549587E+02 -0.32874500267E+03  0.33404342288E+03  0.00000000000E+00 0. -1.
         11    1    4    4    0    0  0.95285993388E+01 -0.27457814461E+02 -0.13519158510E+02  0.32054538324E+02  0.00000000000E+00 0.  1.
</event>
<event>
 8    1  0.6840084E-009  0.4145175E+03  0.7561462E-02  0.1038866E+00
          1   -1    0    0  501    0  0.00000000000E+00  0.00000000000E+00  0.25047839017E+03  0.25047839017E+03  0.00000000000E+00 0. -1.
         -1   -1    0    0    0  501 -0.00000000000E+00 -0.00000000000E+00 -0.74691335678E+03  0.74691335678E+03  0.00000000000E+00 0.  1.
         25    2    1    2    0    0  0.13111325660E+03 -0.38630739304E+03 -0.35802916580E+03  0.55700570885E+03  0.12508552337E+03 0.  0.
         23    2    1    2    0    0 -0.13111325660E+03  0.38630739304E+03 -0.13840580081E+03  0.44038603810E+03  0.91430896767E+02 0.  0.
          5    1    3    3  502    0  0.33127442922E+01 -0.64345212362E+02 -0.12132587281E+03  0.13743624137E+03  0.41800000000E+01 0. -1.
         -5    1    3    3    0  502  0.12780051230E+03 -0.32196218067E+03 -0.23670329299E+03  0.41956946748E+03  0.41800000000E+01 0. -1.
        -11    1    4    4    0    0  0.61539442122E+01  0.10351391525E+03 -0.36501353796E+02  0.10993339124E+03  0.00000000000E+00 0. -1.
         11    1    4    4    0    0 -0.13726720081E+03  0.28279347778E+03 -0.10190444702E+03  0.33045264686E+03  0.00000000000E+00 0.  1.
</event>
<event>
 8    1  0.6840084E-009  0.1556322E+03  0.7561462E-02  0.1193718E+00
          2   -1    0    0  501    0  0.00000000000E+00  0.00000000000E+00  0.32746916026E+03  0.32746916026E+03  0.00000000000E+00 0.  1.
         -2   -1    0    0    0  501 -0.00000000000E+00 -0.00000000000E+00 -0.11029518446E+03  0.11029518446E+03  0.00000000000E+00 0. -1.
         25    2    1    2    0    0 -0.13475710025E+03  0.48104990004E+02  0.43199141186E+02  0.19490526212E+03  0.12509328229E+03 0.  0.
         23    2    1    2    0    0  0.13475710025E+03 -0.48104990004E+02  0.17397483461E+03  0.24285908259E+03  0.90772929832E+02 0.  0.
          5    1    3    3  502    0 -0.13813634449E+03  0.20613426736E+02 -0.42627890966E+01  0.13979344335E+03  0.41800000000E+01 0.  1.
         -5    1    3    3    0  502  0.33792442492E+01  0.27491563268E+02  0.47461930283E+02  0.55111818776E+02  0.41800000000E+01 0.  1.
        -11    1    4    4    0    0  0.84324817598E+02 -0.24304533440E+02  0.37506888779E+02  0.95436638219E+02  0.00000000000E+00 0. -1.
         11    1    4    4    0    0  0.50432282647E+02 -0.23800456564E+02  0.13646794583E+03  0.14742244437E+03  0.00000000000E+00 0.  1.
</event>
<event>
 8    1  0.6840084E-009  0.1490578E+03  0.7561462E-02  0.1201636E+00
          2   -1    0    0  501    0  0.00000000000E+00  0.00000000000E+00  0.23473856779E+03  0.23473856779E+03  0.00000000000E+00 0. -1.
         -2   -1    0    0    0  501 -0.00000000000E+00 -0.00000000000E+00 -0.17252752077E+03  0.17252752077E+03  0.00000000000E+00 0.  1.
         25    2    1    2    0    0 -0.70114795277E+02  0.11676049153E+03  0.13357446052E+03  0.22812245081E+03  0.12509444097E+03 0.  0.
         23    2    1    2    0    0  0.70114795277E+02 -0.11676049153E+03 -0.71363413494E+02  0.17914363775E+03  0.91927195437E+02 0.  0.
          5    1    3    3  502    0 -0.70213278274E+02  0.32982896484E+02  0.93753219050E+01  0.78250526946E+02  0.41800000000E+01 0.  1.
         -5    1    3    3    0  502  0.98482997522E-01  0.83777595044E+02  0.12419913861E+03  0.14987192386E+03  0.41800000000E+01 0.  1.
        -11    1    4    4    0    0  0.35375823545E+02 -0.49455443811E+02  0.16633402301E+02  0.63039351885E+02  0.00000000000E+00 0. -1.
         11    1    4    4    0    0  0.34738971732E+02 -0.67305047718E+02 -0.87996815796E+02  0.11610428586E+03  0.00000000000E+00 0.  1.
</event>
<event>
 8    1  0.6840084E-009  0.1395122E+03  0.7561462E-02  0.1213987E+00
          1   -1    0    0  501    0  0.00000000000E+00  0.00000000000E+00  0.31668183815E+03  0.31668183815E+03  0.00000000000E+00 0. -1.
         -1   -1    0    0    0  501 -0.00000000000E+00 -0.00000000000E+00 -0.68722812865E+02  0.68722812865E+02  0.00000000000E+00 0.  1.
         25    2    1    2    0    0  0.67721052643E+02 -0.72321189245E+02  0.15570179714E+03  0.22293827645E+03  0.12506770203E+03 0.  0.
         23    2    1    2    0    0 -0.67721052643E+02  0.72321189245E+02  0.92257228146E+02  0.16246637456E+03  0.89818880716E+02 0.  0.
          5    1    3    3  502    0  0.51162845050E+01  0.34782907829E+02  0.33002667282E+02  0.48401193083E+02  0.41800000000E+01 0. -1.
         -5    1    3    3    0  502  0.62604768138E+02 -0.10710409707E+03  0.12269912985E+03  0.17453708337E+03  0.41800000000E+01 0. -1.
        -11    1    4    4    0    0 -0.81311101973E+02  0.59010801879E+02  0.42298932741E+02  0.10900903519E+03  0.00000000000E+00 0.  1.
         11    1    4    4    0    0  0.13590049330E+02  0.13310387366E+02  0.49958295405E+02  0.53457339369E+02  0.00000000000E+00 0. -1.
</event>
<event>
 8    1  0.6840084E-009  0.2487766E+03  0.7561462E-02  0.1114080E+00
          1   -1    0    0  501    0  0.00000000000E+00  0.00000000000E+00  0.24847862206E+03  0.24847862206E+03  0.00000000000E+00 0. -1.
         -1   -1    0    0    0  501 -0.00000000000E+00 -0.00000000000E+00 -0.28394519231E+03  0.28394519231E+03  0.00000000000E+00 0.  1.
         25    2    1    2    0    0  0.22097016392E+03 -0.90637432811E+02  0.21024796953E+02  0.27043166022E+03  0.12509309810E+03 0.  0.
         23    2    1    2    0    0 -0.22097016392E+03  0.90637432811E+02 -0.56491367210E+02  0.26199215415E+03  0.91682368533E+02 0.  0.
          5    1    3    3  502    0  0.11150602177E+02  0.18622070684E+02  0.25555562997E+02  0.33788705887E+02  0.41800000000E+01 0. -1.
         -5    1    3    3    0  502  0.20981956174E+03 -0.10925950349E+03 -0.45307660437E+01  0.23664295433E+03  0.41800000000E+01 0. -1.
        -11    1    4    4    0    0 -0.12741260777E+03  0.53580786713E+02  0.14298447168E+02  0.13895797536E+03  0.00000000000E+00 0. -1.
         11    1    4    4    0    0 -0.93557556145E+02  0.37056646098E+02 -0.70789814378E+02  0.12303417879E+03  0.00000000000E+00 0.  1.
</event>
<event>
 7    1  0.6840084E-009  0.1259854E+03  0.7561462E-02  0.1233537E+00
          1   -1    0    0  501    0  0.00000000000E+00  0.00000000000E+00  0.66724812348E+03  0.66724812348E+03  0.00000000000E+00 0. -1.
         -1   -1    0    0    0  501 -0.00000000000E+00 -0.00000000000E+00 -0.35041680634E+02  0.35041680634E+02  0.00000000000E+00 0.  1.
         23    2    1    2    0    0  0.58897361056E+02 -0.71546149541E+02  0.15887397741E+03  0.20399426385E+03  0.88232467561E+02 0.  0.
          5    1    1    2  502    0 -0.55958788336E+02  0.37044824480E+01  0.72622022825E+02  0.91850638438E+02  0.41800000000E+01 0. -1.
         -5    1    1    2    0  502 -0.29385727206E+01  0.67841667093E+02  0.40071044262E+03  0.40644490183E+03  0.41800000000E+01 0. -1.
        -11    1    3    3    0    0 -0.12234322790E+02 -0.52717611414E+02  0.73750182662E+02  0.91476306495E+02  0.00000000000E+00 0.  1.
         11    1    3    3    0    0  0.71131683847E+02 -0.18828538127E+02  0.85123794744E+02  0.11251795735E+03  0.00000000000E+00 0. -1.
</event>
<event>
 7    1  0.6840084E-009  0.1158713E+03  0.7561462E-02  0.1250068E+00
          2   -1    0    0  501    0  0.00000000000E+00  0.00000000000E+00  0.22929395683E+02  0.22929395683E+02  0.00000000000E+00 0.  1.
         -2   -1    0    0    0  501 -0.00000000000E+00 -0.00000000000E+00 -0.93593265665E+03  0.93593265665E+03  0.00000000000E+00 0. -1.
         23    2    1    2    0    0  0.87873310225E+02 -0.16841408682E+02 -0.55080782121E+03  0.56542144573E+03  0.91141668200E+02 0.  0.
          5    1    1    2  502    0 -0.34247584743E+02 -0.24699652060E+02 -0.24547077836E+02  0.49020417204E+02  0.41800000000E+01 0.  1.
         -5    1    1    2    0  502 -0.53625725483E+02  0.41541060743E+02 -0.33764836192E+03  0.34442018940E+03  0.41800000000E+01 0.  1.
        -11    1    3    3    0    0  0.37954168423E+02  0.33375594445E+02 -0.14683063942E+03  0.15528581995E+03  0.00000000000E+00 0.  1.
         11    1    3    3    0    0  0.49919141802E+02 -0.50217003128E+02 -0.40397718180E+03  0.41013562578E+03  0.00000000000E+00 0. -1.
</event>
<event>
 8    1  0.6840084E-009  0.1497345E+03  0.7561462E-02  0.1200800E+00
         -3   -1    0    0    0  501 -0.00000000000E+00  0.00000000000E+00  0.28885814954E+03  0.28885814954E+03  0.00000000000E+00 0.  1.
          3   -1    0    0  501    0  0.00000000000E+00 -0.00000000000E+00 -0.91968213370E+02  0.91968213370E+02  0.00000000000E+00 0. -1.
         25    2    1    2    0    0  0.99748084061E+02 -0.62996390643E+02  0.71006917056E+02  0.18603322645E+03  0.12509257998E+03 0.  0.
         23    2    1    2    0    0 -0.99748084061E+02  0.62996390643E+02  0.12588301912E+03  0.19479313646E+03  0.90441174262E+02 0.  0.
          5    1    3    3  502    0 -0.18735679065E+02 -0.13308706289E+02  0.50790931002E+02  0.55904726143E+02  0.41800000000E+01 0.  1.
         -5    1    3    3    0  502  0.11848376313E+03 -0.49687684354E+02  0.20215986054E+02  0.13012850031E+03  0.41800000000E+01 0.  1.
        -11    1    4    4    0    0 -0.81820192550E+02  0.85797281273E+02  0.91176554096E+02  0.14956229939E+03  0.00000000000E+00 0. -1.
         11    1    4    4    0    0 -0.17927891511E+02 -0.22800890630E+02  0.34706465020E+02  0.45230837067E+02  0.00000000000E+00 0.  1.
</event>
<event>
 8    1  0.6840084E-009  0.1410126E+03  0.7561462E-02  0.1211973E+00
          2   -1    0    0  501    0  0.00000000000E+00  0.00000000000E+00  0.38653969982E+03  0.38653969982E+03  0.00000000000E+00 0.  1.
         -2   -1    0    0    0  501 -0.00000000000E+00 -0.00000000000E+00 -0.84460160511E+02  0.84460160511E+02  0.00000000000E+00 0. -1.
         25    2    1    2    0    0  0.11932552982E+03 -0.37558849823E+02  0.66025974771E+02  0.18882646439E+03  0.12508698991E+03 0.  0.
         23    2    1    2    0    0 -0.11932552982E+03  0.37558849823E+02  0.23605356454E+03  0.28217339594E+03  0.90836615853E+02 0.  0.
          5    1    3    3  502    0  0.75293173492E+02 -0.34741981226E+01 -0.27130254489E+02  0.80216302182E+02  0.41800000000E+01 0.  1.
         -5    1    3    3    0  502  0.44032356324E+02 -0.34084651701E+02  0.93156229261E+02  0.10861016221E+03  0.41800000000E+01 0.  1.
        -11    1    4    4    0    0 -0.77646117718E+02 -0.19479592998E+02  0.15646726573E+03  0.17575659130E+03  0.00000000000E+00 0.  1.
         11    1    4    4    0    0 -0.41679412098E+02  0.57038442821E+02  0.79586298816E+02  0.10641680465E+03  0.00000000000E+00 0. -1.
</event>
<event>
 8    1  0.6840084E-009  0.1047097E+03  0.7561462E-02  0.1270693E+00
         -3   -1    0    0    0  501 -0.00000000000E+00  0.00000000000E+00  0.86800569937E+02  0.86800569937E+02  0.00000000000E+00 0.  1.
          3   -1    0    0  501    0  0.00000000000E+00 -0.00000000000E+00 -0.19453900766E+03  0.19453900766E+03  0.00000000000E+00 0. -1.
         25    2    1    2    0    0  0.67626178553E+02 -0.12134263254E+02 -0.86591234784E+02  0.16693115294E+03  0.12508967787E+03 0.  0.
         23    2    1    2    0    0 -0.67626178553E+02  0.12134263254E+02 -0.21147202934E+02  0.11440842465E+03  0.89003050896E+02 0.  0.
          5    1    3    3  502    0  0.32994284105E+02  0.38785401326E+02 -0.91726022339E+02  0.10499555092E+03  0.41800000000E+01 0.  1.
         -5    1    3    3    0  502  0.34631894448E+02 -0.50919664581E+02  0.51347875551E+01  0.61935602018E+02  0.41800000000E+01 0.  1.
        -11    1    4    4    0    0 -0.83763345928E+01 -0.25212088385E+02  0.19931541437E+02  0.33212629014E+02  0.00000000000E+00 0.  1.
         11    1    4    4    0    0 -0.59249843960E+02  0.37346351639E+02 -0.41078744372E+02  0.81195795638E+02  0.00000000000E+00 0. -1.
</event>
<event>
 8    1  0.6840084E-009  0.7973227E+02  0.7561462E-02  0.1329813E+00
         -2   -1    0    0    0  501 -0.00000000000E+00  0.00000000000E+00  0.21440984146E+02  0.21440984146E+02  0.00000000000E+00 0.  1.
          2   -1    0    0  501    0  0.00000000000E+00 -0.00000000000E+00 -0.72347247645E+03  0.72347247645E+03  0.00000000000E+00 0. -1.
         25    2    1    2    0    0 -0.54605537381E+02  0.11443008679E+02 -0.30517694333E+03  0.33450505168E+03  0.12509178908E+03 0.  0.
         23    2    1    2    0    0  0.54605537381E+02 -0.11443008679E+02 -0.39685454897E+03  0.41040840892E+03  0.88480630150E+02 0.  0.
          5    1    3    3  502    0 -0.26558009479E+02  0.26718882895E+02 -0.12281547112E+02  0.39843887487E+02  0.41800000000E+01 0. -1.
         -5    1    3    3    0  502 -0.28047527902E+02 -0.15275874215E+02 -0.29289539622E+03  0.29466116419E+03  0.41800000000E+01 0. -1.
        -11    1    4    4    0    0  0.13982760587E+02  0.28896207883E+02 -0.54112159371E+02  0.62917678084E+02  0.00000000000E+00 0.  1.
         11    1    4    4    0    0  0.40622776794E+02 -0.40339216563E+02 -0.34274238960E+03  0.34749073084E+03  0.00000000000E+00 0. -1.
</event>
<event>
 8    1  0.6840084E-009  0.1449280E+03  0.7561462E-02  0.1206848E+00
         -2   -1    0    0    0  501 -0.00000000000E+00  0.00000000000E+00  0.54305275551E+02  0.54305275551E+02  0.00000000000E+00 0.  1.
          2   -1    0    0  501    0  0.00000000000E+00 -0.00000000000E+00 -0.57298770406E+03  0.57298770406E+03  0.00000000000E+00 0. -1.
         25    2    1    2    0    0  0.11836612536E+03 -0.29453373753E+02 -0.15674446469E+03  0.23472108068E+03  0.12508843930E+03 0.  0.
         23    2    1    2    0    0 -0.11836612536E+03  0.29453373753E+02 -0.36193796381E+03  0.39257189893E+03  0.90750015538E+02 0.  0.
          5    1    3    3  502    0 -0.10348012618E+02 -0.83975513584E+01 -0.84338425023E+02  0.85487090074E+02  0.41800000000E+01 0.  1.
         -5    1    3    3    0  502  0.12871413798E+03 -0.21055822395E+02 -0.72406039670E+02  0.14923399061E+03  0.41800000000E+01 0.  1.
        -11    1    4    4    0    0 -0.54324211322E+02 -0.26419659909E+02 -0.20958341619E+03  0.21811539769E+03  0.00000000000E+00 0. -1.
         11    1    4    4    0    0 -0.64041914036E+02  0.55873033662E+02 -0.15235454762E+03  0.17445650124E+03  0.00000000000E+00 0.  1.
</event>
<event>
 8    1  0.6840084E-009  0.1240784E+03  0.7561462E-02  0.1236517E+00
          1   -1    0    0  501    0  0.00000000000E+00  0.00000000000E+00  0.12525651222E+04  0.12525651222E+04  0.00000000000E+00 0. -1.
         -1   -1    0    0    0  501 -0.00000000000E+00 -0.00000000000E+00 -0.12725124301E+02  0.12725124301E+02  0.00000000000E+00 0.  1.
         25    2    1    2    0    0  0.59641134724E+01  0.63815595933E+02  0.63055795654E+03  0.64603293920E+03  0.12508885255E+03 0.  0.
         23    2    1    2    0    0 -0.59641134724E+01 -0.63815595933E+02  0.60928204132E+03  0.61925730727E+03  0.90260765549E+02 0.  0.
          5    1    3    3  502    0 -0.55735737586E+02  0.12563421706E+02  0.19978345220E+03  0.20783457889E+03  0.41800000000E+01 0.  1.
         -5    1    3    3    0  502  0.61699851059E+02  0.51252174226E+02  0.43077450434E+03  0.43819836031E+03  0.41800000000E+01 0.  1.
        -11    1    4    4    0    0  0.39174075632E+02 -0.10230087929E+02  0.23895526974E+03  0.24236106089E+03  0.00000000000E+00 0. -1.
         11    1    4    4    0    0 -0.45138189104E+02 -0.53585508004E+02  0.37032677158E+03  0.37689624638E+03  0.00000000000E+00 0.  1.
</event>
<event>
 8    1  0.6840084E-009  0.9150355E+02  0.7561462E-02  0.1299251E+00
          4   -1    0    0  501    0  0.00000000000E+00  0.00000000000E+00  0.78456051349E+02  0.78456051349E+02  0.00000000000E+00 0. -1.
         -4   -1    0    0    0  501 -0.00000000000E+00 -0.00000000000E+00 -0.15432798577E+03  0.15432798577E+03  0.00000000000E+00 0.  1.
         25    2    1    2    0    0  0.99287205235E+01 -0.17786193347E+02 -0.44841910039E+02  0.13447001550E+03  0.12512577675E+03 0.  0.
         23    2    1    2    0    0 -0.99287205235E+01  0.17786193347E+02 -0.31030024377E+02  0.98314021616E+02  0.91037664010E+02 0.  0.
          5    1    3    3  502    0  0.15891280151E+02  0.52164859270E+02 -0.30748678084E+02  0.62742799837E+02  0.41800000000E+01 0.  1.
         -5    1    3    3    0  502 -0.59625596275E+01 -0.69951052617E+02 -0.14093231955E+02  0.71727215661E+02  0.41800000000E+01 0.  1.
        -11    1    4    4    0    0 -0.32347779260E+02  0.69505414537E+01 -0.54719876505E+02  0.63944927354E+02  0.00000000000E+00 0.  1.
         11    1    4    4    0    0  0.22419058737E+02  0.10835651893E+02  0.23689852127E+02  0.34369094262E+02  0.00000000000E+00 0. -1.
</event>
<event>
 8    1  0.6840084E-009  0.1208366E+03  0.7561462E-02  0.1241723E+00
          1   -1    0    0  501    0  0.00000000000E+00  0.00000000000E+00  0.34639534064E+03  0.34639534064E+03  0.00000000000E+00 0. -1.
         -1   -1    0    0    0  501 -0.00000000000E+00 -0.00000000000E+00 -0.76523232429E+02  0.76523232429E+02  0.00000000000E+00 0.  1.
         25    2    1    2    0    0 -0.64918286681E+02 -0.50753628815E+02  0.25952342342E+03  0.29964991442E+03  0.12508936454E+03 0.  0.
         23    2    1    2    0    0  0.64918286681E+02  0.50753628815E+02  0.10348684788E+02  0.12326865865E+03  0.91091998254E+02 0.  0.
          5    1    3    3  502    0 -0.17557290286E+02  0.38677075076E+02  0.42884664078E+02  0.60504060952E+02  0.41800000000E+01 0. -1.
         -5    1    3    3    0  502 -0.47360996396E+02 -0.89430703891E+02  0.21663875935E+03  0.23914585346E+03  0.41800000000E+01 0. -1.
        -11    1    4    4    0    0 -0.92243242028E+01  0.73627671580E+01 -0.27097101590E+02  0.29555903164E+02  0.00000000000E+00 0.  1.
         11    1    4    4    0    0  0.74142610884E+02  0.43390861657E+02  0.37445786379E+02  0.93712755490E+02  0.00000000000E+00 0. -1.
</event>
<event>
 8    1  0.6840084E-009  0.1963547E+03  0.7561462E-02  0.1152852E+00
          1   -1    0    0  501    0  0.00000000000E+00  0.00000000000E+00  0.21112069163E+04  0.21112069163E+04  0.00000000000E+00 0. -1.
         -1   -1    0    0    0  501 -0.00000000000E+00 -0.00000000000E+00 -0.18694364892E+02  0.18694364892E+02  0.00000000000E+00 0.  1.
         25    2    1    2    0    0 -0.12950635548E+03 -0.10353455159E+03  0.12085377663E+04  0.12262551081E+04  0.12508700162E+03 0.  0.
         23    2    1    2    0    0  0.12950635548E+03  0.10353455159E+03  0.88397478510E+03  0.90364617313E+03  0.87599577823E+02 0.  0.
          5    1    3    3  502    0 -0.13336995264E+02  0.28515892348E+02  0.17979473782E+03  0.18257779632E+03  0.41800000000E+01 0. -1.
         -5    1    3    3    0  502 -0.11616936022E+03 -0.13205044394E+03  0.10287430285E+04  0.10436773118E+04  0.41800000000E+01 0. -1.
        -11    1    4    4    0    0  0.29779035996E+02  0.75911774276E+02  0.31797963696E+03  0.32826885015E+03  0.00000000000E+00 0. -1.
         11    1    4    4    0    0  0.99727319487E+02  0.27622777312E+02  0.56599514815E+03  0.57537732298E+03  0.00000000000E+00 0.  1.
</event>
<event>
 8    1  0.6840084E-009  0.1688031E+03  0.7561462E-02  0.1179102E+00
          1   -1    0    0  501    0  0.00000000000E+00  0.00000000000E+00  0.70120585776E+03  0.70120585776E+03  0.00000000000E+00 0. -1.
         -1   -1    0    0    0  501 -0.00000000000E+00 -0.00000000000E+00 -0.88243748586E+02  0.88243748586E+02  0.00000000000E+00 0.  1.
         25    2    1    2    0    0  0.88411099965E+02 -0.13345777968E+03  0.56274020076E+03  0.59829043744E+03  0.12508961759E+03 0.  0.
         23    2    1    2    0    0 -0.88411099965E+02  0.13345777968E+03  0.50221908420E+02  0.19115916891E+03  0.91608330508E+02 0.  0.
          5    1    3    3  502    0 -0.22671729433E+01 -0.46035384622E+02  0.33346557472E+03  0.33666178672E+03  0.41800000000E+01 0. -1.
         -5    1    3    3    0  502  0.90678272909E+02 -0.87422395059E+02  0.22927462603E+03  0.26162865072E+03  0.41800000000E+01 0. -1.
        -11    1    4    4    0    0 -0.46131620971E+02  0.34243830175E+02  0.59752089846E+02  0.82891969451E+02  0.00000000000E+00 0. -1.
         11    1    4    4    0    0 -0.42279478994E+02  0.99213949505E+02 -0.95301814261E+01  0.10826719946E+03  0.00000000000E+00 0.  1.
</event>
<event>
 8    1  0.6840084E-009  0.6132023E+02  0.7561462E-02  0.1392373E+00
         -1   -1    0    0    0  501 -0.00000000000E+00  0.00000000000E+00  0.18003894188E+02  0.18003894188E+02  0.00000000000E+00 0.  1.
          1   -1    0    0  501    0  0.00000000000E+00 -0.00000000000E+00 -0.88993890678E+03  0.88993890678E+03  0.00000000000E+00 0. -1.
         25    2    1    2    0    0  0.15413463280E+02 -0.27902613891E+02 -0.68344966491E+03  0.69553422716E+03  0.12509310917E+03 0.  0.
         23    2    1    2    0    0 -0.15413463280E+02  0.27902613891E+02 -0.18848534768E+03  0.21240857381E+03  0.92598840314E+02 0.  0.
          5    1    3    3  502    0 -0.16162434441E+02 -0.19122085216E+00 -0.61421931794E+03  0.61444617648E+03  0.41800000000E+01 0.  1.
         -5    1    3    3    0  502  0.31575897721E+02 -0.27711393039E+02 -0.69230346970E+02  0.81088050677E+02  0.41800000000E+01 0.  1.
        -11    1    4    4    0    0 -0.42886051495E+01  0.43972640857E+02 -0.18771940300E+03  0.19284854042E+03  0.00000000000E+00 0. -1.
         11    1    4    4    0    0 -0.11124858131E+02 -0.16070026966E+02 -0.76594467526E+00  0.19560033394E+02  0.00000000000E+00 0.  1.
</event>
<event>
 8    1  0.6840084E-009  0.1546153E+03  0.7561462E-02  0.1194914E+00
          1   -1    0    0  501    0  0.00000000000E+00  0.00000000000E+00  0.68317312493E+03  0.68317312493E+03  0.00000000000E+00 0. -1.
         -1   -1    0    0    0  501 -0.00000000000E+00 -0.00000000000E+00 -0.41308752071E+02  0.41308752071E+02  0.00000000000E+00 0.  1.
         25    2    1    2    0    0  0.11718327504E+03 -0.51589517368E+02  0.35132410885E+03  0.39429723562E+03  0.12509309455E+03 0.  0.
         23    2    1    2    0    0 -0.11718327504E+03  0.51589517368E+02  0.29054026401E+03  0.33018464139E+03  0.90635832565E+02 0.  0.
          5    1    3    3  502    0  0.20876124332E+02  0.28299977966E+02  0.17189918317E+03  0.17550926726E+03  0.41800000000E+01 0. -1.
         -5    1    3    3    0  502  0.96307150707E+02 -0.79889495334E+02  0.17942492568E+03  0.21878796836E+03  0.41800000000E+01 0. -1.
        -11    1    4    4    0    0  0.39311754645E+01 -0.11430565704E+02  0.68268114838E+02  0.69329989733E+02  0.00000000000E+00 0. -1.
         11    1    4    4    0    0 -0.12111445050E+03  0.63020083073E+02  0.22227214917E+03  0.26085465165E+03  0.00000000000E+00 0.  1.
</event>
<event>
 8    1  0.6840084E-009  0.1997640E+03  0.7561462E-02  0.1149938E+00
          1   -1    0    0  501    0  0.00000000000E+00  0.00000000000E+00  0.58622509775E+02  0.58622509775E+02  0.00000000000E+00 0. -1.
         -1   -1    0    0    0  501 -0.00000000000E+00 -0.00000000000E+00 -0.12188013456E+04  0.12188013456E+04  0.00000000000E+00 0.  1.
         25    2    1    2    0    0  0.83890740609E+02 -0.16416668038E+03 -0.97295201925E+03  0.99813444023E+03  0.12509345991E+03 0.  0.
         23    2    1    2    0    0 -0.83890740609E+02  0.16416668038E+03 -0.18722681659E+03  0.27928941515E+03  0.94659079116E+02 0.  0.
          5    1    3    3  502    0  0.89341108033E+02 -0.17633069584E+03 -0.95569139691E+03  0.97592923227E+03  0.41800000000E+01 0.  1.
         -5    1    3    3    0  502 -0.54503674233E+01  0.12164015455E+02 -0.17260622341E+02  0.22205207962E+02  0.41800000000E+01 0.  1.
        -11    1    4    4    0    0 -0.36583775349E+02  0.11000881066E+03 -0.53994003977E+02  0.12788926267E+03  0.00000000000E+00 0. -1.
         11    1    4    4    0    0 -0.47306965261E+02  0.54157869722E+02 -0.13323281261E+03  0.15140015248E+03  0.00000000000E+00 0.  1.
</event>
<event>
 7    1  0.6840084E-009  0.7143275E+02  0.7561462E-02  0.1355288E+00
         -2   -1    0    0    0  501 -0.00000000000E+00  0.00000000000E+00  0.19059024898E+02  0.19059024898E+02  0.00000000000E+00 0.  1.
          2   -1    0    0  501    0  0.00000000000E+00 -0.00000000000E+00 -0.70204984846E+03  0.70204984846E+03  0.00000000000E+00 0. -1.
         23    2    1    2    0    0  0.27401868846E+02  0.44907238378E+01 -0.23840678442E+03  0.25840585634E+03  0.95732767188E+02 0.  0.
          5    1    1    2  502    0 -0.30306566140E+02 -0.20207760688E+02 -0.28885695706E+02  0.46676518289E+02  0.41800000000E+01 0. -1.
         -5    1    1    2    0  502  0.29046972941E+01  0.15717036850E+02 -0.41569834343E+03  0.41602649873E+03  0.41800000000E+01 0. -1.
        -11    1    3    3    0    0 -0.18570974563E+02 -0.27848006324E+02 -0.14965563002E+03  0.15335318760E+03  0.00000000000E+00 0. -1.
         11    1    3    3    0    0  0.45972843409E+02  0.32338730162E+02 -0.88751154405E+02  0.10505266873E+03  0.00000000000E+00 0.  1.
</event>
<event>
 8    1  0.6840084E-009  0.8606151E+02  0.7561462E-02  0.1312680E+00
         -2   -1    0    0    0  501 -0.00000000000E+00  0.00000000000E+00  0.43768650164E+02  0.43768650164E+02  0.00000000000E+00 0.  1.
          2   -1    0    0  501    0  0.00000000000E+00 -0.00000000000E+00 -0.35681968410E+03  0.35681968410E+03  0.00000000000E+00 0. -1.
         25    2    1    2    0    0  0.44254938604E+02 -0.39617932205E+02 -0.18905380651E+03  0.23434448010E+03  0.12509162023E+03 0.  0.
         23    2    1    2    0    0 -0.44254938604E+02  0.39617932205E+02 -0.12399722743E+03  0.16624385417E+03  0.93453873627E+02 0.  0.
          5    1    3    3  502    0  0.22819898220E+02 -0.40002038287E+02 -0.20315134624E+03  0.20834791264E+03  0.41800000000E+01 0. -1.
         -5    1    3    3    0  502  0.21435040384E+02  0.38410608204E+00  0.14097539722E+02  0.25996567465E+02  0.41800000000E+01 0. -1.
        -11    1    4    4    0    0  0.15422223420E+02 -0.16170282983E+02 -0.67492418599E+01  0.23342563969E+02  0.00000000000E+00 0. -1.
         11    1    4    4    0    0 -0.59677162024E+02  0.55788215188E+02 -0.11724798557E+03  0.14290129020E+03  0.00000000000E+00 0.  1.
</event>
<event>
 8    1  0.6840084E-009  0.1022653E+03  0.7561462E-02  0.1275603E+00
         -1   -1    0    0    0  501 -0.00000000000E+00  0.00000000000E+00  0.33009782724E+03  0.33009782724E+03  0.00000000000E+00 0.  1.
          1   -1    0    0  501    0  0.00000000000E+00 -0.00000000000E+00 -0.40654787138E+02  0.40654787138E+02  0.00000000000E+00 0. -1.
         25    2    1    2    0    0  0.19491918735E+02  0.34054503853E+02  0.14190636825E+03  0.19319713989E+03  0.12509225949E+03 0.  0.
         23    2    1    2    0    0 -0.19491918735E+02 -0.34054503853E+02  0.14753667186E+03  0.17755547449E+03  0.90659984834E+02 0.  0.
          5    1    3    3  502    0  0.53000796416E+02 -0.26906238413E+02  0.49538750379E+02  0.77489291359E+02  0.41800000000E+01 0. -1.
         -5    1    3    3    0  502 -0.33508877681E+02  0.60960742267E+02  0.92367617872E+02  0.11570784853E+03  0.41800000000E+01 0. -1.
        -11    1    4    4    0    0 -0.17165981513E+02  0.16993508429E+02  0.11377023514E+03  0.11630613335E+03  0.00000000000E+00 0.  1.
         11    1    4    4    0    0 -0.23259372219E+01 -0.51048012282E+02  0.33766436714E+02  0.61249341141E+02  0.00000000000E+00 0. -1.
</event>
<event>
 7    1  0.6840084E-009  0.1050176E+03  0.7561462E-02  0.1270085E+00
          1   -1    0    0  501    0  0.00000000000E+00  0.00000000000E+00  0.55548591670E+03  0.55548591670E+03  0.00000000000E+00 0. -1.
         -1   -1    0    0    0  501 -0.00000000000E+00 -0.00000000000E+00 -0.25095250401E+02  0.25095250401E+02  0.00000000000E+00 0.  1.
         23    2    1    2    0    0  0.11801366526E+02 -0.24069013177E+02  0.31864016050E+03  0.33278603549E+03  0.92175939842E+02 0.  0.
          5    1    1    2  502    0  0.44720298942E+02  0.45901005253E+02  0.78996159553E+02  0.10180703829E+03  0.41800000000E+01 0. -1.
         -5    1    1    2    0  502 -0.56521665468E+02 -0.21831992076E+02  0.13275434624E+03  0.14598809332E+03  0.41800000000E+01 0. -1.
        -11    1    3    3    0    0  0.46647234011E+02 -0.15960964609E+02  0.25550897042E+03  0.26022211819E+03  0.00000000000E+00 0. -1.
         11    1    3    3    0    0 -0.34845867485E+02 -0.81080485679E+01  0.63131190085E+02  0.72563917300E+02  0.00000000000E+00 0.  1.
</event>
<event>
 8    1  0.6840084E-009  0.1001611E+03  0.7561462E-02  0.1279957E+00
          1   -1    0    0  501    0  0.00000000000E+00  0.00000000000E+00  0.98221005165E+01  0.98221005165E+01  0.00000000000E+00 0. -1.
         -1   -1    0    0    0  501 -0.00000000000E+00 -0.00000000000E+00 -0.12233472628E+04  0.12233472628E+04  0.00000000000E+00 0.  1.
         25    2    1    2    0    0 -0.14694883502E+02 -0.43613077550E+01 -0.75210442983E+03  0.76258993692E+03  0.12508947965E+03 0.  0.
         23    2    1    2    0    0  0.14694883502E+02  0.43613077550E+01 -0.46142073242E+03  0.47057942636E+03  0.91109514322E+02 0.  0.
          5    1    3    3  502    0 -0.57311237873E+02  0.17370126304E+02 -0.60213796036E+03  0.60512304119E+03  0.41800000000E+01 0.  1.
         -5    1    3    3    0  502  0.42616354371E+02 -0.21731434059E+02 -0.14996646948E+03  0.15746689574E+03  0.41800000000E+01 0.  1.
        -11    1    4    4    0    0 -0.38620804582E+02  0.50607762850E+01 -0.18309568505E+03  0.18719296966E+03  0.00000000000E+00 0. -1.
         11    1    4    4    0    0  0.53315688084E+02 -0.69946853000E+00 -0.27832504737E+03  0.28338645671E+03  0.00000000000E+00 0.  1.
</event>
<event>
 8    1  0.6840084E-009  0.9327745E+02  0.7561462E-02  0.1295104E+00
         -2   -1    0    0    0  501 -0.00000000000E+00  0.00000000000E+00  0.64096753542E+02  0.64096753542E+02  0.00000000000E+00 0.  1.
          2   -1    0    0  501    0  0.00000000000E+00 -0.00000000000E+00 -0.19275327103E+03  0.19275327103E+03  0.00000000000E+00 0. -1.
         25    2    1    2    0    0  0.24708601997E+02 -0.23885317532E+02 -0.81348673950E+02  0.15311932323E+03  0.12508755728E+03 0.  0.
         23    2    1    2    0    0 -0.24708601997E+02  0.23885317532E+02 -0.47307843539E+02  0.10373070135E+03  0.85679652983E+02 0.  0.
          5    1    3    3  502    0  0.64029474663E+02 -0.31715532464E+02 -0.86730585403E+02  0.11245139158E+03  0.41800000000E+01 0.  1.
         -5    1    3    3    0  502 -0.39320872666E+02  0.78302149319E+01  0.53819114522E+01  0.40667931641E+02  0.41800000000E+01 0.  1.
        -11    1    4    4    0    0  0.20803969194E+02 -0.41505729434E+01  0.11605345936E+02  0.24180910741E+02  0.00000000000E+00 0.  1.
         11    1    4    4    0    0 -0.45512571191E+02  0.28035890475E+02 -0.58913189475E+02  0.79549790605E+02  0.00000000000E+00 0. -1.
</event>
<event>
 8    1  0.6840084E-009  0.1678112E+03  0.7561462E-02  0.1180150E+00
          1   -1    0    0  501    0  0.00000000000E+00  0.00000000000E+00  0.41689279729E+03  0.41689279729E+03  0.00000000000E+00 0. -1.
         -1   -1    0    0    0  501 -0.00000000000E+00 -0.00000000000E+00 -0.71033176685E+02  0.71033176685E+02  0.00000000000E+00 0.  1.
         25    2    1    2    0    0  0.12444653371E+03 -0.29428424684E+02  0.23467733322E+03  0.29508174037E+03  0.12508721294E+03 0.  0.
         23    2    1    2    0    0 -0.12444653371E+03  0.29428424684E+02  0.11118228738E+03  0.19284423361E+03  0.92056642762E+02 0.  0.
          5    1    3    3  502    0  0.16853179143E+02  0.44720442332E+02  0.57305343193E+02  0.74735014338E+02  0.41800000000E+01 0.  1.
         -5    1    3    3    0  502  0.10759335456E+03 -0.74148867016E+02  0.17737199003E+03  0.22034672603E+03  0.41800000000E+01 0.  1.
        -11    1    4    4    0    0 -0.38572948619E+02  0.55122514498E+02  0.39050800125E+02  0.77790288341E+02  0.00000000000E+00 0.  1.
         11    1    4    4    0    0 -0.85873585088E+02 -0.25694089814E+02  0.72131487258E+02  0.11505394527E+03  0.00000000000E+00 0. -1.
</event>
<event>
 8    1  0.6840084E-009  0.2109902E+03  0.7561462E-02  0.1140784E+00
          1   -1    0    0  501    0  0.00000000000E+00  0.00000000000E+00  0.10909022136E+04  0.10909022136E+04  0.00000000000E+00 0. -1.
         -1   -1    0    0    0  501 -0.00000000000E+00 -0.00000000000E+00 -0.43411408021E+02  0.43411408021E+02  0.00000000000E+00 0.  1.
         25    2    1    2    0    0  0.18622974886E+03  0.26663155837E+02  0.58033982430E+03  0.62276303201E+03  0.12508812545E+03 0.  0.
         23    2    1    2    0    0 -0.18622974886E+03 -0.26663155837E+02  0.46715098125E+03  0.51155058958E+03  0.89785985435E+02 0.  0.
          5    1    3    3  502    0  0.94030993684E+01  0.46651702650E+02  0.13209940146E+03  0.14047250231E+03  0.41800000000E+01 0.  1.
         -5    1    3    3    0  502  0.17682664949E+03 -0.19988546813E+02  0.44824042284E+03  0.48229052971E+03  0.41800000000E+01 0.  1.
        -11    1    4    4    0    0 -0.16763370438E+03 -0.50727355580E+01  0.44470099844E+03  0.47527441494E+03  0.00000000000E+00 0. -1.
         11    1    4    4    0    0 -0.18596044476E+02 -0.21590420279E+02  0.22449982812E+02  0.36276174637E+02  0.00000000000E+00 0.  1.
</event>
<event>
 8    1  0.6840084E-009  0.1647230E+03  0.7561462E-02  0.1183465E+00
          2   -1    0    0  501    0  0.00000000000E+00  0.00000000000E+00  0.53930387387E+03  0.53930387387E+03  0.00000000000E+00 0. -1.
         -2   -1    0    0    0  501 -0.00000000000E+00 -0.00000000000E+00 -0.70231176585E+02  0.70231176585E+02  0.00000000000E+00 0.  1.
         25    2    1    2    0    0  0.28907666361E+01 -0.14163904939E+03  0.12413423510E+03  0.22611435669E+03  0.12509363347E+03 0.  0.
         23    2    1    2    0    0 -0.28907666361E+01  0.14163904939E+03  0.34493846219E+03  0.38342069376E+03  0.89212716956E+02 0.  0.
          5    1    3    3  502    0 -0.37141723034E+02 -0.39600352708E+02  0.99902975440E+02  0.11377949036E+03  0.41800000000E+01 0.  1.
         -5    1    3    3    0  502  0.40032489670E+02 -0.10203869668E+03  0.24231259655E+02  0.11233486633E+03  0.41800000000E+01 0.  1.
        -11    1    4    4    0    0  0.38497312263E+02  0.39789976343E+02  0.14568522142E+03  0.15585079085E+03  0.00000000000E+00 0. -1.
         11    1    4    4    0    0 -0.41388078899E+02  0.10184907304E+03  0.19925324077E+03  0.22756990291E+03  0.00000000000E+00 0.  1.
</event>
<event>
 8    1  0.6840084E-009  0.1615877E+03  0.7561462E-02  0.1186916E+00
          2   -1    0    0  501    0  0.00000000000E+00  0.00000000000E+00  0.61894609318E+03  0.61894609318E+03  0.00000000000E+00 0.  1.
         -2   -1    0    0    0  501 -0.00000000000E+00 -0.00000000000E+00 -0.61756344121E+02  0.61756344121E+02  0.00000000000E+00 0. -1.
         25    2    1    2    0    0 -0.14002686265E+03  0.11128729305E+02  0.14449544718E+03  0.23718808741E+03  0.12509150121E+03 0.  0.
         23    2    1    2    0    0  0.14002686265E+03 -0.11128729305E+02  0.41269430188E+03  0.44351434989E+03  0.81590568547E+02 0.  0.
          5    1    3    3  502    0 -0.11869749408E+03  0.44278221924E+02  0.15085774572E+03  0.19704108171E+03  0.41800000000E+01 0.  1.
         -5    1    3    3    0  502 -0.21329368563E+02 -0.33149492620E+02 -0.63622985363E+01  0.40147005703E+02  0.41800000000E+01 0.  1.
        -11    1    4    4    0    0  0.80731335070E+02  0.28326788763E+02  0.28174791133E+03  0.29445176338E+03  0.00000000000E+00 0. -1.
         11    1    4    4    0    0  0.59295527576E+02 -0.39455518068E+02  0.13094639055E+03  0.14906258650E+03  0.00000000000E+00 0.  1.
</event>
<event>
 8    1  0.6840084E-009  0.1054396E+03  0.7561462E-02  0.1269256E+00
         -1   -1    0    0    0  501 -0.00000000000E+00  0.00000000000E+00  0.94733627287E+03  0.94733627287E+03  0.00000000000E+00 0.  1.
          1   -1    0    0  501    0  0.00000000000E+00 -0.00000000000E+00 -0.22133590318E+02  0.22133590318E+02  0.00000000000E+00 0. -1.
         25    2    1    2    0    0 -0.92571075143E+02 -0.17243043692E+02  0.50846375850E+03  0.53202454924E+03  0.12509196928E+03 0.  0.
         23    2    1    2    0    0  0.92571075143E+02  0.17243043692E+02  0.41673892406E+03  0.43744531395E+03  0.93916693755E+02 0.  0.
          5    1    3    3  502    0 -0.17002580966E+02  0.17475482416E+02  0.10046842226E+02  0.26700031533E+02  0.41800000000E+01 0. -1.
         -5    1    3    3    0  502 -0.75568494177E+02 -0.34718526108E+02  0.49841691627E+03  0.50532451771E+03  0.41800000000E+01 0. -1.
        -11    1    4    4    0    0  0.62759083032E+02  0.31050193046E+02  0.38650690443E+03  0.39279817230E+03  0.00000000000E+00 0.  1.
         11    1    4    4    0    0  0.29811992111E+02 -0.13807149354E+02  0.30232019627E+02  0.44647141651E+02  0.00000000000E+00 0. -1.
</event>
<event>
 8    1  0.6840084E-009  0.1559839E+03  0.7561462E-02  0.1193307E+00
          4   -1    0    0  501    0  0.00000000000E+00  0.00000000000E+00  0.28266351595E+02  0.28266351595E+02  0.00000000000E+00 0. -1.
         -4   -1    0    0    0  501 -0.00000000000E+00 -0.00000000000E+00 -0.14453792606E+04  0.14453792606E+04  0.00000000000E+00 0.  1.
         25    2    1    2    0    0 -0.13021741243E+03 -0.82436397195E+02 -0.10080353922E+04  0.10273893656E+04  0.12506487332E+03 0.  0.
         23    2    1    2    0    0  0.13021741243E+03  0.82436397195E+02 -0.40907751677E+03  0.44625624656E+03  0.89710026118E+02 0.  0.
          5    1    3    3  502    0 -0.87772657976E+02 -0.61926947780E+02 -0.92950905684E+03  0.93570483888E+03  0.41800000000E+01 0. -1.
         -5    1    3    3    0  502 -0.42444754452E+02 -0.20509449415E+02 -0.78526335378E+02  0.91684526741E+02  0.41800000000E+01 0. -1.
        -11    1    4    4    0    0  0.79426319333E+02  0.67405634181E+02 -0.35733200498E+03  0.37220722925E+03  0.00000000000E+00 0.  1.
         11    1    4    4    0    0  0.50791093094E+02  0.15030763014E+02 -0.51745511790E+02  0.74049017312E+02  0.00000000000E+00 0. -1.
</event>
<event>
 8    1  0.6840084E-009  0.1133899E+03  0.7561462E-02  0.1254418E+00
         -1   -1    0    0    0  501 -0.00000000000E+00  0.00000000000E+00  0.83722878371E+03  0.83722878371E+03  0.00000000000E+00 0.  1.
          1   -1    0    0  501    0  0.00000000000E+00 -0.00000000000E+00 -0.16067247073E+02  0.16067247073E+02  0.00000000000E+00 0. -1.
         25    2    1    2    0    0  0.30918447695E+01 -0.40627538770E+02  0.43244790373E+03  0.45200555969E+03  0.12505071028E+03 0.  0.
         23    2    1    2    0    0 -0.30918447695E+01  0.40627538770E+02  0.38871363290E+03  0.40129047109E+03  0.90970310379E+02 0.  0.
          5    1    3    3  502    0  0.42446101252E+02  0.28358776407E+02  0.14609516859E+03  0.15481331466E+03  0.41800000000E+01 0. -1.
         -5    1    3    3    0  502 -0.39354256483E+02 -0.68986315177E+02  0.28635273515E+03  0.29719224504E+03  0.41800000000E+01 0. -1.
        -11    1    4    4    0    0 -0.34956533800E+02  0.51601829253E+02  0.19660108058E+03  0.20624425549E+03  0.00000000000E+00 0.  1.
         11    1    4    4    0    0  0.31864689031E+02 -0.10974290483E+02  0.19211255233E+03  0.19504621560E+03  0.00000000000E+00 0. -1.
</event>
<event>
 7    1  0.6840084E-009  0.9436082E+02  0.7561462E-02  0.1292622E+00
         -1   -1    0    0    0  501 -0.00000000000E+00  0.00000000000E+00  0.89441355241E+02  0.89441355241E+02  0.00000000000E+00 0.  1.
          1   -1    0    0  501    0  0.00000000000E+00 -0.00000000000E+00 -0.14463207425E+03  0.14463207425E+03  0.00000000000E+00 0. -1.
         23    2    1    2    0    0 -0.18676564895E+01  0.26223740012E+02 -0.46484200506E+02  0.10586039029E+03  0.91402782536E+02 0.  0.
          5    1    1    2  502    0  0.47671565962E+02  0.13744304126E+00 -0.43607228998E+02  0.64743029839E+02  0.41800000000E+01 0. -1.
         -5    1    1    2    0  502 -0.45803909472E+02 -0.26361183053E+02  0.34900710495E+02  0.63470009358E+02  0.41800000000E+01 0. -1.
        -11    1    3    3    0    0  0.22452124611E+02  0.49397848061E+02 -0.81164916676E+01  0.54864585386E+02  0.00000000000E+00 0.  1.
         11    1    3    3    0    0 -0.24319781101E+02 -0.23174108049E+02 -0.38367708838E+02  0.50995804907E+02  0.00000000000E+00 0. -1.
</event>
<event>
 8    1  0.6840084E-009  0.9531012E+02  0.7561462E-02  0.1290479E+00
          2   -1    0    0  501    0  0.00000000000E+00  0.00000000000E+00  0.14682031761E+03  0.14682031761E+03  0.00000000000E+00 0. -1.
         -2   -1    0    0    0  501 -0.00000000000E+00 -0.00000000000E+00 -0.10097659936E+03  0.10097659936E+03  0.00000000000E+00 0.  1.
         25    2    1    2    0    0 -0.66111995780E+01 -0.36528284685E+02 -0.17628819866E+02  0.13168309319E+03  0.12510650742E+03 0.  0.
         23    2    1    2    0    0  0.66111995780E+01  0.36528284685E+02  0.63472538115E+02  0.11611382378E+03  0.89864528245E+02 0.  0.
          5    1    3    3  502    0 -0.22282017466E+02 -0.74105894323E+02 -0.37607141282E+02  0.86139081439E+02  0.41800000000E+01 0.  1.
         -5    1    3    3    0  502  0.15670817889E+02  0.37577609638E+02  0.19978321416E+02  0.45544011747E+02  0.41800000000E+01 0.  1.
        -11    1    4    4    0    0  0.33048162086E+02  0.30735958365E+02 -0.20948803871E+01  0.45180401478E+02  0.00000000000E+00 0.  1.
         11    1    4    4    0    0 -0.26436962508E+02  0.57923263198E+01  0.65567418502E+02  0.70933422305E+02  0.00000000000E+00 0. -1.
</event>
<event>
 8    1  0.6840084E-009  0.1461198E+03  0.7561462E-02  0.1205324E+00
          1   -1    0    0  501    0  0.00000000000E+00  0.00000000000E+00  0.11079300411E+04  0.11079300411E+04  0.00000000000E+00 0. -1.
         -1   -1    0    0    0  501 -0.00000000000E+00 -0.00000000000E+00 -0.22172764058E+02  0.22172764058E+02  0.00000000000E+00 0.  1.
         25    2    1    2    0    0 -0.58483791429E+02  0.87452530858E+02  0.72661902675E+03  0.74477573288E+03  0.12508950094E+03 0.  0.
         23    2    1    2    0    0  0.58483791429E+02 -0.87452530858E+02  0.35913825034E+03  0.38532707232E+03  0.91806158798E+02 0.  0.
          5    1    3    3  502    0 -0.13817756826E+02 -0.26537548818E+02  0.62080731342E+02  0.69041013209E+02  0.41800000000E+01 0.  1.
         -5    1    3    3    0  502 -0.44666034603E+02  0.11399007968E+03  0.66453829540E+03  0.67573471967E+03  0.41800000000E+01 0.  1.
        -11    1    4    4    0    0 -0.16762123184E+01 -0.78721420959E+02  0.19537203551E+03  0.21064212320E+03  0.00000000000E+00 0.  1.
         11    1    4    4    0    0  0.60160003748E+02 -0.87311098991E+01  0.16376621483E+03  0.17468494912E+03  0.00000000000E+00 0. -1.
</event>
<event>
 8    1  0.6840084E-009  0.1254279E+03  0.7561462E-02  0.1234402E+00
          1   -1    0    0  501    0  0.00000000000E+00  0.00000000000E+00  0.73281153973E+02  0.73281153973E+02  0.00000000000E+00 0. -1.
         -1   -1    0    0    0  501 -0.00000000000E+00 -0.00000000000E+00 -0.37005726127E+03  0.37005726127E+03  0.00000000000E+00 0.  1.
         25    2    1    2    0    0 -0.51118511171E+01  0.10231878157E+03 -0.25222696948E+03  0.29960623853E+03  0.12510071921E+03 0.  0.
         23    2    1    2    0    0  0.51118511171E+01 -0.10231878157E+03 -0.44549137811E+02  0.14373217671E+03  0.90438094059E+02 0.  0.
          5    1    3    3  502    0  0.36714007708E+02  0.30347015014E+02 -0.18909790582E+03  0.19504960925E+03  0.41800000000E+01 0.  1.
         -5    1    3    3    0  502 -0.41825858825E+02  0.71971766559E+02 -0.63129063661E+02  0.10455662928E+03  0.41800000000E+01 0.  1.
        -11    1    4    4    0    0  0.29844996829E+02 -0.26396837243E+02  0.16594975431E+02  0.43161441840E+02  0.00000000000E+00 0. -1.
         11    1    4    4    0    0 -0.24733145712E+02 -0.75921944330E+02 -0.61144113242E+02  0.10057073487E+03  0.00000000000E+00 0.  1.
</event>
<event>
 8    1  0.6840084E-009  0.7629769E+02  0.7561462E-02  0.1339899E+00
         -2   -1    0    0    0  501 -0.00000000000E+00  0.00000000000E+00  0.37728355449E+03  0.37728355449E+03  0.00000000000E+00 0. -1.
          2   -1    0    0  501    0  0.00000000000E+00 -0.00000000000E+00 -0.52640029600E+02  0.52640029600E+02  0.00000000000E+00 0.  1.
         25    2    1    2    0    0 -0.60607238936E+02 -0.36613525449E+02  0.26172503809E+03  0.29859893543E+03  0.12509013159E+03 0.  0.
         23    2    1    2    0    0  0.60607238936E+02  0.36613525449E+02  0.62918486799E+02  0.13132464865E+03  0.90959549833E+02 0.  0.
          5    1    3    3  502    0 -0.28795168527E+02 -0.81639574073E+01 -0.30497868237E+01  0.30374093085E+02  0.41800000000E+01 0.  1.
         -5    1    3    3    0  502 -0.31812070409E+02 -0.28449568042E+02  0.26477482491E+03  0.26822484235E+03  0.41800000000E+01 0.  1.
        -11    1    4    4    0    0  0.15117655297E+02  0.29908076527E+02 -0.18159536923E+02  0.38115683445E+02  0.00000000000E+00 0.  1.
         11    1    4    4    0    0  0.45489583639E+02  0.67054489225E+01  0.81078023721E+02  0.93208965210E+02  0.00000000000E+00 0. -1.
</event>
<event>
 8    1  0.6840084E-009  0.7631358E+02  0.7561462E-02  0.1339851E+00
         -1   -1    0    0    0  501 -0.00000000000E+00  0.00000000000E+00  0.24157175799E+03  0.24157175799E+03  0.00000000000E+00 0.  1.
          1   -1    0    0  501    0  0.00000000000E+00 -0.00000000000E+00 -0.66746251636E+02  0.66746251636E+02  0.00000000000E+00 0. -1.
         25    2    1    2    0    0 -0.51648974271E+02 -0.38164339533E+02  0.12680271914E+03  0.18934380017E+03  0.12509201304E+03 0.  0.
         23    2    1    2    0    0  0.51648974271E+02  0.38164339533E+02  0.48022787210E+02  0.11897420945E+03  0.87889368344E+02 0.  0.
          5    1    3    3  502    0  0.91140806312E+01 -0.95989886073E+01  0.12103065148E+03  0.12182404544E+03  0.41800000000E+01 0.  1.
         -5    1    3    3    0  502 -0.60763054902E+02 -0.28565350926E+02  0.57720676599E+01  0.67519754736E+02  0.41800000000E+01 0.  1.
        -11    1    4    4    0    0  0.36386211445E+02  0.42166077859E+02 -0.11948215449E+02  0.56962218687E+02  0.00000000000E+00 0. -1.
         11    1    4    4    0    0  0.15262762827E+02 -0.40017383258E+01  0.59971002659E+02  0.62011990765E+02  0.00000000000E+00 0.  1.
</event>
<event>
 8    1  0.6840084E-009  0.2107718E+03  0.7561462E-02  0.1140956E+00
         -4   -1    0    0    0  501 -0.00000000000E+00  0.00000000000E+00  0.36343774515E+03  0.36343774515E+03  0.00000000000E+00 0.  1.
          4   -1    0    0  501    0  0.00000000000E+00 -0.00000000000E+00 -0.30408695913E+03  0.30408695913E+03  0.00000000000E+00 0. -1.
         25    2    1    2    0    0 -0.94722719378E+02  0.16342149565E+03 -0.22159899879E+03  0.31690987353E+03  0.12508706116E+03 0.  0.
         23    2    1    2    0    0  0.94722719378E+02 -0.16342149565E+03  0.28094978481E+03  0.35061483075E+03  0.91208547554E+02 0.  0.
          5    1    3    3  502    0 -0.38706052392E+02 -0.73769136794E+01 -0.13418361348E+02  0.41834222456E+02  0.41800000000E+01 0.  1.
         -5    1    3    3    0  502 -0.56016666986E+02  0.17079840932E+03 -0.20818063745E+03  0.27507565108E+03  0.41800000000E+01 0.  1.
        -11    1    4    4    0    0  0.66759787742E+02 -0.16071319254E+03  0.20098300939E+03  0.26585667112E+03  0.00000000000E+00 0. -1.
         11    1    4    4    0    0  0.27962931636E+02 -0.27083031043E+01  0.79966775423E+02  0.84758159625E+02  0.00000000000E+00 0.  1.
</event>
<event>
 8    1  0.6840084E-009  0.1276046E+03  0.7561462E-02  0.1231054E+00
          1   -1    0    0  501    0  0.00000000000E+00  0.00000000000E+00  0.20763726959E+03  0.20763726959E+03  0.00000000000E+00 0. -1.
         -1   -1    0    0    0  501 -0.00000000000E+00 -0.00000000000E+00 -0.12860633926E+03  0.12860633926E+03  0.00000000000E+00 0.  1.
         25    2    1    2    0    0 -0.87693733909E+02 -0.59629142566E+02 -0.19702742495E+02  0.16517171247E+03  0.12509065084E+03 0.  0.
         23    2    1    2    0    0  0.87693733909E+02  0.59629142566E+02  0.98733672826E+02  0.17107189637E+03  0.90947402210E+02 0.  0.
          5    1    3    3  502    0 -0.70506864233E+02 -0.89028730208E+02 -0.45326554161E+02  0.12234909733E+03  0.41800000000E+01 0. -1.
         -5    1    3    3    0  502 -0.17186869676E+02  0.29399587642E+02  0.25623811667E+02  0.42822615136E+02  0.41800000000E+01 0. -1.
        -11    1    4    4    0    0  0.43635442216E+02  0.20014869695E+02  0.10094801803E+03  0.11178170320E+03  0.00000000000E+00 0. -1.
         11    1    4    4    0    0  0.44058291693E+02  0.39614272871E+02 -0.22143452010E+01  0.59290193174E+02  0.00000000000E+00 0.  1.
</event>
<event>
 8    1  0.6840084E-009  0.9038444E+02  0.7561462E-02  0.1301923E+00
          3   -1    0    0  501    0  0.00000000000E+00  0.00000000000E+00  0.10071597290E+03  0.10071597290E+03  0.00000000000E+00 0. -1.
         -3   -1    0    0    0  501 -0.00000000000E+00 -0.00000000000E+00 -0.15846623539E+03  0.15846623539E+03  0.00000000000E+00 0.  1.
         25    2    1    2    0    0  0.57999121679E+02  0.31488115122E+02 -0.22700767988E+02  0.14324615306E+03  0.12509490793E+03 0.  0.
         23    2    1    2    0    0 -0.57999121679E+02 -0.31488115122E+02 -0.35049494506E+02  0.11593605523E+03  0.88641425568E+02 0.  0.
          5    1    3    3  502    0  0.61345650327E+02 -0.12812950274E+02 -0.58656732830E+02  0.85939194871E+02  0.41800000000E+01 0. -1.
         -5    1    3    3    0  502 -0.33465286486E+01  0.44301065397E+02  0.35955964842E+02  0.57306958190E+02  0.41800000000E+01 0. -1.
        -11    1    4    4    0    0 -0.71617603336E+01 -0.19963709994E+02  0.27361665640E+02  0.34619377153E+02  0.00000000000E+00 0. -1.
         11    1    4    4    0    0 -0.50837361345E+02 -0.11524405128E+02 -0.62411160147E+02  0.81316678074E+02  0.00000000000E+00 0.  1.
</event>
<event>
 8    1  0.6840084E-009  0.1304784E+03  0.7561462E-02  0.1226748E+00
          3   -1    0    0  501    0  0.00000000000E+00  0.00000000000E+00  0.10919720150E+03  0.10919720150E+03  0.00000000000E+00 0. -1.
         -3   -1    0    0    0  501 -0.00000000000E+00 -0.00000000000E+00 -0.16169219024E+03  0.16169219024E+03  0.00000000000E+00 0.  1.
         25    2    1    2    0    0 -0.66846650258E+02 -0.35755197435E+02 -0.22731872831E+02  0.14802261241E+03  0.12508815670E+03 0.  0.
         23    2    1    2    0    0  0.66846650258E+02  0.35755197435E+02 -0.29763115902E+02  0.12286677933E+03  0.91997247791E+02 0.  0.
          5    1    3    3  502    0 -0.41535426499E+02  0.44565119950E+02 -0.17599264683E+02  0.63548785102E+02  0.41800000000E+01 0.  1.
         -5    1    3    3    0  502 -0.25311223759E+02 -0.80320317385E+02 -0.51326081482E+01  0.84473827305E+02  0.41800000000E+01 0.  1.
        -11    1    4    4    0    0  0.41814215253E+00  0.48022403264E+02 -0.27362711661E+02  0.55272452881E+02  0.00000000000E+00 0. -1.
         11    1    4    4    0    0  0.66428508106E+02 -0.12267205828E+02 -0.24004042412E+01  0.67594326452E+02  0.00000000000E+00 0.  1.
</event>
<event>
 8    1  0.6840084E-009  0.1131148E+03  0.7561462E-02  0.1254908E+00
         -1   -1    0    0    0  501 -0.00000000000E+00  0.00000000000E+00  0.76535714404E+02  0.76535714404E+02  0.00000000000E+00 0.  1.
          1   -1    0    0  501    0  0.00000000000E+00 -0.00000000000E+00 -0.22613983799E+03  0.22613983799E+03  0.00000000000E+00 0. -1.
         25    2    1    2    0    0  0.15797106935E+02 -0.48206716831E+02 -0.18754986167E+02  0.13628267436E+03  0.12509109357E+03 0.  0.
         23    2    1    2    0    0 -0.15797106935E+02  0.48206716831E+02 -0.13084913742E+03  0.16639287803E+03  0.89396067930E+02 0.  0.
          5    1    3    3  502    0 -0.51019607051E+02 -0.40761715438E+02 -0.21466772657E+02  0.68868080250E+02  0.41800000000E+01 0. -1.
         -5    1    3    3    0  502  0.66816713985E+02 -0.74450013927E+01  0.27117864890E+01  0.67414594114E+02  0.41800000000E+01 0. -1.
        -11    1    4    4    0    0 -0.14436520357E+02 -0.20301384322E+02 -0.87914249218E+01  0.26416821867E+02  0.00000000000E+00 0.  1.
         11    1    4    4    0    0 -0.13605865776E+01  0.68508101152E+02 -0.12205771250E+03  0.13997605617E+03  0.00000000000E+00 0. -1.
</event>
<event>
 8    1  0.6840084E-009  0.8056212E+02  0.7561462E-02  0.1327464E+00
          2   -1    0    0  501    0  0.00000000000E+00  0.00000000000E+00  0.85801273920E+03  0.85801273920E+03  0.00000000000E+00 0.  1.
         -2   -1    0    0    0  501 -0.00000000000E+00 -0.00000000000E+00 -0.15049096799E+02  0.15049096799E+02  0.00000000000E+00 0. -1.
         25    2    1    2    0    0  0.26536273815E+02 -0.20908958848E+02  0.49585110041E+03  0.51250094492E+03  0.12509015298E+03 0.  0.
         23    2    1    2    0    0 -0.26536273815E+02  0.20908958848E+02  0.34711254199E+03  0.36056089108E+03  0.91518746626E+02 0.  0.
          5    1    3    3  502    0 -0.10579509112E+01  0.16563625883E+02  0.29230959193E+01  0.17363463142E+02  0.41800000000E+01 0. -1.
         -5    1    3    3    0  502  0.27594224727E+02 -0.37472584732E+02  0.49292800450E+03  0.49513748178E+03  0.41800000000E+01 0. -1.
        -11    1    4    4    0    0 -0.50621895869E+02 -0.16107049246E+02  0.17609478952E+03  0.18393310814E+03  0.00000000000E+00 0. -1.
         11    1    4    4    0    0  0.24085622054E+02  0.37016008094E+02  0.17101775247E+03  0.17662778294E+03  0.00000000000E+00 0.  1.
</event>
<event>
 8    1  0.6840084E-009  0.1209369E+03  0.7561462E-02  0.1241559E+00
         -2   -1    0    0    0  501 -0.00000000000E+00  0.00000000000E+00  0.50586309589E+02  0.50586309589E+02  0.00000000000E+00 0.  1.
          2   -1    0    0  501    0  0.00000000000E+00 -0.00000000000E+00 -0.50425959252E+03  0.50425959252E+03  0.00000000000E+00 0. -1.
         25    2    1    2    0    0 -0.18151487977E+02  0.96516223308E+02 -0.35053403146E+03  0.38492544058E+03  0.12509448318E+03 0.  0.
         23    2    1    2    0    0  0.18151487977E+02 -0.96516223308E+02 -0.10313925147E+03  0.16992046153E+03  0.92684411706E+02 0.  0.
          5    1    3    3  502    0  0.27239791875E+02  0.55578316483E+02 -0.29747912334E+03  0.30387868755E+03  0.41800000000E+01 0. -1.
         -5    1    3    3    0  502 -0.45391279851E+02  0.40937906826E+02 -0.53054908117E+02  0.81046753033E+02  0.41800000000E+01 0. -1.
        -11    1    4    4    0    0 -0.20589797708E+02 -0.66344509172E+02 -0.98591644119E+02  0.12060616053E+03  0.00000000000E+00 0. -1.
         11    1    4    4    0    0  0.38741285684E+02 -0.30171714137E+02 -0.45476073549E+01  0.49314301000E+02  0.00000000000E+00 0.  1.
</event>
<event>
 8    1  0.6840084E-009  0.8198021E+02  0.7561462E-02  0.1323524E+00
         -4   -1    0    0    0  501 -0.00000000000E+00  0.00000000000E+00  0.71125682702E+02  0.71125682702E+02  0.00000000000E+00 0. -1.
          4   -1    0    0  501    0  0.00000000000E+00 -0.00000000000E+00 -0.20416179487E+03  0.20416179487E+03  0.00000000000E+00 0.  1.
         25    2    1    2    0    0  0.61852318637E+02 -0.11407505689E+02 -0.82165001719E+02  0.16233911388E+03  0.12508820840E+03 0.  0.
         23    2    1    2    0    0 -0.61852318637E+02  0.11407505689E+02 -0.50871110453E+02  0.11294836369E+03  0.78826534081E+02 0.  0.
          5    1    3    3  502    0  0.39968530709E+02 -0.43430869382E+00  0.28276529437E+02  0.49139664102E+02  0.41800000000E+01 0. -1.
         -5    1    3    3    0  502  0.21883787928E+02 -0.10973196995E+02 -0.11044153116E+03  0.11319944978E+03  0.41800000000E+01 0. -1.
        -11    1    4    4    0    0 -0.75772635715E+02 -0.67321502150E+01 -0.29315274617E+02  0.81524226434E+02  0.00000000000E+00 0. -1.
         11    1    4    4    0    0  0.13920317078E+02  0.18139655904E+02 -0.21555835836E+02  0.31424137259E+02  0.00000000000E+00 0.  1.
</event>
<event>
 8    1  0.6840084E-009  0.2044664E+03  0.7561462E-02  0.1146024E+00
         -2   -1    0    0    0  501 -0.00000000000E+00  0.00000000000E+00  0.16738127544E+03  0.16738127544E+03  0.00000000000E+00 0. -1.
          2   -1    0    0  501    0  0.00000000000E+00 -0.00000000000E+00 -0.30890974750E+03  0.30890974750E+03  0.00000000000E+00 0.  1.
         25    2    1    2    0    0 -0.18802320450E+03  0.24284304834E+02 -0.70096216830E+01  0.22723503599E+03  0.12507667207E+03 0.  0.
         23    2    1    2    0    0  0.18802320450E+03 -0.24284304834E+02 -0.13451885037E+03  0.24905598695E+03  0.89393012243E+02 0.  0.
          5    1    3    3  502    0 -0.18434841120E+03 -0.90711868667E+01 -0.29020862114E+02  0.18688581001E+03  0.41800000000E+01 0.  1.
         -5    1    3    3    0  502 -0.36747932964E+01  0.33355491701E+02  0.22011240431E+02  0.40349225986E+02  0.41800000000E+01 0.  1.
        -11    1    4    4    0    0  0.11701338862E+03 -0.24189908993E+02 -0.13193322918E+03  0.17799904992E+03  0.00000000000E+00 0.  1.
         11    1    4    4    0    0  0.71009815882E+02 -0.94395841250E-01 -0.25856211945E+01  0.71056937023E+02  0.00000000000E+00 0. -1.
</event>
<event>
 8    1  0.6840084E-009  0.1427922E+03  0.7561462E-02  0.1209620E+00
          1   -1    0    0  501    0  0.00000000000E+00  0.00000000000E+00  0.27867451289E+04  0.27867451289E+04  0.00000000000E+00 0. -1.
         -1   -1    0    0    0  501 -0.00000000000E+00 -0.00000000000E+00 -0.14461223887E+02  0.14461223887E+02  0.00000000000E+00 0.  1.
         25    2    1    2    0    0  0.12880785417E+02  0.11275459890E+03  0.23152124291E+04  0.23213650561E+04  0.12509043895E+03 0.  0.
         23    2    1    2    0    0 -0.12880785417E+02 -0.11275459890E+03  0.45707147592E+03  0.47984129662E+03  0.91944666214E+02 0.  0.
          5    1    3    3  502    0  0.50342466410E+02  0.40940656032E+02  0.16416379908E+04  0.16429252164E+04  0.41800000000E+01 0. -1.
         -5    1    3    3    0  502 -0.37461680993E+02  0.71813942866E+02  0.67357443824E+03  0.67843983977E+03  0.41800000000E+01 0. -1.
        -11    1    4    4    0    0 -0.42802451226E+02 -0.96124966950E+02  0.27226117790E+03  0.29188732088E+03  0.00000000000E+00 0.  1.
         11    1    4    4    0    0  0.29921665809E+02 -0.16629631947E+02  0.18481029802E+03  0.18795397574E+03  0.00000000000E+00 0. -1.
</event>
<event>
 8    1  0.6840084E-009  0.1226896E+03  0.7561462E-02  0.1238725E+00
         -1   -1    0    0    0  501 -0.00000000000E+00  0.00000000000E+00  0.85823457537E+02  0.85823457537E+02  0.00000000000E+00 0.  1.
          1   -1    0    0  501    0  0.00000000000E+00 -0.00000000000E+00 -0.28434091910E+03  0.28434091910E+03  0.00000000000E+00 0. -1.
         25    2    1    2    0    0 -0.78194645280E+02  0.70051472820E+02 -0.15563296041E+03  0.22559012920E+03  0.12509067365E+03 0.  0.
         23    2    1    2    0    0  0.78194645280E+02 -0.70051472820E+02 -0.42884501153E+02  0.14457424743E+03  0.89671741298E+02 0.  0.
          5    1    3    3  502    0 -0.31488049809E+02 -0.20230113612E+00  0.15050494627E+02  0.35150078166E+02  0.41800000000E+01 0. -1.
         -5    1    3    3    0  502 -0.46706595471E+02  0.70253773956E+02 -0.17068345504E+03  0.19044005104E+03  0.41800000000E+01 0. -1.
        -11    1    4    4    0    0 -0.80998584383E+01 -0.35135769407E+02  0.10120974218E+02  0.37450822656E+02  0.00000000000E+00 0.  1.
         11    1    4    4    0    0  0.86294503719E+02 -0.34915703413E+02 -0.53005475371E+02  0.10712342478E+03  0.00000000000E+00 0. -1.
</event>
<event>
 8    1  0.6840084E-009  0.1058794E+03  0.7561462E-02  0.1268397E+00
          1   -1    0    0  501    0  0.00000000000E+00  0.00000000000E+00  0.76350821316E+02  0.76350821316E+02  0.00000000000E+00 0. -1.
         -1   -1    0    0    0  501 -0.00000000000E+00 -0.00000000000E+00 -0.26715149251E+03  0.26715149251E+03  0.00000000000E+00 0.  1.
         25    2    1    2    0    0  0.25819307789E+02 -0.60597907630E+02 -0.25214005470E+02  0.14360302486E+03  0.12508932653E+03 0.  0.
         23    2    1    2    0    0 -0.25819307789E+02  0.60597907630E+02 -0.16558666572E+03  0.19989928897E+03  0.90565108074E+02 0.  0.
          5    1    3    3  502    0  0.73260207124E+02 -0.58153492118E+02 -0.18612042303E+02  0.95460814537E+02  0.41800000000E+01 0.  1.
         -5    1    3    3    0  502 -0.47440899335E+02 -0.24444155116E+01 -0.66019631669E+01  0.48142210321E+02  0.41800000000E+01 0.  1.
        -11    1    4    4    0    0 -0.26712545312E+02  0.31375714166E+02 -0.16561404590E+03  0.17066343403E+03  0.00000000000E+00 0.  1.
         11    1    4    4    0    0  0.89323752340E+00  0.29222193464E+02  0.27380176595E-01  0.29235854935E+02  0.00000000000E+00 0. -1.
</event>
<event>
 7    1  0.6840084E-009  0.1217485E+03  0.7561462E-02  0.1240240E+00
          2   -1    0    0  501    0  0.00000000000E+00  0.00000000000E+00  0.34879206560E+03  0.34879206560E+03  0.00000000000E+00 0. -1.
         -2   -1    0    0    0  501 -0.00000000000E+00 -0.00000000000E+00 -0.63959451994E+02  0.63959451994E+02  0.00000000000E+00 0.  1.
         23    2    1    2    0    0 -0.17002385667E+02  0.81988491130E+02  0.21427898752E+03  0.24655847639E+03  0.88681474904E+02 0.  0.
          5    1    1    2  502    0 -0.37674380471E+02 -0.43643380364E+02 -0.12898077068E+02  0.59227834551E+02  0.41800000000E+01 0. -1.
         -5    1    1    2    0  502  0.54676766138E+02 -0.38345110766E+02  0.83451703156E+02  0.10696520665E+03  0.41800000000E+01 0. -1.
        -11    1    3    3    0    0  0.26331712174E+02  0.33065146427E+00  0.74115455559E+02  0.78654746514E+02  0.00000000000E+00 0. -1.
         11    1    3    3    0    0 -0.43334097842E+02  0.81657839666E+02  0.14016353196E+03  0.16790372987E+03  0.00000000000E+00 0.  1.
</event>
<event>
 8    1  0.6840084E-009  0.1230374E+03  0.7561462E-02  0.1238169E+00
          4   -1    0    0  501    0  0.00000000000E+00  0.00000000000E+00  0.16615576878E+02  0.16615576878E+02  0.00000000000E+00 0. -1.
         -4   -1    0    0    0  501 -0.00000000000E+00 -0.00000000000E+00 -0.18757526950E+04  0.18757526950E+04  0.00000000000E+00 0.  1.
         25    2    1    2    0    0  0.38407110929E+02 -0.63881063882E+02 -0.16064457411E+04  0.16130316146E+04  0.12508866462E+03 0.  0.
         23    2    1    2    0    0 -0.38407110929E+02  0.63881063882E+02 -0.25269137700E+03  0.27933665729E+03  0.92844706907E+02 0.  0.
          5    1    3    3  502    0  0.14128411148E+02  0.31784067299E+02 -0.76589538171E+03  0.76669618954E+03  0.41800000000E+01 0.  1.
         -5    1    3    3    0  502  0.24278699781E+02 -0.95665131180E+02 -0.84055035941E+03  0.84633542504E+03  0.41800000000E+01 0.  1.
        -11    1    4    4    0    0 -0.10510881804E+02 -0.20687589391E+02 -0.21683187203E+02  0.31758709016E+02  0.00000000000E+00 0. -1.
         11    1    4    4    0    0 -0.27896229125E+02  0.84568653273E+02 -0.23100818980E+03  0.24757794827E+03  0.00000000000E+00 0.  1.
</event>
<event>
 8    1  0.6840084E-009  0.1107512E+03  0.7561462E-02  0.1259185E+00
          1   -1    0    0  501    0  0.00000000000E+00  0.00000000000E+00  0.17777258260E+03  0.17777258260E+03  0.00000000000E+00 0. -1.
         -1   -1    0    0    0  501 -0.00000000000E+00 -0.00000000000E+00 -0.15390544888E+03  0.15390544888E+03  0.00000000000E+00 0.  1.
         25    2    1    2    0    0  0.75841823635E+02 -0.70274910582E+02  0.66297709638E+02  0.17532104377E+03  0.12510610223E+03 0.  0.
         23    2    1    2    0    0 -0.75841823635E+02  0.70274910582E+02 -0.42430575923E+02  0.15635698771E+03  0.10934627824E+03 0.  0.
          5    1    3    3  502    0  0.40116771808E+02 -0.13981049987E+01 -0.30937865191E+02  0.50852079411E+02  0.41800000000E+01 0. -1.
         -5    1    3    3    0  502  0.35725051828E+02 -0.68876805583E+02  0.97235574829E+02  0.12446896436E+03  0.41800000000E+01 0. -1.
        -11    1    4    4    0    0 -0.47094184247E+02  0.41584365400E+02  0.32792695852E+02  0.70869475353E+02  0.00000000000E+00 0. -1.
         11    1    4    4    0    0 -0.28747639388E+02  0.28690545182E+02 -0.75223271774E+02  0.85487512361E+02  0.00000000000E+00 0.  1.
</event>
<event>
 8    1  0.6840084E-009  0.1487116E+03  0.7561462E-02  0.1202065E+00
          2   -1    0    0  501    0  0.00000000000E+00  0.00000000000E+00  0.42983474724E+03  0.42983474724E+03  0.00000000000E+00 0. -1.
         -2   -1    0    0    0  501 -0.00000000000E+00 -0.00000000000E+00 -0.11378937085E+03  0.11378937085E+03  0.00000000000E+00 0.  1.
         25    2    1    2    0    0 -0.54776336231E+02 -0.10841949180E+03  0.34709469180E+03  0.38842743237E+03  0.12508361977E+03 0.  0.
         23    2    1    2    0    0  0.54776336231E+02  0.10841949180E+03 -0.31049315410E+02  0.15519668572E+03  0.91469765809E+02 0.  0.
          5    1    3    3  502    0  0.18789050355E+02 -0.83686350922E+02  0.24826273038E+03  0.26269428894E+03  0.41800000000E+01 0.  1.
         -5    1    3    3    0  502 -0.73565386586E+02 -0.24733140875E+02  0.98831961414E+02  0.12573314343E+03  0.41800000000E+01 0.  1.
        -11    1    4    4    0    0  0.31449780846E+02  0.10482244501E+02 -0.42467450728E+02  0.53874395926E+02  0.00000000000E+00 0.  1.
         11    1    4    4    0    0  0.23326555386E+02  0.97937247296E+02  0.11418135319E+02  0.10132228979E+03  0.00000000000E+00 0. -1.
</event>
<event>
 8    1  0.6840084E-009  0.1612150E+03  0.7561462E-02  0.1187332E+00
         -1   -1    0    0    0  501 -0.00000000000E+00  0.00000000000E+00  0.24730770073E+02  0.24730770073E+02  0.00000000000E+00 0.  1.
          1   -1    0    0  501    0  0.00000000000E+00 -0.00000000000E+00 -0.14959007586E+04  0.14959007586E+04  0.00000000000E+00 0. -1.
         25    2    1    2    0    0 -0.11601988164E+03  0.36472808374E+02 -0.11763208317E+04  0.11891886014E+04  0.12509177461E+03 0.  0.
         23    2    1    2    0    0  0.11601988164E+03 -0.36472808374E+02 -0.29484915685E+03  0.33144292723E+03  0.90152703947E+02 0.  0.
          5    1    3    3  502    0 -0.10850415112E+03  0.76949158517E+02 -0.89505751205E+03  0.90489764398E+03  0.41800000000E+01 0. -1.
         -5    1    3    3    0  502 -0.75157305235E+01 -0.40476350143E+02 -0.28126331962E+03  0.28429095745E+03  0.41800000000E+01 0. -1.
        -11    1    4    4    0    0  0.44326114969E+02 -0.58101484227E+02 -0.18074808839E+03  0.19496271026E+03  0.00000000000E+00 0. -1.
         11    1    4    4    0    0  0.71693766674E+02  0.21628675854E+02 -0.11410106847E+03  0.13648021697E+03  0.00000000000E+00 0.  1.
</event>
<event>
 8    1  0.6840084E-009  0.1755313E+03  0.7561462E-02  0.1172199E+00
          2   -1    0    0  501    0  0.00000000000E+00  0.00000000000E+00  0.70013870225E+03  0.70013870225E+03  0.00000000000E+00 0. -1.
         -2   -1    0    0    0  501 -0.00000000000E+00 -0.00000000000E+00 -0.52444989247E+02  0.52444989247E+02  0.00000000000E+00 0.  1.
         25    2    1    2    0    0 -0.68790950540E+02  0.13703387983E+03  0.27145567456E+03  0.33592603046E+03  0.12509050959E+03 0.  0.
         23    2    1    2    0    0  0.68790950540E+02 -0.13703387983E+03  0.37623803844E+03  0.41665766104E+03  0.92401654953E+02 0.  0.
          5    1    3    3  502    0  0.16081710486E+02  0.42866581320E+02  0.12607810581E+02  0.47671736846E+02  0.41800000000E+01 0. -1.
         -5    1    3    3    0  502 -0.84872661026E+02  0.94167298505E+02  0.25884786398E+03  0.28825429361E+03  0.41800000000E+01 0. -1.
        -11    1    4    4    0    0 -0.50115978527E+01 -0.91272497420E+02  0.17357423944E+03  0.19617288675E+03  0.00000000000E+00 0. -1.
         11    1    4    4    0    0  0.73802548393E+02 -0.45761382405E+02  0.20266379900E+03  0.22048477429E+03  0.00000000000E+00 0.  1.
</event>
<event>
 8    1  0.6840084E-009  0.9244212E+02  0.7561462E-02  0.1297043E+00
          1   -1    0    0  501    0  0.00000000000E+00  0.00000000000E+00  0.52120286700E+03  0.52120286700E+03  0.00000000000E+00 0. -1.
         -1   -1    0    0    0  501 -0.00000000000E+00 -0.00000000000E+00 -0.27284226390E+02  0.27284226390E+02  0.00000000000E+00 0.  1.
         25    2    1    2    0    0 -0.83586402127E+01 -0.70778221671E+01  0.43426964529E+03  0.45206005813E+03  0.12509280119E+03 0.  0.
         23    2    1    2    0    0  0.83586402127E+01  0.70778221671E+01  0.59648995320E+02  0.96427035252E+02  0.74968046874E+02 0.  0.
          5    1    3    3  502    0  0.51163130224E+02 -0.30443834729E+02  0.17143567049E+03  0.18152728303E+03  0.41800000000E+01 0. -1.
         -5    1    3    3    0  502 -0.59521770436E+02  0.23366012561E+02  0.26283397479E+03  0.27053277510E+03  0.41800000000E+01 0. -1.
        -11    1    4    4    0    0 -0.38401294986E+01  0.32604579639E+02  0.28271244369E+01  0.32951446715E+02  0.00000000000E+00 0.  1.
         11    1    4    4    0    0  0.12198769711E+02 -0.25526757472E+02  0.56821870883E+02  0.63475588537E+02  0.00000000000E+00 0. -1.
</event>
<event>
 8    1  0.6840084E-009  0.9254463E+02  0.7561462E-02  0.1296804E+00
         -1   -1    0    0    0  501 -0.00000000000E+00  0.00000000000E+00  0.98610517176E+02  0.98610517176E+02  0.00000000000E+00 0.  1.
          1   -1    0    0  501    0  0.00000000000E+00 -0.00000000000E+00 -0.13943137115E+03  0.13943137115E+03  0.00000000000E+00 0. -1.
         25    2    1    2    0    0  0.17208060573E+02 -0.45858117425E+01 -0.69732961160E+02  0.14432325149E+03  0.12509743415E+03 0.  0.
         23    2    1    2    0    0 -0.17208060573E+02  0.45858117425E+01  0.28912107190E+02  0.93718636833E+02  0.87350592040E+02 0.  0.
          5    1    3    3  502    0  0.66488286109E+02 -0.50404090108E+00 -0.67209662504E+02  0.94633806754E+02  0.41800000000E+01 0. -1.
         -5    1    3    3    0  502 -0.49280225535E+02 -0.40817708414E+01 -0.25232986564E+01  0.49689444736E+02  0.41800000000E+01 0. -1.
        -11    1    4    4    0    0 -0.39217316633E+02  0.17910907095E+02 -0.12566972018E+02  0.44907987069E+02  0.00000000000E+00 0. -1.
         11    1    4    4    0    0  0.22009256060E+02 -0.13325095353E+02  0.41479079208E+02  0.48810649764E+02  0.00000000000E+00 0.  1.
</event>
<event>
 8    1  0.6840084E-009  0.1870783E+03  0.7561462E-02  0.1161123E+00
          2   -1    0    0  501    0  0.00000000000E+00  0.00000000000E+00  0.14942370430E+04  0.14942370430E+04  0.00000000000E+00 0. -1.
         -2   -1    0    0    0  501 -0.00000000000E+00 -0.00000000000E+00 -0.27771388265E+02  0.27771388265E+02  0.00000000000E+00 0.  1.
         25    2    1    2    0    0 -0.15442550710E+03  0.60491845165E+02  0.93856828206E+03  0.96128278244E+03  0.12509063569E+03 0.  0.
         23    2    1    2    0    0  0.15442550710E+03 -0.60491845165E+02  0.52789737267E+03  0.56072564882E+03  0.90725501422E+02 0.  0.
          5    1    3    3  502    0 -0.17584157314E+03  0.49291197365E+02  0.80311039658E+03  0.82362228143E+03  0.41800000000E+01 0.  1.
         -5    1    3    3    0  502  0.21416066042E+02  0.11200647799E+02  0.13545788549E+03  0.13766050100E+03  0.41800000000E+01 0.  1.
        -11    1    4    4    0    0  0.36717385134E+02 -0.58151573981E+01  0.35112007528E+02  0.51135462248E+02  0.00000000000E+00 0.  1.
         11    1    4    4    0    0  0.11770812196E+03 -0.54676687767E+02  0.49278536514E+03  0.50959018658E+03  0.00000000000E+00 0. -1.
</event>
<event>
 8    1  0.6840084E-009  0.1158967E+03  0.7561462E-02  0.1250024E+00
          1   -1    0    0  501    0  0.00000000000E+00  0.00000000000E+00  0.10012444795E+04  0.10012444795E+04  0.00000000000E+00 0. -1.
         -1   -1    0    0    0  501 -0.00000000000E+00 -0.00000000000E+00 -0.23153784105E+02  0.23153784105E+02  0.00000000000E+00 0.  1.
         25    2    1    2    0    0  0.23889907594E+02 -0.43435591491E+02  0.85100164699E+03  0.86157337022E+03  0.12508993087E+03 0.  0.
         23    2    1    2    0    0 -0.23889907594E+02  0.43435591491E+02  0.12708904844E+03  0.16282489342E+03  0.88898489244E+02 0.  0.
          5    1    3    3  502    0  0.63779451065E+02  0.94721706605E+01  0.51829516069E+03  0.52230727200E+03  0.41800000000E+01 0.  1.
         -5    1    3    3    0  502 -0.39889543471E+02 -0.52907762151E+02  0.33270648630E+03  0.33926609822E+03  0.41800000000E+01 0.  1.
        -11    1    4    4    0    0 -0.49333309010E+02 -0.12686150399E+01  0.73626128653E+02  0.88635159968E+02  0.00000000000E+00 0.  1.
         11    1    4    4    0    0  0.25443401416E+02  0.44704206531E+02  0.53462919792E+02  0.74189733453E+02  0.00000000000E+00 0. -1.
</event>
<event>
 8    1  0.6840084E-009  0.1425291E+03  0.7561462E-02  0.1209966E+00
          2   -1    0    0  501    0  0.00000000000E+00  0.00000000000E+00  0.82790397650E+03  0.82790397650E+03  0.00000000000E+00 0. -1.
         -2   -1    0    0    0  501 -0.00000000000E+00 -0.00000000000E+00 -0.26271452822E+02  0.26271452822E+02  0.00000000000E+00 0.  1.
         25    2    1    2    0    0  0.81498118766E+02 -0.58170584390E+02  0.44788712825E+03  0.47568518611E+03  0.12509099239E+03 0.  0.
         23    2    1    2    0    0 -0.81498118766E+02  0.58170584390E+02  0.35374539543E+03  0.37849024322E+03  0.89962765488E+02 0.  0.
          5    1    3    3  502    0  0.10749636287E+03 -0.13596377683E+02  0.29918459128E+03  0.31822825390E+03  0.41800000000E+01 0. -1.
         -5    1    3    3    0  502 -0.25998244105E+02 -0.44574206707E+02  0.14870253697E+03  0.15745693221E+03  0.41800000000E+01 0. -1.
        -11    1    4    4    0    0 -0.18449666465E+02  0.58981921648E+02  0.24606592905E+03  0.25370790038E+03  0.00000000000E+00 0. -1.
         11    1    4    4    0    0 -0.63048452301E+02 -0.81133725787E+00  0.10767946638E+03  0.12478234284E+03  0.00000000000E+00 0.  1.
</event>
<event>
 7    1  0.6840084E-009  0.9146720E+02  0.7561462E-02  0.1299337E+00
          2   -1    0    0  501    0  0.00000000000E+00  0.00000000000E+00  0.48340136631E+03  0.48340136631E+03  0.00000000000E+00 0. -1.
         -2   -1    0    0    0  501 -0.00000000000E+00 -0.00000000000E+00 -0.19516140217E+02  0.19516140217E+02  0.00000000000E+00 0.  1.
         25    2    1    2    0    0  0.32458855945E+02 -0.25880080027E+02  0.34327494163E+03  0.36770782162E+03  0.12509196879E+03 0.  0.
          5    1    3    3  502    0  0.17150990968E+02 -0.74276090667E+02  0.15673510074E+03  0.17434006522E+03  0.41800000000E+01 0.  1.
         -5    1    3    3    0  502  0.15307864977E+02  0.48396010641E+02  0.18653984089E+03  0.19336775640E+03  0.41800000000E+01 0.  1.
        -11    1    1    2    0    0 -0.37264738927E+02  0.93166947055E+01  0.10551781322E+03  0.11229189852E+03  0.00000000000E+00 0. -1.
         11    1    1    2    0    0  0.48058829820E+01  0.16563385321E+02  0.15092471242E+02  0.22917786384E+02  0.00000000000E+00 0.  1.
</event>
<event>
 8    1  0.6840084E-009  0.9533841E+02  0.7561462E-02  0.1290416E+00
         -1   -1    0    0    0  501 -0.00000000000E+00  0.00000000000E+00  0.30244585549E+03  0.30244585549E+03  0.00000000000E+00 0.  1.
          1   -1    0    0  501    0  0.00000000000E+00 -0.00000000000E+00 -0.37639374473E+02  0.37639374473E+02  0.00000000000E+00 0. -1.
         25    2    1    2    0    0  0.27250750822E+02  0.27775383270E+02  0.15835701270E+03  0.20550785156E+03  0.12506981348E+03 0.  0.
         23    2    1    2    0    0 -0.27250750822E+02 -0.27775383270E+02  0.10644946832E+03  0.13457737840E+03  0.72563807351E+02 0.  0.
          5    1    3    3  502    0 -0.25289283871E+02  0.46392703463E+02  0.13480613585E+03  0.14485163953E+03  0.41800000000E+01 0. -1.
         -5    1    3    3    0  502  0.52540034692E+02 -0.18617320193E+02  0.23550876853E+02  0.60656212025E+02  0.41800000000E+01 0. -1.
        -11    1    4    4    0    0 -0.37793171900E+01 -0.49589493939E+02  0.72245426777E+02  0.87708624649E+02  0.00000000000E+00 0. -1.
         11    1    4    4    0    0 -0.23471433632E+02  0.21814110669E+02  0.34204041540E+02  0.46868753756E+02  0.00000000000E+00 0.  1.
</event>
<event>
 8    1  0.6840084E-009  0.7755972E+02  0.7561462E-02  0.1336123E+00
         -3   -1    0    0    0  501 -0.00000000000E+00  0.00000000000E+00  0.56790664679E+03  0.56790664679E+03  0.00000000000E+00 0.  1.
          3   -1    0    0  501    0  0.00000000000E+00 -0.00000000000E+00 -0.26008595981E+02  0.26008595981E+02  0.00000000000E+00 0. -1.
         25    2    1    2    0    0 -0.49541815054E+02  0.19336650331E+02  0.30782661876E+03  0.33650156222E+03  0.12509107352E+03 0.  0.
         23    2    1    2    0    0  0.49541815054E+02 -0.19336650331E+02  0.23407143205E+03  0.25741368055E+03  0.92973491644E+02 0.  0.
          5    1    3    3  502    0 -0.51947170077E+02  0.37441357857E+02  0.59630515993E+02  0.87599284214E+02  0.41800000000E+01 0.  1.
         -5    1    3    3    0  502  0.24053550224E+01 -0.18104707527E+02  0.24819610277E+03  0.24890227800E+03  0.41800000000E+01 0.  1.
        -11    1    4    4    0    0  0.26964140715E+02  0.15198515074E+02  0.14827008155E+02  0.34320546554E+02  0.00000000000E+00 0. -1.
         11    1    4    4    0    0  0.22577674340E+02 -0.34535165405E+02  0.21924442389E+03  0.22309313400E+03  0.00000000000E+00 0.  1.
</event>
<event>
 8    1  0.6840084E-009  0.6846361E+02  0.7561462E-02  0.1365397E+00
          2   -1    0    0  501    0  0.00000000000E+00  0.00000000000E+00  0.43304752194E+03  0.43304752194E+03  0.00000000000E+00 0.  1.
         -2   -1    0    0    0  501 -0.00000000000E+00 -0.00000000000E+00 -0.38269486967E+02  0.38269486967E+02  0.00000000000E+00 0. -1.
         25    2    1    2    0    0  0.29899870611E+02 -0.57708363999E+02  0.23551418048E+03  0.27447934230E+03  0.12509085741E+03 0.  0.
         23    2    1    2    0    0 -0.29899870611E+02  0.57708363999E+02  0.15926385449E+03  0.19683766660E+03  0.95686122855E+02 0.  0.
          5    1    3    3  502    0 -0.15907034855E+01 -0.21900877664E+02  0.22417550078E+03  0.22528716415E+03  0.41800000000E+01 0. -1.
         -5    1    3    3    0  502  0.31490574097E+02 -0.35807486334E+02  0.11338679701E+02  0.49192178158E+02  0.41800000000E+01 0. -1.
        -11    1    4    4    0    0 -0.23459878454E+02  0.29081244160E+02  0.26054148587E+01  0.37454944207E+02  0.00000000000E+00 0. -1.
         11    1    4    4    0    0 -0.64399921577E+01  0.28627119839E+02  0.15665843963E+03  0.15938272239E+03  0.00000000000E+00 0.  1.
</event>
<event>
 8    1  0.6840084E-009  0.1210001E+03  0.7561462E-02  0.1241456E+00
          1   -1    0    0  501    0  0.00000000000E+00  0.00000000000E+00  0.13304501474E+03  0.13304501474E+03  0.00000000000E+00 0. -1.
         -1   -1    0    0    0  501 -0.00000000000E+00 -0.00000000000E+00 -0.12154062989E+03  0.12154062989E+03  0.00000000000E+00 0.  1.
         25    2    1    2    0    0 -0.63839782188E+02  0.18099947666E+02  0.24093752598E+02  0.14361446050E+03  0.12506589645E+03 0.  0.
         23    2    1    2    0    0  0.63839782188E+02 -0.18099947666E+02 -0.12589367744E+02  0.11097118413E+03  0.88051039922E+02 0.  0.
          5    1    3    3  502    0 -0.94812213281E+02  0.31639572555E+02 -0.30124585940E+01  0.10008479228E+03  0.41800000000E+01 0. -1.
         -5    1    3    3    0  502  0.30972431093E+02 -0.13539624889E+02  0.27106211192E+02  0.43529668217E+02  0.41800000000E+01 0. -1.
        -11    1    4    4    0    0  0.50770553781E+02  0.29377447750E+02 -0.18183494743E+02  0.61411098741E+02  0.00000000000E+00 0. -1.
         11    1    4    4    0    0  0.13069228407E+02 -0.47477395416E+02  0.55941269994E+01  0.49560085387E+02  0.00000000000E+00 0.  1.
</event>
<event>
 8    1  0.6840084E-009  0.1652278E+03  0.7561462E-02  0.1182918E+00
         -1   -1    0    0    0  501 -0.00000000000E+00  0.00000000000E+00  0.62777787942E+02  0.62777787942E+02  0.00000000000E+00 0.  1.
          1   -1    0    0  501    0  0.00000000000E+00 -0.00000000000E+00 -0.47799336187E+03  0.47799336187E+03  0.00000000000E+00 0. -1.
         25    2    1    2    0    0  0.68724407952E+02  0.11532311819E+03 -0.22046748074E+03  0.28683837562E+03  0.12509147783E+03 0.  0.
         23    2    1    2    0    0 -0.68724407952E+02 -0.11532311819E+03 -0.19474809318E+03  0.25393277419E+03  0.92371901432E+02 0.  0.
          5    1    3    3  502    0  0.45847125800E+02  0.13149967639E+03 -0.21757649905E+03  0.25836239892E+03  0.41800000000E+01 0.  1.
         -5    1    3    3    0  502  0.22877282152E+02 -0.16176558204E+02 -0.28909816943E+01  0.28475976702E+02  0.41800000000E+01 0.  1.
        -11    1    4    4    0    0 -0.65033854486E+02 -0.20905156304E+02 -0.76266797469E+02  0.10238677740E+03  0.00000000000E+00 0.  1.
         11    1    4    4    0    0 -0.36905534657E+01 -0.94417961882E+02 -0.11848129571E+03  0.15154599679E+03  0.00000000000E+00 0. -1.
</event>
<event>
 8    1  0.6840084E-009  0.7483334E+02  0.7561462E-02  0.1344388E+00
          1   -1    0    0  501    0  0.00000000000E+00  0.00000000000E+00  0.41053314205E+03  0.41053314205E+03  0.00000000000E+00 0. -1.
         -1   -1    0    0    0  501 -0.00000000000E+00 -0.00000000000E+00 -0.30020770789E+02  0.30020770789E+02  0.00000000000E+00 0.  1.
         25    2    1    2    0    0 -0.18951452458E+02 -0.22308729516E+02  0.24475218459E+03  0.27641962091E+03  0.12508932008E+03 0.  0.
         23    2    1    2    0    0  0.18951452458E+02  0.22308729516E+02  0.13576018667E+03  0.16413429193E+03  0.87478000321E+02 0.  0.
          5    1    3    3  502    0 -0.35394702361E+01  0.28021937283E+02  0.21278862664E+03  0.21469566565E+03  0.41800000000E+01 0. -1.
         -5    1    3    3    0  502 -0.15411982221E+02 -0.50330666799E+02  0.31963557948E+02  0.61723955262E+02  0.41800000000E+01 0. -1.
        -11    1    4    4    0    0 -0.11342959033E+02  0.33997691774E+02  0.14602261142E+02  0.38700539996E+02  0.00000000000E+00 0.  1.
         11    1    4    4    0    0  0.30294411490E+02 -0.11688962258E+02  0.12115792553E+03  0.12543375194E+03  0.00000000000E+00 0. -1.
</event>
<event>
 8    1  0.6840084E-009  0.3152141E+03  0.7561462E-02  0.1077873E+00
          3   -1    0    0  501    0  0.00000000000E+00  0.00000000000E+00  0.15282361892E+04  0.15282361892E+04  0.00000000000E+00 0. -1.
         -3   -1    0    0    0  501 -0.00000000000E+00 -0.00000000000E+00 -0.77438669699E+02  0.77438669699E+02  0.00000000000E+00 0.  1.
         25    2    1    2    0    0 -0.27306104012E+03 -0.14888614554E+03  0.97020731143E+03  0.10264882841E+04  0.12508618715E+03 0.  0.
         23    2    1    2    0    0  0.27306104012E+03  0.14888614554E+03  0.48059020812E+03  0.57918657488E+03  0.88094973820E+02 0.  0.
          5    1    3    3  502    0 -0.21227443533E+03 -0.83757806145E+02  0.82579459679E+03  0.85675550449E+03  0.41800000000E+01 0.  1.
         -5    1    3    3    0  502 -0.60786604793E+02 -0.65128339395E+02  0.14441271464E+03  0.16973277958E+03  0.41800000000E+01 0.  1.
        -11    1    4    4    0    0  0.22667356687E+03  0.10765353186E+03  0.43495305485E+03  0.50214972743E+03  0.00000000000E+00 0. -1.
         11    1    4    4    0    0  0.46387473253E+02  0.41232613679E+02  0.45637153273E+02  0.77036847446E+02  0.00000000000E+00 0.  1.
</event>
<event>
 8    1  0.6840084E-009  0.8820598E+02  0.7561462E-02  0.1307255E+00
          1   -1    0    0  501    0  0.00000000000E+00  0.00000000000E+00  0.53389524380E+02  0.53389524380E+02  0.00000000000E+00 0. -1.
         -1   -1    0    0    0  501 -0.00000000000E+00 -0.00000000000E+00 -0.29407157132E+03  0.29407157132E+03  0.00000000000E+00 0.  1.
         25    2    1    2    0    0 -0.22192501907E+02 -0.18585017117E+02 -0.20483236212E+03  0.24174638898E+03  0.12508840878E+03 0.  0.
         23    2    1    2    0    0  0.22192501907E+02  0.18585017117E+02 -0.35849684812E+02  0.10571470671E+03  0.95144570584E+02 0.  0.
          5    1    3    3  502    0 -0.50404214647E+02  0.38252149525E+02 -0.84543050727E+02  0.10568259849E+03  0.41800000000E+01 0.  1.
         -5    1    3    3    0  502  0.28211712740E+02 -0.56837166641E+02 -0.12028931140E+03  0.13606379049E+03  0.41800000000E+01 0.  1.
        -11    1    4    4    0    0  0.27412789570E+02  0.27656911173E+02 -0.64427063596E+02  0.75280889283E+02  0.00000000000E+00 0.  1.
         11    1    4    4    0    0 -0.52202876634E+01 -0.90718940561E+01  0.28577378784E+02  0.30433817427E+02  0.00000000000E+00 0. -1.
</event>
<event>
 8    1  0.6840084E-009  0.6559781E+02  0.7561462E-02  0.1375737E+00
          1   -1    0    0  501    0  0.00000000000E+00  0.00000000000E+00  0.12109151423E+03  0.12109151423E+03  0.00000000000E+00 0.  1.
         -1   -1    0    0    0  501 -0.00000000000E+00 -0.00000000000E+00 -0.13913647815E+03  0.13913647815E+03  0.00000000000E+00 0. -1.
         25    2    1    2    0    0 -0.43391909774E+00  0.31154353108E+02  0.53693448694E+02  0.13964698673E+03  0.12509001746E+03 0.  0.
         23    2    1    2    0    0  0.43391909774E+00 -0.31154353108E+02 -0.71738412613E+02  0.12058100564E+03  0.91774708245E+02 0.  0.
          5    1    3    3  502    0 -0.83533065241E-01  0.33797196152E+02  0.93512521337E+02  0.99520457657E+02  0.41800000000E+01 0. -1.
         -5    1    3    3    0  502 -0.35038603250E+00 -0.26428430434E+01 -0.39819072643E+02  0.40126529078E+02  0.41800000000E+01 0. -1.
        -11    1    4    4    0    0 -0.43109359354E+02 -0.13218337997E+02 -0.16551263668E+02  0.48032131457E+02  0.00000000000E+00 0.  1.
         11    1    4    4    0    0  0.43543278452E+02 -0.17936015112E+02 -0.55187148945E+02  0.72548874182E+02  0.00000000000E+00 0. -1.
</event>
<event>
 8    1  0.6840084E-009  0.1476980E+03  0.7561462E-02  0.1203331E+00
          2   -1    0    0  501    0  0.00000000000E+00  0.00000000000E+00  0.74015503346E+03  0.74015503346E+03  0.00000000000E+00 0. -1.
         -2   -1    0    0    0  501 -0.00000000000E+00 -0.00000000000E+00 -0.43139898183E+02  0.43139898183E+02  0.00000000000E+00 0.  1.
         25    2    1    2    0    0  0.96445165030E+02  0.51126318480E+02  0.17069578914E+03  0.23811865552E+03  0.12509145207E+03 0.  0.
         23    2    1    2    0    0 -0.96445165030E+02 -0.51126318480E+02  0.52631934614E+03  0.54517627612E+03  0.91046952854E+02 0.  0.
          5    1    3    3  502    0 -0.20785263353E+02 -0.81170070214E+01  0.87245428656E-02  0.22702102364E+02  0.41800000000E+01 0. -1.
         -5    1    3    3    0  502  0.11723042838E+03  0.59243325501E+02  0.17068706460E+03  0.21541655316E+03  0.41800000000E+01 0. -1.
        -11    1    4    4    0    0  0.12213372248E+01 -0.43279293885E+02  0.13478994525E+03  0.14157301397E+03  0.00000000000E+00 0.  1.
         11    1    4    4    0    0 -0.97666502255E+02 -0.78470245948E+01  0.39152940089E+03  0.40360326215E+03  0.00000000000E+00 0. -1.
</event>
<event>
 8    1  0.6840084E-009  0.1030746E+03  0.7561462E-02  0.1273960E+00
          2   -1    0    0  501    0  0.00000000000E+00  0.00000000000E+00  0.56624587374E+03  0.56624587374E+03  0.00000000000E+00 0. -1.
         -2   -1    0    0    0  501 -0.00000000000E+00 -0.00000000000E+00 -0.32469281805E+02  0.32469281805E+02  0.00000000000E+00 0.  1.
         25    2    1    2    0    0  0.97599384894E+01  0.65505545159E+01  0.46269106104E+03  0.47944720925E+03  0.12509373418E+03 0.  0.
         23    2    1    2    0    0 -0.97599384894E+01 -0.65505545159E+01  0.71085530899E+02  0.11926794630E+03  0.95044853343E+02 0.  0.
          5    1    3    3  502    0 -0.26722244716E+02  0.49021286263E+02  0.33923690055E+03  0.34382599082E+03  0.41800000000E+01 0.  1.
         -5    1    3    3    0  502  0.36482183206E+02 -0.42470731747E+02  0.12345416049E+03  0.13562121843E+03  0.41800000000E+01 0.  1.
        -11    1    4    4    0    0  0.32986798823E+01 -0.49252613132E+02  0.25918134326E+02  0.55753483086E+02  0.00000000000E+00 0.  1.
         11    1    4    4    0    0 -0.13058618372E+02  0.42702058616E+02  0.45167396573E+02  0.63514463211E+02  0.00000000000E+00 0. -1.
</event>
<event>
 8    1  0.6840084E-009  0.1046669E+03  0.7561462E-02  0.1270777E+00
         -2   -1    0    0    0  501 -0.00000000000E+00  0.00000000000E+00  0.21875061344E+02  0.21875061344E+02  0.00000000000E+00 0.  1.
          2   -1    0    0  501    0  0.00000000000E+00 -0.00000000000E+00 -0.68624286657E+03  0.68624286657E+03  0.00000000000E+00 0. -1.
         25    2    1    2    0    0  0.50375950852E+02 -0.10667949873E+01 -0.31601290012E+03  0.34358529428E+03  0.12509127439E+03 0.  0.
         23    2    1    2    0    0 -0.50375950852E+02  0.10667949873E+01 -0.34835490510E+03  0.36453263363E+03  0.94836841974E+02 0.  0.
          5    1    3    3  502    0 -0.19956667355E+02  0.21693900544E+02 -0.14501650951E+02  0.33115920236E+02  0.41800000000E+01 0. -1.
         -5    1    3    3    0  502  0.70332618207E+02 -0.22760695532E+02 -0.30151124917E+03  0.31046937405E+03  0.41800000000E+01 0. -1.
        -11    1    4    4    0    0  0.62020226375E+01 -0.36878100871E+02 -0.15766949159E+03  0.16204359903E+03  0.00000000000E+00 0.  1.
         11    1    4    4    0    0 -0.56577973489E+02  0.37944895859E+02 -0.19068541351E+03  0.20248903460E+03  0.00000000000E+00 0. -1.
</event>
<event>
 8    1  0.6840084E-009  0.9202548E+02  0.7561462E-02  0.1298020E+00
         -1   -1    0    0    0  501 -0.00000000000E+00  0.00000000000E+00  0.10016753516E+03  0.10016753516E+03  0.00000000000E+00 0.  1.
          1   -1    0    0  501    0  0.00000000000E+00 -0.00000000000E+00 -0.19320186721E+03  0.19320186721E+03  0.00000000000E+00 0. -1.
         25    2    1    2    0    0 -0.67205511887E+02 -0.37747312891E+01  0.48474467560E+01  0.14213300177E+03  0.12508981984E+03 0.  0.
         23    2    1    2    0    0  0.67205511887E+02  0.37747312891E+01 -0.97881778809E+02  0.15123640059E+03  0.93599021456E+02 0.  0.
          5    1    3    3  502    0  0.70316245903E+01  0.19954662859E+02 -0.44737777882E+02  0.49664609976E+02  0.41800000000E+01 0. -1.
         -5    1    3    3    0  502 -0.74237136477E+02 -0.23729394148E+02  0.49585224638E+02  0.92468391797E+02  0.41800000000E+01 0. -1.
        -11    1    4    4    0    0  0.14992997715E+02  0.24119025932E+02  0.96383964821E+01  0.29990266407E+02  0.00000000000E+00 0.  1.
         11    1    4    4    0    0  0.52212514172E+02 -0.20344294643E+02 -0.10752017529E+03  0.12124613419E+03  0.00000000000E+00 0. -1.
</event>
<event>
 8    1  0.6840084E-009  0.1876243E+03  0.7561462E-02  0.1160622E+00
         -1   -1    0    0    0  501 -0.00000000000E+00  0.00000000000E+00  0.81947768331E+02  0.81947768331E+02  0.00000000000E+00 0.  1.
          1   -1    0    0  501    0  0.00000000000E+00 -0.00000000000E+00 -0.55782231796E+03  0.55782231796E+03  0.00000000000E+00 0. -1.
         25    2    1    2    0    0 -0.14854888306E+03  0.98952438632E+02 -0.18129135322E+03  0.28350103917E+03  0.12509168114E+03 0.  0.
         23    2    1    2    0    0  0.14854888306E+03 -0.98952438632E+02 -0.29458319641E+03  0.35626904712E+03  0.91049539046E+02 0.  0.
          5    1    3    3  502    0 -0.72141159097E+01  0.13110586285E+02  0.18474817449E+02  0.24139640032E+02  0.41800000000E+01 0. -1.
         -5    1    3    3    0  502 -0.14133476715E+03  0.85841852347E+02 -0.19976617067E+03  0.25936139914E+03  0.41800000000E+01 0. -1.
        -11    1    4    4    0    0  0.51702864530E+02 -0.80554370508E+02 -0.18877426272E+03  0.21165517965E+03  0.00000000000E+00 0. -1.
         11    1    4    4    0    0  0.96846018528E+02 -0.18398068124E+02 -0.10580893369E+03  0.14461386747E+03  0.00000000000E+00 0.  1.
</event>
<event>
 8    1  0.6840084E-009  0.1178974E+03  0.7561462E-02  0.1246607E+00
         -1   -1    0    0    0  501 -0.00000000000E+00  0.00000000000E+00  0.98242027726E+02  0.98242027726E+02  0.00000000000E+00 0. -1.
          1   -1    0    0  501    0  0.00000000000E+00 -0.00000000000E+00 -0.20993529677E+03  0.20993529677E+03  0.00000000000E+00 0.  1.
         25    2    1    2    0    0  0.60555355014E+02  0.13043482451E+02 -0.13552207373E+03  0.19455081543E+03  0.12508678531E+03 0.  0.
         23    2    1    2    0    0 -0.60555355014E+02 -0.13043482451E+02  0.23828804695E+02  0.11362650906E+03  0.92228456420E+02 0.  0.
          5    1    3    3  502    0  0.41228491930E+02  0.64275419797E+02 -0.11005494886E+03  0.13401747015E+03  0.41800000000E+01 0. -1.
         -5    1    3    3    0  502  0.19326863084E+02 -0.51231937347E+02 -0.25467124872E+02  0.60533345275E+02  0.41800000000E+01 0. -1.
        -11    1    4    4    0    0 -0.33700467329E+02  0.35486239828E+02  0.30649465973E+02  0.57744129397E+02  0.00000000000E+00 0. -1.
         11    1    4    4    0    0 -0.26854887685E+02 -0.48529722279E+02 -0.68206612782E+01  0.55882379668E+02  0.00000000000E+00 0.  1.
</event>
<event>
 8    1  0.6840084E-009  0.1415402E+03  0.7561462E-02  0.1211271E+00
         -2   -1    0    0    0  501 -0.00000000000E+00  0.00000000000E+00  0.35257419699E+02  0.35257419699E+02  0.00000000000E+00 0. -1.
          2   -1    0    0  501    0  0.00000000000E+00 -0.00000000000E+00 -0.59391677093E+03  0.59391677093E+03  0.00000000000E+00 0.  1.
         25    2    1    2    0    0 -0.44763366588E+02 -0.80498694434E+02 -0.36381125138E+03  0.39558726425E+03  0.12508740227E+03 0.  0.
         23    2    1    2    0    0  0.44763366588E+02  0.80498694434E+02 -0.19484809985E+03  0.23358692638E+03  0.90073699656E+02 0.  0.
          5    1    3    3  502    0  0.43584159193E+02 -0.25666651352E+02 -0.10444330087E+03  0.11612162340E+03  0.41800000000E+01 0. -1.
         -5    1    3    3    0  502 -0.88347525780E+02 -0.54832043082E+02 -0.25936795051E+03  0.27946564085E+03  0.41800000000E+01 0. -1.
        -11    1    4    4    0    0  0.43837503215E+01  0.87218679065E+02 -0.12215298897E+03  0.15015880913E+03  0.00000000000E+00 0.  1.
         11    1    4    4    0    0  0.40379616266E+02 -0.67199846312E+01 -0.72695110880E+02  0.83428117257E+02  0.00000000000E+00 0. -1.
</event>
<event>
 8    1  0.6840084E-009  0.9789369E+02  0.7561462E-02  0.1284789E+00
          2   -1    0    0  501    0  0.00000000000E+00  0.00000000000E+00  0.27267418938E+03  0.27267418938E+03  0.00000000000E+00 0. -1.
         -2   -1    0    0    0  501 -0.00000000000E+00 -0.00000000000E+00 -0.99383418223E+02  0.99383418223E+02  0.00000000000E+00 0.  1.
         25    2    1    2    0    0  0.36738430534E+02 -0.75747939804E+02  0.19276661760E+03  0.24473139261E+03  0.12508806101E+03 0.  0.
         23    2    1    2    0    0 -0.36738430534E+02  0.75747939804E+02 -0.19475846445E+02  0.12732621499E+03  0.93515740734E+02 0.  0.
          5    1    3    3  502    0  0.51221930972E+02 -0.68925514126E+02  0.20620783418E+03  0.22341341944E+03  0.41800000000E+01 0. -1.
         -5    1    3    3    0  502 -0.14483500438E+02 -0.68224256778E+01 -0.13441216579E+02  0.21317973173E+02  0.41800000000E+01 0. -1.
        -11    1    4    4    0    0 -0.41795879817E+02  0.42405628079E+02  0.30607335053E+02  0.66947306305E+02  0.00000000000E+00 0. -1.
         11    1    4    4    0    0  0.50574492839E+01  0.33342311725E+02 -0.50083181498E+02  0.60378908680E+02  0.00000000000E+00 0.  1.
</event>
<event>
 8    1  0.6840084E-009  0.1062755E+03  0.7561462E-02  0.1267627E+00
         -1   -1    0    0    0  501 -0.00000000000E+00  0.00000000000E+00  0.66342245027E+02  0.66342245027E+02  0.00000000000E+00 0.  1.
          1   -1    0    0  501    0  0.00000000000E+00 -0.00000000000E+00 -0.24618337389E+03  0.24618337389E+03  0.00000000000E+00 0. -1.
         25    2    1    2    0    0  0.90738030745E+01  0.67177275806E+02 -0.90547542338E+02  0.16864185072E+03  0.12508435595E+03 0.  0.
         23    2    1    2    0    0 -0.90738030745E+01 -0.67177275806E+02 -0.89293586527E+02  0.14388376820E+03  0.90189100619E+02 0.  0.
          5    1    3    3  502    0  0.34704153818E+02  0.72288641809E+02 -0.65384242670E+01  0.80562084250E+02  0.41800000000E+01 0.  1.
         -5    1    3    3    0  502 -0.25630350743E+02 -0.51113660026E+01 -0.84009118071E+02  0.88079766466E+02  0.41800000000E+01 0.  1.
        -11    1    4    4    0    0  0.32793364537E+02 -0.51554394026E+02 -0.25994362017E+02  0.66400053898E+02  0.00000000000E+00 0.  1.
         11    1    4    4    0    0 -0.41867167611E+02 -0.15622881781E+02 -0.63299224510E+02  0.77483714305E+02  0.00000000000E+00 0. -1.
</event>
<event>
 8    1  0.6840084E-009  0.1376136E+03  0.7561462E-02  0.1216577E+00
          2   -1    0    0  501    0  0.00000000000E+00  0.00000000000E+00  0.31710663016E+03  0.31710663016E+03  0.00000000000E+00 0. -1.
         -2   -1    0    0    0  501 -0.00000000000E+00 -0.00000000000E+00 -0.78453472095E+02  0.78453472095E+02  0.00000000000E+00 0.  1.
         25    2    1    2    0    0 -0.24163852680E+02  0.10865995827E+03  0.94567820281E+02  0.19230838033E+03  0.12509421331E+03 0.  0.
         23    2    1    2    0    0  0.24163852680E+02 -0.10865995827E+03  0.14408533779E+03  0.20325172193E+03  0.90331609050E+02 0.  0.
          5    1    3    3  502    0 -0.54266591222E+02  0.16000772934E+02  0.72971774264E+02  0.92429648363E+02  0.41800000000E+01 0.  1.
         -5    1    3    3    0  502  0.30102738542E+02  0.92659185339E+02  0.21596046018E+02  0.99878731966E+02  0.41800000000E+01 0.  1.
        -11    1    4    4    0    0 -0.12591727525E+01 -0.88567351391E+02  0.45706805097E+02  0.99673834483E+02  0.00000000000E+00 0.  1.
         11    1    4    4    0    0  0.25423025433E+02 -0.20092606883E+02  0.98378532689E+02  0.10357788745E+03  0.00000000000E+00 0. -1.
</event>
<event>
 8    1  0.6840084E-009  0.3277624E+03  0.7561462E-02  0.1072131E+00
         -2   -1    0    0    0  501 -0.00000000000E+00  0.00000000000E+00  0.15230488033E+03  0.15230488033E+03  0.00000000000E+00 0.  1.
          2   -1    0    0  501    0  0.00000000000E+00 -0.00000000000E+00 -0.80847460156E+03  0.80847460156E+03  0.00000000000E+00 0. -1.
         25    2    1    2    0    0  0.24926999333E+03  0.19453555622E+03 -0.18926431702E+03  0.38916334094E+03  0.12509001572E+03 0.  0.
         23    2    1    2    0    0 -0.24926999333E+03 -0.19453555622E+03 -0.46690540421E+03  0.57161614095E+03  0.93620211002E+02 0.  0.
          5    1    3    3  502    0  0.16362301173E+03  0.58192948692E+02 -0.64026680746E+02  0.18513723962E+03  0.41800000000E+01 0.  1.
         -5    1    3    3    0  502  0.85646981594E+02  0.13634260753E+03 -0.12523763627E+03  0.20402610132E+03  0.41800000000E+01 0.  1.
        -11    1    4    4    0    0 -0.12740584172E+01 -0.13849089612E+02 -0.62234787401E+02  0.63769814730E+02  0.00000000000E+00 0. -1.
         11    1    4    4    0    0 -0.24799593491E+03 -0.18068646660E+03 -0.40467061681E+03  0.50784632622E+03  0.00000000000E+00 0.  1.
</event>
<event>
 8    1  0.6840084E-009  0.9562108E+02  0.7561462E-02  0.1289783E+00
         -1   -1    0    0    0  501 -0.00000000000E+00  0.00000000000E+00  0.10089642989E+03  0.10089642989E+03  0.00000000000E+00 0.  1.
          1   -1    0    0  501    0  0.00000000000E+00 -0.00000000000E+00 -0.13652294587E+03  0.13652294587E+03  0.00000000000E+00 0. -1.
         25    2    1    2    0    0  0.10875640568E+02 -0.28498107983E+02 -0.55187994769E+02  0.14008955699E+03  0.12509575331E+03 0.  0.
         23    2    1    2    0    0 -0.10875640568E+02  0.28498107983E+02  0.19561478786E+02  0.97329818764E+02  0.90332831529E+02 0.  0.
          5    1    3    3  502    0  0.68937608422E+01  0.40378442880E+02  0.12818590182E+02  0.43124601357E+02  0.41800000000E+01 0. -1.
         -5    1    3    3    0  502  0.39818797257E+01 -0.68876550863E+02 -0.68006584952E+02  0.96964955637E+02  0.41800000000E+01 0. -1.
        -11    1    4    4    0    0  0.31401843829E+02  0.29234007821E+01  0.33480930896E+02  0.45995595459E+02  0.00000000000E+00 0.  1.
         11    1    4    4    0    0 -0.42277484397E+02  0.25574707201E+02 -0.13919452110E+02  0.51334223305E+02  0.00000000000E+00 0. -1.
</event>
<event>
 8    1  0.6840084E-009  0.5674987E+02  0.7561462E-02  0.1412000E+00
          2   -1    0    0  501    0  0.00000000000E+00  0.00000000000E+00  0.93106740234E+02  0.93106740234E+02  0.00000000000E+00 0. -1.
         -2   -1    0    0    0  501 -0.00000000000E+00 -0.00000000000E+00 -0.15849746539E+03  0.15849746539E+03  0.00000000000E+00 0.  1.
         25    2    1    2    0    0  0.54596439481E+02  0.11068799094E+02 -0.32007542200E+02  0.14062532688E+03  0.12509080815E+03 0.  0.
         23    2    1    2    0    0 -0.54596439481E+02 -0.11068799094E+02 -0.33383182958E+02  0.11097887875E+03  0.89992139137E+02 0.  0.
          5    1    3    3  502    0  0.94463080228E+01  0.36324566237E+01  0.47526911094E+02  0.48771991496E+02  0.41800000000E+01 0. -1.
         -5    1    3    3    0  502  0.45150131458E+02  0.74363424706E+01 -0.79534453294E+02  0.91853335382E+02  0.41800000000E+01 0. -1.
        -11    1    4    4    0    0 -0.36548305576E+02 -0.12164559604E+02 -0.64420770549E+02  0.75058582647E+02  0.00000000000E+00 0.  1.
         11    1    4    4    0    0 -0.18048133905E+02  0.10957605101E+01  0.31037587591E+02  0.35920296102E+02  0.00000000000E+00 0. -1.
</event>
<event>
 8    1  0.6840084E-009  0.1479828E+03  0.7561462E-02  0.1202974E+00
         -2   -1    0    0    0  501 -0.00000000000E+00  0.00000000000E+00  0.22422501821E+03  0.22422501821E+03  0.00000000000E+00 0. -1.
          2   -1    0    0  501    0  0.00000000000E+00 -0.00000000000E+00 -0.10795665295E+03  0.10795665295E+03  0.00000000000E+00 0.  1.
         25    2    1    2    0    0 -0.10365955562E+03 -0.15804481168E+02  0.10262828584E+03  0.19280888539E+03  0.12509043183E+03 0.  0.
         23    2    1    2    0    0  0.10365955562E+03  0.15804481168E+02  0.13640079421E+02  0.13937278577E+03  0.90794474223E+02 0.  0.
          5    1    3    3  502    0 -0.10114377461E+03  0.34451867072E+02  0.44524649124E+02  0.11583139068E+03  0.41800000000E+01 0. -1.
         -5    1    3    3    0  502 -0.25157810107E+01 -0.50256348241E+02  0.58103636717E+02  0.76977494713E+02  0.41800000000E+01 0. -1.
        -11    1    4    4    0    0  0.10923004095E+03 -0.12271947414E+02  0.80779690353E+01  0.11021368392E+03  0.00000000000E+00 0. -1.
         11    1    4    4    0    0 -0.55704853280E+01  0.28076428582E+02  0.55621103862E+01  0.29159101850E+02  0.00000000000E+00 0.  1.
</event>
<event>
 8    1  0.6840084E-009  0.1327666E+03  0.7561462E-02  0.1223407E+00
         -2   -1    0    0    0  501 -0.00000000000E+00  0.00000000000E+00  0.33636529874E+02  0.33636529874E+02  0.00000000000E+00 0. -1.
          2   -1    0    0  501    0  0.00000000000E+00 -0.00000000000E+00 -0.58523646168E+03  0.58523646168E+03  0.00000000000E+00 0.  1.
         25    2    1    2    0    0 -0.77781609806E+02 -0.53084728512E+02 -0.24941503085E+03  0.29448873468E+03  0.12509112684E+03 0.  0.
         23    2    1    2    0    0  0.77781609806E+02  0.53084728512E+02 -0.30218490096E+03  0.32438425688E+03  0.71003271161E+02 0.  0.
          5    1    3    3  502    0 -0.21887396205E+02 -0.82988250829E+02 -0.18517946471E+03  0.20414459199E+03  0.41800000000E+01 0. -1.
         -5    1    3    3    0  502 -0.55894213602E+02  0.29903522317E+02 -0.64235566132E+02  0.90344142685E+02  0.41800000000E+01 0. -1.
        -11    1    4    4    0    0  0.58591676330E+02 -0.10923101274E+01 -0.12381396152E+03  0.13698202343E+03  0.00000000000E+00 0.  1.
         11    1    4    4    0    0  0.19189933477E+02  0.54177038639E+02 -0.17837093945E+03  0.18740223345E+03  0.00000000000E+00 0. -1.
</event>
<event>
 8    1  0.6840084E-009  0.1408257E+03  0.7561462E-02  0.1212222E+00
          2   -1    0    0  501    0  0.00000000000E+00  0.00000000000E+00  0.99192561688E+03  0.99192561688E+03  0.00000000000E+00 0.  1.
         -2   -1    0    0    0  501 -0.00000000000E+00 -0.00000000000E+00 -0.28225094930E+02  0.28225094930E+02  0.00000000000E+00 0. -1.
         25    2    1    2    0    0 -0.29205180276E+02  0.11658581902E+03  0.57405051160E+03  0.59968918586E+03  0.12509170246E+03 0.  0.
         23    2    1    2    0    0  0.29205180276E+02 -0.11658581902E+03  0.38965001035E+03  0.42046152594E+03  0.10254544594E+03 0.  0.
          5    1    3    3  502    0  0.67235655535E+01  0.54396520766E+02  0.46991275739E+03  0.47311696203E+03  0.41800000000E+01 0. -1.
         -5    1    3    3    0  502 -0.35928745829E+02  0.62189298251E+02  0.10413775421E+03  0.12657222383E+03  0.41800000000E+01 0. -1.
        -11    1    4    4    0    0 -0.36124901727E+02 -0.36033006196E+02  0.91183269601E+02  0.10448815586E+03  0.00000000000E+00 0. -1.
         11    1    4    4    0    0  0.65330082003E+02 -0.80552812822E+02  0.29846674075E+03  0.31597337008E+03  0.00000000000E+00 0.  1.
</event>
<event>
 7    1  0.6840084E-009  0.1377612E+03  0.7561462E-02  0.1216374E+00
         -2   -1    0    0    0  501 -0.00000000000E+00  0.00000000000E+00  0.61103406826E+02  0.61103406826E+02  0.00000000000E+00 0.  1.
          2   -1    0    0  501    0  0.00000000000E+00 -0.00000000000E+00 -0.40427499663E+03  0.40427499663E+03  0.00000000000E+00 0. -1.
         25    2    1    2    0    0 -0.58165232781E+02 -0.39632845178E+02 -0.82533511328E+02  0.16557117559E+03  0.12509227384E+03 0.  0.
          5    1    3    3  502    0 -0.27289695286E+02  0.36896833171E+02 -0.67275933702E+02  0.81545247699E+02  0.41800000000E+01 0.  1.
         -5    1    3    3    0  502 -0.30875537495E+02 -0.76529678349E+02 -0.15257577626E+02  0.84025927896E+02  0.41800000000E+01 0.  1.
        -11    1    1    2    0    0 -0.41597048830E+02  0.11895919360E+02 -0.59326462254E+02  0.73426538066E+02  0.00000000000E+00 0.  1.
         11    1    1    2    0    0  0.99762281611E+02  0.27736925817E+02 -0.20131161622E+03  0.22638068979E+03  0.00000000000E+00 0. -1.
</event>
<event>
 8    1  0.6840084E-009  0.1417581E+03  0.7561462E-02  0.1210983E+00
          2   -1    0    0  501    0  0.00000000000E+00  0.00000000000E+00  0.23833375665E+03  0.23833375665E+03  0.00000000000E+00 0. -1.
         -2   -1    0    0    0  501 -0.00000000000E+00 -0.00000000000E+00 -0.14931443238E+03  0.14931443238E+03  0.00000000000E+00 0.  1.
         25    2    1    2    0    0 -0.96148770583E+02 -0.35707625314E+02 -0.71177565696E+02  0.17672937511E+03  0.12508959020E+03 0.  0.
         23    2    1    2    0    0  0.96148770583E+02  0.35707625314E+02  0.16019688997E+03  0.21091881392E+03  0.91126735494E+02 0.  0.
          5    1    3    3  502    0 -0.36791220305E+02  0.44338176438E+02 -0.46043185196E+02  0.73870935316E+02  0.41800000000E+01 0. -1.
         -5    1    3    3    0  502 -0.59357550278E+02 -0.80045801752E+02 -0.25134380500E+02  0.10285843979E+03  0.41800000000E+01 0. -1.
        -11    1    4    4    0    0  0.36986347112E+02  0.52765255327E+02  0.39928353084E+02  0.75805246668E+02  0.00000000000E+00 0.  1.
         11    1    4    4    0    0  0.59162423470E+02 -0.17057630013E+02  0.12026853688E+03  0.13511356726E+03  0.00000000000E+00 0. -1.
</event>
<event>
 8    1  0.6840084E-009  0.1070697E+03  0.7561462E-02  0.1266095E+00
          2   -1    0    0  501    0  0.00000000000E+00  0.00000000000E+00  0.70376297985E+03  0.70376297985E+03  0.00000000000E+00 0. -1.
         -2   -1    0    0    0  501 -0.00000000000E+00 -0.00000000000E+00 -0.16647137157E+02  0.16647137157E+02  0.00000000000E+00 0.  1.
         25    2    1    2    0    0  0.71400188726E-01 -0.57202551700E+01  0.38381638798E+03  0.40372704785E+03  0.12509109905E+03 0.  0.
         23    2    1    2    0    0 -0.71400188726E-01  0.57202551700E+01  0.30329945471E+03  0.31668306916E+03  0.90911388995E+02 0.  0.
          5    1    3    3  502    0  0.18165287302E+02 -0.62292790744E+02  0.17962290460E+03  0.19102939486E+03  0.41800000000E+01 0.  1.
         -5    1    3    3    0  502 -0.18093887113E+02  0.56572535574E+02  0.20419348338E+03  0.21269765299E+03  0.41800000000E+01 0.  1.
        -11    1    4    4    0    0 -0.81584199543E+01 -0.41181132967E+02  0.11374706352E+03  0.12124702053E+03  0.00000000000E+00 0. -1.
         11    1    4    4    0    0  0.80870197656E+01  0.46901388137E+02  0.18955239119E+03  0.19543604863E+03  0.00000000000E+00 0.  1.
</event>
<event>
 8    1  0.6840084E-009  0.1662598E+03  0.7561462E-02  0.1181805E+00
         -2   -1    0    0    0  501 -0.00000000000E+00  0.00000000000E+00  0.46343621044E+02  0.46343621044E+02  0.00000000000E+00 0.  1.
          2   -1    0    0  501    0  0.00000000000E+00 -0.00000000000E+00 -0.84376110290E+03  0.84376110290E+03  0.00000000000E+00 0. -1.
         25    2    1    2    0    0 -0.64766607944E+02  0.14178956686E+03 -0.54323586133E+03  0.57883630558E+03  0.12508905968E+03 0.  0.
         23    2    1    2    0    0  0.64766607944E+02 -0.14178956686E+03 -0.25418162052E+03  0.31126841836E+03  0.89334972333E+02 0.  0.
          5    1    3    3  502    0 -0.73734692434E+02  0.10567525020E+03 -0.51770241407E+03  0.53351412849E+03  0.41800000000E+01 0. -1.
         -5    1    3    3    0  502  0.89680844897E+01  0.36114316655E+02 -0.25533447266E+02  0.45322177090E+02  0.41800000000E+01 0. -1.
        -11    1    4    4    0    0  0.55102867352E+02 -0.51751012011E+02 -0.17631970616E+03  0.19184142413E+03  0.00000000000E+00 0. -1.
         11    1    4    4    0    0  0.96637405927E+01 -0.90038554845E+02 -0.77861914369E+02  0.11942699423E+03  0.00000000000E+00 0.  1.
</event>
<event>
 8    1  0.6840084E-009  0.1204908E+03  0.7561462E-02  0.1242290E+00
         -2   -1    0    0    0  501 -0.00000000000E+00  0.00000000000E+00  0.97245469322E+02  0.97245469322E+02  0.00000000000E+00 0.  1.
          2   -1    0    0  501    0  0.00000000000E+00 -0.00000000000E+00 -0.31236695489E+03  0.31236695489E+03  0.00000000000E+00 0. -1.
         25    2    1    2    0    0 -0.49125696922E+02 -0.29788253813E+02  0.30753567731E+02  0.14104803898E+03  0.12509233873E+03 0.  0.
         23    2    1    2    0    0  0.49125696922E+02  0.29788253813E+02 -0.24587505329E+03  0.26856438523E+03  0.91496519157E+02 0.  0.
          5    1    3    3  502    0 -0.53412529817E+02  0.39155318633E+02  0.28166120866E+01  0.66418694825E+02  0.41800000000E+01 0. -1.
         -5    1    3    3    0  502  0.42868328948E+01 -0.68943572446E+02  0.27936955644E+02  0.74629344152E+02  0.41800000000E+01 0. -1.
        -11    1    4    4    0    0 -0.16346607559E+01 -0.28260375694E+02 -0.94965964720E+02  0.99095183563E+02  0.00000000000E+00 0.  1.
         11    1    4    4    0    0  0.50760357678E+02  0.58048629507E+02 -0.15090908858E+03  0.16946920167E+03  0.00000000000E+00 0. -1.
</event>
<event>
 8    1  0.6840084E-009  0.1063502E+03  0.7561462E-02  0.1267482E+00
         -1   -1    0    0    0  501 -0.00000000000E+00  0.00000000000E+00  0.27629628557E+02  0.27629628557E+02  0.00000000000E+00 0.  1.
          1   -1    0    0  501    0  0.00000000000E+00 -0.00000000000E+00 -0.49598370888E+03  0.49598370888E+03  0.00000000000E+00 0. -1.
         25    2    1    2    0    0 -0.25769855027E+02  0.27141708474E+02 -0.32807500676E+03  0.35310135350E+03  0.12508636223E+03 0.  0.
         23    2    1    2    0    0  0.25769855027E+02 -0.27141708474E+02 -0.14027907356E+03  0.17051198394E+03  0.89416779294E+02 0.  0.
          5    1    3    3  502    0 -0.56579641384E+02  0.54130221945E+02 -0.27481487328E+03  0.28578317607E+03  0.41800000000E+01 0. -1.
         -5    1    3    3    0  502  0.30809786357E+02 -0.26988513471E+02 -0.53260133483E+02  0.67318177436E+02  0.41800000000E+01 0. -1.
        -11    1    4    4    0    0 -0.21881462324E+02  0.17346985240E+02 -0.66109339581E+02  0.71764622693E+02  0.00000000000E+00 0. -1.
         11    1    4    4    0    0  0.47651317352E+02 -0.44488693714E+02 -0.74169733982E+02  0.98747361244E+02  0.00000000000E+00 0.  1.
</event>
<event>
 8    1  0.6840084E-009  0.9703154E+02  0.7561462E-02  0.1286665E+00
          1   -1    0    0  501    0  0.00000000000E+00  0.00000000000E+00  0.38090679443E+03  0.38090679443E+03  0.00000000000E+00 0. -1.
         -1   -1    0    0    0  501 -0.00000000000E+00 -0.00000000000E+00 -0.39818866720E+02  0.39818866720E+02  0.00000000000E+00 0.  1.
         25    2    1    2    0    0  0.29843133143E+02  0.39510682955E+02  0.14327450229E+03  0.19653971745E+03  0.12509424792E+03 0.  0.
         23    2    1    2    0    0 -0.29843133143E+02 -0.39510682955E+02  0.19781342541E+03  0.22418594370E+03  0.93152989302E+02 0.  0.
          5    1    3    3  502    0  0.76578528137E+02  0.13724879830E+02  0.10489668455E+03  0.13066533636E+03  0.41800000000E+01 0. -1.
         -5    1    3    3    0  502 -0.46735394994E+02  0.25785803125E+02  0.38377817748E+02  0.65874381084E+02  0.41800000000E+01 0. -1.
        -11    1    4    4    0    0  0.49537208256E+01 -0.24014912426E+02  0.18891176866E+01  0.24593172518E+02  0.00000000000E+00 0.  1.
         11    1    4    4    0    0 -0.34796853968E+02 -0.15495770529E+02  0.19592430772E+03  0.19959277118E+03  0.00000000000E+00 0. -1.
</event>
<event>
 8    1  0.6840084E-009  0.1167025E+03  0.7561462E-02  0.1248638E+00
          2   -1    0    0  501    0  0.00000000000E+00  0.00000000000E+00  0.37963829054E+03  0.37963829054E+03  0.00000000000E+00 0. -1.
         -2   -1    0    0    0  501 -0.00000000000E+00 -0.00000000000E+00 -0.46455930205E+02  0.46455930205E+02  0.00000000000E+00 0.  1.
         25    2    1    2    0    0  0.61511226769E+02 -0.32436425025E+02  0.23547618944E+03  0.27555623516E+03  0.12508577160E+03 0.  0.
         23    2    1    2    0    0 -0.61511226769E+02  0.32436425025E+02  0.97706170895E+02  0.15053798558E+03  0.90991409401E+02 0.  0.
          5    1    3    3  502    0 -0.14683033409E+02 -0.59430448434E+02  0.87188522979E+02  0.10661557396E+03  0.41800000000E+01 0. -1.
         -5    1    3    3    0  502  0.76194260178E+02  0.26994023409E+02  0.14828766646E+03  0.16894066120E+03  0.41800000000E+01 0. -1.
        -11    1    4    4    0    0 -0.29354867755E+02 -0.15641442427E+02 -0.40338534102E+01  0.33505745111E+02  0.00000000000E+00 0.  1.
         11    1    4    4    0    0 -0.32156359014E+02  0.48077867452E+02  0.10174002430E+03  0.11703224047E+03  0.00000000000E+00 0. -1.
</event>
<event>
 8    1  0.6840084E-009  0.8973135E+02  0.7561462E-02  0.1303504E+00
          1   -1    0    0  501    0  0.00000000000E+00  0.00000000000E+00  0.22177700313E+03  0.22177700313E+03  0.00000000000E+00 0. -1.
         -1   -1    0    0    0  501 -0.00000000000E+00 -0.00000000000E+00 -0.75891312604E+02  0.75891312604E+02  0.00000000000E+00 0.  1.
         25    2    1    2    0    0 -0.29638561401E+02  0.60639726228E+02  0.11216616103E+03  0.18106353910E+03  0.12508851582E+03 0.  0.
         23    2    1    2    0    0  0.29638561401E+02 -0.60639726228E+02  0.33719529488E+02  0.11660477663E+03  0.88904704857E+02 0.  0.
          5    1    3    3  502    0  0.27918577012E+02  0.22204592999E+02 -0.12818064973E+02  0.38134840792E+02  0.41800000000E+01 0.  1.
         -5    1    3    3    0  502 -0.57557138412E+02  0.38435133229E+02  0.12498422601E+03  0.14292869831E+03  0.41800000000E+01 0.  1.
        -11    1    4    4    0    0 -0.53157593953E+01 -0.19571171188E+02  0.55006350779E+02  0.58625819105E+02  0.00000000000E+00 0. -1.
         11    1    4    4    0    0  0.34954320796E+02 -0.41068555039E+02 -0.21286821291E+02  0.57978957528E+02  0.00000000000E+00 0.  1.
</event>
<event>
 8    1  0.6840084E-009  0.1037027E+03  0.7561462E-02  0.1272697E+00
         -2   -1    0    0    0  501 -0.00000000000E+00  0.00000000000E+00  0.15256239983E+03  0.15256239983E+03  0.00000000000E+00 0. -1.
          2   -1    0    0  501    0  0.00000000000E+00 -0.00000000000E+00 -0.12068906684E+03  0.12068906684E+03  0.00000000000E+00 0.  1.
         25    2    1    2    0    0  0.43457802660E+02  0.66446761319E+02  0.20605915059E+02  0.14958488217E+03  0.12508909040E+03 0.  0.
         23    2    1    2    0    0 -0.43457802660E+02 -0.66446761319E+02  0.11267417931E+02  0.12366658450E+03  0.94142002914E+02 0.  0.
          5    1    3    3  502    0  0.62413374436E+02  0.29769043511E+02  0.60534397401E+02  0.91997341965E+02  0.41800000000E+01 0. -1.
         -5    1    3    3    0  502 -0.18955571776E+02  0.36677717808E+02 -0.39928482342E+02  0.57587540207E+02  0.41800000000E+01 0. -1.
        -11    1    4    4    0    0  0.11968076378E+02 -0.24005332245E+02  0.40012111144E+02  0.48171151809E+02  0.00000000000E+00 0. -1.
         11    1    4    4    0    0 -0.55425879038E+02 -0.42441429073E+02 -0.28744693213E+02  0.75495432689E+02  0.00000000000E+00 0.  1.
</event>
<event>
 8    1  0.6840084E-009  0.1136026E+03  0.7561462E-02  0.1254040E+00
         -4   -1    0    0    0  501 -0.00000000000E+00  0.00000000000E+00  0.75763013342E+02  0.75763013342E+02  0.00000000000E+00 0.  1.
          4   -1    0    0  501    0  0.00000000000E+00 -0.00000000000E+00 -0.29281591963E+03  0.29281591963E+03  0.00000000000E+00 0. -1.
         25    2    1    2    0    0  0.27810014151E+02 -0.36553573448E+02 -0.22965920675E+03  0.26552025629E+03  0.12509234443E+03 0.  0.
         23    2    1    2    0    0 -0.27810014151E+02  0.36553573448E+02  0.12606300461E+02  0.10305867668E+03  0.91392622294E+02 0.  0.
          5    1    3    3  502    0  0.34045650370E+02  0.38112976220E+02 -0.53810298522E+02  0.74328499868E+02  0.41800000000E+01 0. -1.
         -5    1    3    3    0  502 -0.62356362197E+01 -0.74666549669E+02 -0.17584890823E+03  0.19119175642E+03  0.41800000000E+01 0. -1.
        -11    1    4    4    0    0  0.15853692178E+02  0.52161295052E+02  0.15261916168E+02  0.56613305346E+02  0.00000000000E+00 0.  1.
         11    1    4    4    0    0 -0.43663706328E+02 -0.15607721603E+02 -0.26556157073E+01  0.46445371338E+02  0.00000000000E+00 0. -1.
</event>
<event>
 8    1  0.6840084E-009  0.1113640E+03  0.7561462E-02  0.1258065E+00
         -2   -1    0    0    0  501 -0.00000000000E+00  0.00000000000E+00  0.21499932485E+02  0.21499932485E+02  0.00000000000E+00 0. -1.
          2   -1    0    0  501    0  0.00000000000E+00 -0.00000000000E+00 -0.76764908405E+03  0.76764908405E+03  0.00000000000E+00 0.  1.
         25    2    1    2    0    0  0.61532045061E+02  0.18987518830E+02 -0.34539808445E+03  0.37295268680E+03  0.12508857426E+03 0.  0.
         23    2    1    2    0    0 -0.61532045061E+02 -0.18987518830E+02 -0.40075106712E+03  0.41619632974E+03  0.92039386407E+02 0.  0.
          5    1    3    3  502    0  0.11518005898E+02  0.50005267107E+02 -0.28074020535E+03  0.28542201474E+03  0.41800000000E+01 0. -1.
         -5    1    3    3    0  502  0.50014039163E+02 -0.31017748277E+02 -0.64657879097E+02  0.87530672058E+02  0.41800000000E+01 0. -1.
        -11    1    4    4    0    0  0.10207568678E+02 -0.36912962716E+02 -0.14456635373E+03  0.14955330791E+03  0.00000000000E+00 0.  1.
         11    1    4    4    0    0 -0.71739613740E+02  0.17925443886E+02 -0.25618471339E+03  0.26664302183E+03  0.00000000000E+00 0. -1.
</event>
<event>
 8    1  0.6840084E-009  0.2030632E+03  0.7561462E-02  0.1147180E+00
         -1   -1    0    0    0  501 -0.00000000000E+00  0.00000000000E+00  0.74499188100E+02  0.74499188100E+02  0.00000000000E+00 0.  1.
          1   -1    0    0  501    0  0.00000000000E+00 -0.00000000000E+00 -0.69045872718E+03  0.69045872718E+03  0.00000000000E+00 0. -1.
         25    2    1    2    0    0  0.19729258279E+03  0.89517211033E+01 -0.28045046190E+03  0.36510857409E+03  0.12508921919E+03 0.  0.
         23    2    1    2    0    0 -0.19729258279E+03 -0.89517211033E+01 -0.33550907718E+03  0.39984934119E+03  0.91151841699E+02 0.  0.
          5    1    3    3  502    0  0.16097404624E+02 -0.18790878658E+02  0.52462601503E+01  0.25636286821E+02  0.41800000000E+01 0. -1.
         -5    1    3    3    0  502  0.18119517817E+03  0.27742599762E+02 -0.28569672205E+03  0.33947228727E+03  0.41800000000E+01 0. -1.
        -11    1    4    4    0    0 -0.99045452656E+02 -0.87471315758E+01 -0.85170118820E+02  0.13092159158E+03  0.00000000000E+00 0.  1.
         11    1    4    4    0    0 -0.98247130137E+02 -0.20458952749E+00 -0.25033895836E+03  0.26892774961E+03  0.00000000000E+00 0. -1.
</event>
<event>
 8    1  0.6840084E-009  0.1144529E+03  0.7561462E-02  0.1252539E+00
          3   -1    0    0  501    0  0.00000000000E+00  0.00000000000E+00  0.20305608741E+02  0.20305608741E+02  0.00000000000E+00 0. -1.
         -3   -1    0    0    0  501 -0.00000000000E+00 -0.00000000000E+00 -0.95545138974E+03  0.95545138974E+03  0.00000000000E+00 0.  1.
         25    2    1    2    0    0  0.14740767669E+02 -0.60456869202E+02 -0.73181976951E+03  0.74503672138E+03  0.12508884000E+03 0.  0.
         23    2    1    2    0    0 -0.14740767669E+02  0.60456869202E+02 -0.20332601149E+03  0.23072027710E+03  0.89543598615E+02 0.  0.
          5    1    3    3  502    0  0.56489952324E+02 -0.52558293289E+02 -0.25868306890E+03  0.26997757582E+03  0.41800000000E+01 0.  1.
         -5    1    3    3    0  502 -0.41749184655E+02 -0.78985759123E+01 -0.47313670061E+03  0.47505914556E+03  0.41800000000E+01 0.  1.
        -11    1    4    4    0    0  0.33489066123E+02  0.49027032029E+02 -0.11581951605E+03  0.13015117256E+03  0.00000000000E+00 0.  1.
         11    1    4    4    0    0 -0.48229833792E+02  0.11429837173E+02 -0.87506495436E+02  0.10056910454E+03  0.00000000000E+00 0. -1.
</event>
<event>
 8    1  0.6840084E-009  0.1168036E+03  0.7561462E-02  0.1248465E+00
          1   -1    0    0  501    0  0.00000000000E+00  0.00000000000E+00  0.76848906992E+02  0.76848906992E+02  0.00000000000E+00 0. -1.
         -1   -1    0    0    0  501 -0.00000000000E+00 -0.00000000000E+00 -0.25423648933E+03  0.25423648933E+03  0.00000000000E+00 0.  1.
         25    2    1    2    0    0 -0.86727735061E+02  0.67495569808E+01 -0.89598268464E+02  0.17675071169E+03  0.12508280386E+03 0.  0.
         23    2    1    2    0    0  0.86727735061E+02 -0.67495569808E+01 -0.87789313876E+02  0.15433468464E+03  0.92439032358E+02 0.  0.
          5    1    3    3  502    0 -0.55571064322E+02 -0.48095479080E+02 -0.87627608613E+01  0.74132156827E+02  0.41800000000E+01 0. -1.
         -5    1    3    3    0  502 -0.31156670739E+02  0.54845036061E+02 -0.80835507603E+02  0.10261855486E+03  0.41800000000E+01 0. -1.
        -11    1    4    4    0    0  0.62134016371E+02 -0.24139570324E+02 -0.10134671491E+03  0.12130338606E+03  0.00000000000E+00 0.  1.
         11    1    4    4    0    0  0.24593718689E+02  0.17390013343E+02  0.13557401036E+02  0.33031298580E+02  0.00000000000E+00 0. -1.
</event>
<event>
 8    1  0.6840084E-009  0.1181578E+03  0.7561462E-02  0.1246167E+00
         -4   -1    0    0    0  501 -0.00000000000E+00  0.00000000000E+00  0.16592842137E+04  0.16592842137E+04  0.00000000000E+00 0.  1.
          4   -1    0    0  501    0  0.00000000000E+00 -0.00000000000E+00 -0.16776710176E+02  0.16776710176E+02  0.00000000000E+00 0. -1.
         25    2    1    2    0    0  0.90001001747E+02  0.11322721940E+02  0.13129714240E+04  0.13220322261E+04  0.12508741815E+03 0.  0.
         23    2    1    2    0    0 -0.90001001747E+02 -0.11322721940E+02  0.32953607955E+03  0.35402869783E+03  0.92270834046E+02 0.  0.
          5    1    3    3  502    0  0.31130798225E+00  0.48309373084E+02  0.25177235194E+03  0.25639945796E+03  0.41800000000E+01 0.  1.
         -5    1    3    3    0  502  0.89689693765E+02 -0.36986651144E+02  0.10611990721E+04  0.10656327681E+04  0.41800000000E+01 0.  1.
        -11    1    4    4    0    0 -0.18248070780E+02 -0.27676030982E+01  0.19409635591E+01  0.18558530482E+02  0.00000000000E+00 0. -1.
         11    1    4    4    0    0 -0.71752930967E+02 -0.85551188415E+01  0.32759511599E+03  0.33547016735E+03  0.00000000000E+00 0.  1.
</event>
<event>
 8    1  0.6840084E-009  0.1070203E+03  0.7561462E-02  0.1266189E+00
         -2   -1    0    0    0  501 -0.00000000000E+00  0.00000000000E+00  0.27376269658E+02  0.27376269658E+02  0.00000000000E+00 0.  1.
          2   -1    0    0  501    0  0.00000000000E+00 -0.00000000000E+00 -0.56548237150E+03  0.56548237150E+03  0.00000000000E+00 0. -1.
         25    2    1    2    0    0 -0.19792962304E+02 -0.26462249491E+02 -0.24465568381E+03  0.27675886139E+03  0.12508817582E+03 0.  0.
         23    2    1    2    0    0  0.19792962304E+02  0.26462249491E+02 -0.29345041803E+03  0.31609977977E+03  0.11275597954E+03 0.  0.
          5    1    3    3  502    0  0.36617518398E+02  0.27639248880E+01 -0.18778903767E+03  0.19139142354E+03  0.41800000000E+01 0.  1.
         -5    1    3    3    0  502 -0.56410480702E+02 -0.29226174379E+02 -0.56866646138E+02  0.85367437849E+02  0.41800000000E+01 0.  1.
        -11    1    4    4    0    0  0.35572213648E+02 -0.35031950688E+02 -0.89339137574E+02  0.10234305768E+03  0.00000000000E+00 0.  1.
         11    1    4    4    0    0 -0.15779251343E+02  0.61494200179E+02 -0.20411128046E+03  0.21375672209E+03  0.00000000000E+00 0. -1.
</event>
<event>
 8    1  0.6840084E-009  0.1346917E+03  0.7561462E-02  0.1220656E+00
         -1   -1    0    0    0  501 -0.00000000000E+00  0.00000000000E+00  0.29776210454E+02  0.29776210454E+02  0.00000000000E+00 0.  1.
          1   -1    0    0  501    0  0.00000000000E+00 -0.00000000000E+00 -0.67120851226E+03  0.67120851226E+03  0.00000000000E+00 0. -1.
         25    2    1    2    0    0 -0.36888684211E+02  0.76602084003E+02 -0.27203878165E+03  0.31125664858E+03  0.12508776226E+03 0.  0.
         23    2    1    2    0    0  0.36888684211E+02 -0.76602084003E+02 -0.36939352015E+03  0.38972807413E+03  0.90596604456E+02 0.  0.
          5    1    3    3  502    0  0.35927532620E+02  0.62956847859E+02 -0.97206448598E+02  0.12132979165E+03  0.41800000000E+01 0.  1.
         -5    1    3    3    0  502 -0.72816216831E+02  0.13645236144E+02 -0.17483233305E+03  0.18992685693E+03  0.41800000000E+01 0.  1.
        -11    1    4    4    0    0  0.52470663637E+02 -0.90458711217E+01 -0.19266781537E+03  0.19988968310E+03  0.00000000000E+00 0. -1.
         11    1    4    4    0    0 -0.15581979426E+02 -0.67556212881E+02 -0.17672570478E+03  0.18983839104E+03  0.00000000000E+00 0.  1.
</event>
<event>
 8    1  0.6840084E-009  0.2207488E+03  0.7561462E-02  0.1133326E+00
          1   -1    0    0  501    0  0.00000000000E+00  0.00000000000E+00  0.12314191659E+04  0.12314191659E+04  0.00000000000E+00 0. -1.
         -1   -1    0    0    0  501 -0.00000000000E+00 -0.00000000000E+00 -0.45394792758E+02  0.45394792758E+02  0.00000000000E+00 0.  1.
         25    2    1    2    0    0 -0.11989258790E+03 -0.16592527951E+03  0.47688338045E+03  0.53382717172E+03  0.12509300424E+03 0.  0.
         23    2    1    2    0    0  0.11989258790E+03  0.16592527951E+03  0.70914099273E+03  0.74298678697E+03  0.85105740295E+02 0.  0.
          5    1    3    3  502    0 -0.25553152966E+02  0.32191176366E+01  0.92944731055E+01  0.27698122232E+02  0.41800000000E+01 0.  1.
         -5    1    3    3    0  502 -0.94339434933E+02 -0.16914439714E+03  0.46758890734E+03  0.50612904949E+03  0.41800000000E+01 0.  1.
        -11    1    4    4    0    0 -0.42497260237E+01  0.55125574163E+02  0.17406004398E+03  0.18263019468E+03  0.00000000000E+00 0. -1.
         11    1    4    4    0    0  0.12414231392E+03  0.11079970534E+03  0.53508094875E+03  0.56035659229E+03  0.00000000000E+00 0.  1.
</event>
<event>
 8    1  0.6840084E-009  0.1015543E+03  0.7561462E-02  0.1277061E+00
         -2   -1    0    0    0  501 -0.00000000000E+00  0.00000000000E+00  0.50352134903E+02  0.50352134903E+02  0.00000000000E+00 0.  1.
          2   -1    0    0  501    0  0.00000000000E+00 -0.00000000000E+00 -0.28116748689E+03  0.28116748689E+03  0.00000000000E+00 0. -1.
         25    2    1    2    0    0  0.17559734280E+02 -0.33838921391E+02 -0.17389394974E+03  0.21757602618E+03  0.12508718775E+03 0.  0.
         23    2    1    2    0    0 -0.17559734280E+02  0.33838921391E+02 -0.56921402243E+02  0.11394359562E+03  0.91047680256E+02 0.  0.
          5    1    3    3  502    0 -0.33497303482E+02 -0.62907210652E+02 -0.10444527992E+03  0.12651353837E+03  0.41800000000E+01 0. -1.
         -5    1    3    3    0  502  0.51057037762E+02  0.29068289261E+02 -0.69448669825E+02  0.91062487810E+02  0.41800000000E+01 0. -1.
        -11    1    4    4    0    0 -0.31991900985E+02 -0.40728085976E+01 -0.65018663952E+02  0.72577518287E+02  0.00000000000E+00 0. -1.
         11    1    4    4    0    0  0.14432166705E+02  0.37911729989E+02  0.80972617089E+01  0.41366077331E+02  0.00000000000E+00 0.  1.
</event>
<event>
 8    1  0.6840084E-009  0.9102775E+02  0.7561462E-02  0.1300382E+00
          2   -1    0    0  501    0  0.00000000000E+00  0.00000000000E+00  0.68399935179E+03  0.68399935179E+03  0.00000000000E+00 0. -1.
         -2   -1    0    0    0  501 -0.00000000000E+00 -0.00000000000E+00 -0.16207477736E+02  0.16207477736E+02  0.00000000000E+00 0.  1.
         25    2    1    2    0    0  0.13276682786E+02 -0.31315968758E+02  0.34293571983E+03  0.36661772099E+03  0.12508671073E+03 0.  0.
         23    2    1    2    0    0 -0.13276682786E+02  0.31315968758E+02  0.32485615422E+03  0.33358910854E+03  0.67773240991E+02 0.  0.
          5    1    3    3  502    0 -0.36859887893E+02  0.13142888784E+02  0.24335978932E+03  0.24652149261E+03  0.41800000000E+01 0.  1.
         -5    1    3    3    0  502  0.50136570679E+02 -0.44458857542E+02  0.99575930517E+02  0.12009622838E+03  0.41800000000E+01 0.  1.
        -11    1    4    4    0    0  0.97182037960E+01  0.46825819852E+02  0.21885260546E+03  0.22401688286E+03  0.00000000000E+00 0. -1.
         11    1    4    4    0    0 -0.22994886582E+02 -0.15509851094E+02  0.10600354877E+03  0.10957222568E+03  0.00000000000E+00 0.  1.
</event>
<event>
 8    1  0.6840084E-009  0.1046739E+03  0.7561462E-02  0.1270763E+00
          2   -1    0    0  501    0  0.00000000000E+00  0.00000000000E+00  0.31439616229E+03  0.31439616229E+03  0.00000000000E+00 0.  1.
         -2   -1    0    0    0  501 -0.00000000000E+00 -0.00000000000E+00 -0.44561194311E+02  0.44561194311E+02  0.00000000000E+00 0. -1.
         25    2    1    2    0    0  0.24885533468E+02  0.38639472102E+02  0.12500720189E+03  0.18272188221E+03  0.12509271415E+03 0.  0.
         23    2    1    2    0    0 -0.24885533468E+02 -0.38639472102E+02  0.14482776609E+03  0.17623547439E+03  0.89283604450E+02 0.  0.
          5    1    3    3  502    0  0.33288240259E+02  0.69261311673E+02  0.12923726985E+03  0.15041602492E+03  0.41800000000E+01 0.  1.
         -5    1    3    3    0  502 -0.84027067911E+01 -0.30621839572E+02 -0.42300679618E+01  0.32305857288E+02  0.41800000000E+01 0.  1.
        -11    1    4    4    0    0 -0.10038125104E+02 -0.67320481590E+02  0.10097737851E+03  0.12177537587E+03  0.00000000000E+00 0.  1.
         11    1    4    4    0    0 -0.14847408364E+02  0.28681009488E+02  0.43850387581E+02  0.54460098525E+02  0.00000000000E+00 0. -1.
</event>
<event>
 8    1  0.6840084E-009  0.1202774E+03  0.7561462E-02  0.1242640E+00
          2   -1    0    0  501    0  0.00000000000E+00  0.00000000000E+00  0.10520369668E+03  0.10520369668E+03  0.00000000000E+00 0. -1.
         -2   -1    0    0    0  501 -0.00000000000E+00 -0.00000000000E+00 -0.20890640994E+03  0.20890640994E+03  0.00000000000E+00 0.  1.
         25    2    1    2    0    0 -0.50856867971E+02  0.79015696879E+02 -0.95516433509E+02  0.18330569119E+03  0.12509071101E+03 0.  0.
         23    2    1    2    0    0  0.50856867971E+02 -0.79015696879E+02 -0.81862797482E+01  0.13080441543E+03  0.90624933362E+02 0.  0.
          5    1    3    3  502    0 -0.55896034885E+02 -0.41434978502E+01 -0.81069751469E+02  0.98647414023E+02  0.41800000000E+01 0. -1.
         -5    1    3    3    0  502  0.50391669137E+01  0.83159194729E+02 -0.14446682040E+02  0.84658277169E+02  0.41800000000E+01 0. -1.
        -11    1    4    4    0    0  0.43391172448E+02 -0.33523883851E+02 -0.45691496926E+02  0.71374768134E+02  0.00000000000E+00 0.  1.
         11    1    4    4    0    0  0.74656955233E+01 -0.45491813028E+02  0.37505217178E+02  0.59429647296E+02  0.00000000000E+00 0. -1.
</event>
<event>
 8    1  0.6840084E-009  0.9291477E+02  0.7561462E-02  0.1295943E+00
          1   -1    0    0  501    0  0.00000000000E+00  0.00000000000E+00  0.46723599645E+03  0.46723599645E+03  0.00000000000E+00 0. -1.
         -1   -1    0    0    0  501 -0.00000000000E+00 -0.00000000000E+00 -0.34606701760E+02  0.34606701760E+02  0.00000000000E+00 0.  1.
         25    2    1    2    0    0  0.49200130627E+02 -0.18895878123E+02  0.31859813044E+03  0.34630957975E+03  0.12509136357E+03 0.  0.
         23    2    1    2    0    0 -0.49200130627E+02  0.18895878123E+02  0.11403116425E+03  0.15553311846E+03  0.91704620690E+02 0.  0.
          5    1    3    3  502    0  0.44982036848E+02  0.23958012987E+02  0.41506095924E+02  0.65860446583E+02  0.41800000000E+01 0.  1.
         -5    1    3    3    0  502  0.42180937789E+01 -0.42853891110E+02  0.27709203452E+03  0.28044913316E+03  0.41800000000E+01 0.  1.
        -11    1    4    4    0    0 -0.58180471605E+02 -0.11871630465E+02  0.10752031151E+03  0.12282719679E+03  0.00000000000E+00 0.  1.
         11    1    4    4    0    0  0.89803409782E+01  0.30767508589E+02  0.65108527408E+01  0.32705921669E+02  0.00000000000E+00 0. -1.
</event>
<event>
 8    1  0.6840084E-009  0.1603152E+03  0.7561462E-02  0.1188341E+00
          2   -1    0    0  501    0  0.00000000000E+00  0.00000000000E+00  0.42532089072E+02  0.42532089072E+02  0.00000000000E+00 0. -1.
         -2   -1    0    0    0  501 -0.00000000000E+00 -0.00000000000E+00 -0.85823557561E+03  0.85823557561E+03  0.00000000000E+00 0.  1.
         25    2    1    2    0    0 -0.38675654606E+02 -0.12615828840E+03 -0.62540569843E+03  0.65129969320E+03  0.12508909924E+03 0.  0.
         23    2    1    2    0    0  0.38675654606E+02  0.12615828840E+03 -0.19029778811E+03  0.24946797148E+03  0.92786317123E+02 0.  0.
          5    1    3    3  502    0  0.14547346597E+02  0.85249720172E+01 -0.22179329049E+03  0.22247255235E+03  0.41800000000E+01 0.  1.
         -5    1    3    3    0  502 -0.53223001203E+02 -0.13468326041E+03 -0.40361240794E+03  0.42882714085E+03  0.41800000000E+01 0.  1.
        -11    1    4    4    0    0 -0.28531553375E+02  0.36396342406E+02 -0.78592265043E+02  0.91189294345E+02  0.00000000000E+00 0.  1.
         11    1    4    4    0    0  0.67207207981E+02  0.89761945990E+02 -0.11170552307E+03  0.15827867714E+03  0.00000000000E+00 0. -1.
</event>
<event>
 8    1  0.6840084E-009  0.9743845E+02  0.7561462E-02  0.1285777E+00
          3   -1    0    0  501    0  0.00000000000E+00  0.00000000000E+00  0.11478567727E+03  0.11478567727E+03  0.00000000000E+00 0. -1.
         -3   -1    0    0    0  501 -0.00000000000E+00 -0.00000000000E+00 -0.15842982411E+03  0.15842982411E+03  0.00000000000E+00 0.  1.
         25    2    1    2    0    0  0.70053061090E+02  0.11972579696E+02  0.13088534540E+02  0.14446364828E+03  0.12509061478E+03 0.  0.
         23    2    1    2    0    0 -0.70053061090E+02 -0.11972579696E+02 -0.56732681382E+02  0.12875185309E+03  0.91146412462E+02 0.  0.
          5    1    3    3  502    0  0.43771500976E+02 -0.96444938913E+01  0.66913582312E+02  0.80646515473E+02  0.41800000000E+01 0.  1.
         -5    1    3    3    0  502  0.26281560114E+02  0.21617073588E+02 -0.53825047772E+02  0.63817132811E+02  0.41800000000E+01 0.  1.
        -11    1    4    4    0    0  0.12033917978E+02 -0.29304171958E+02 -0.15976745310E+02  0.35479657083E+02  0.00000000000E+00 0.  1.
         11    1    4    4    0    0 -0.82086979068E+02  0.17331592261E+02 -0.40755936072E+02  0.93272196007E+02  0.00000000000E+00 0. -1.
</event>
<event>
 8    1  0.6840084E-009  0.1361960E+03  0.7561462E-02  0.1218541E+00
         -1   -1    0    0    0  501 -0.00000000000E+00  0.00000000000E+00  0.73866282002E+02  0.73866282002E+02  0.00000000000E+00 0.  1.
          1   -1    0    0  501    0  0.00000000000E+00 -0.00000000000E+00 -0.33549455299E+03  0.33549455299E+03  0.00000000000E+00 0. -1.
         25    2    1    2    0    0 -0.10050767658E+03 -0.51281046363E+02 -0.15290447232E+03  0.22750677775E+03  0.12509203612E+03 0.  0.
         23    2    1    2    0    0  0.10050767658E+03  0.51281046363E+02 -0.10872379867E+03  0.18185405724E+03  0.92295693129E+02 0.  0.
          5    1    3    3  502    0 -0.97349821644E+02 -0.66160195563E+02 -0.16833077524E+03  0.20544313457E+03  0.41800000000E+01 0. -1.
         -5    1    3    3    0  502 -0.31578549312E+01  0.14879149200E+02  0.15426302917E+02  0.22063643180E+02  0.41800000000E+01 0. -1.
        -11    1    4    4    0    0  0.68542508165E+02 -0.10439422257E+02 -0.82010358691E+02  0.10739066950E+03  0.00000000000E+00 0. -1.
         11    1    4    4    0    0  0.31965168410E+02  0.61720468619E+02 -0.26713439974E+02  0.74463387738E+02  0.00000000000E+00 0.  1.
</event>
<event>
 8    1  0.6840084E-009  0.1168113E+03  0.7561462E-02  0.1248452E+00
         -1   -1    0    0    0  501 -0.00000000000E+00  0.00000000000E+00  0.55671024680E+02  0.55671024680E+02  0.00000000000E+00 0.  1.
          1   -1    0    0  501    0  0.00000000000E+00 -0.00000000000E+00 -0.29692330348E+03  0.29692330348E+03  0.00000000000E+00 0. -1.
         25    2    1    2    0    0  0.36477306753E+02  0.45763665497E+02 -0.17655895464E+03  0.22415119964E+03  0.12508312777E+03 0.  0.
         23    2    1    2    0    0 -0.36477306753E+02 -0.45763665497E+02 -0.64693324159E+02  0.12844312851E+03  0.94273559834E+02 0.  0.
          5    1    3    3  502    0  0.78446315499E+02  0.46456845659E+02 -0.14555064304E+03  0.17179791911E+03  0.41800000000E+01 0.  1.
         -5    1    3    3    0  502 -0.41969008746E+02 -0.69318016188E+00 -0.31008311602E+02  0.52353280530E+02  0.41800000000E+01 0.  1.
        -11    1    4    4    0    0  0.91255221099E+01 -0.53192905644E+02 -0.68367758839E+01  0.54401303929E+02  0.00000000000E+00 0.  1.
         11    1    4    4    0    0 -0.45602828863E+02  0.74292401470E+01 -0.57856548275E+02  0.74041824584E+02  0.00000000000E+00 0. -1.
</event>
<event>
 8    1  0.6840084E-009  0.2574875E+03  0.7561462E-02  0.1108662E+00
          2   -1    0    0  501    0  0.00000000000E+00  0.00000000000E+00  0.55462888363E+03  0.55462888363E+03  0.00000000000E+00 0. -1.
         -2   -1    0    0    0  501 -0.00000000000E+00 -0.00000000000E+00 -0.12364114018E+03  0.12364114018E+03  0.00000000000E+00 0.  1.
         25    2    1    2    0    0 -0.18868754964E+03  0.14497954831E+03  0.23278838227E+03  0.35561206084E+03  0.12508975210E+03 0.  0.
         23    2    1    2    0    0  0.18868754964E+03 -0.14497954831E+03  0.19819936117E+03  0.32265796297E+03  0.90571041096E+02 0.  0.
          5    1    3    3  502    0 -0.18888943685E+03  0.96592591591E+02  0.21941425836E+03  0.30523669058E+03  0.41800000000E+01 0. -1.
         -5    1    3    3    0  502  0.20188721387E+00  0.48386956714E+02  0.13374123912E+02  0.50375370261E+02  0.41800000000E+01 0. -1.
        -11    1    4    4    0    0  0.19422882313E+03 -0.11929997384E+03  0.17198430236E+03  0.28554495224E+03  0.00000000000E+00 0. -1.
         11    1    4    4    0    0 -0.55412734960E+01 -0.25679574469E+02  0.26215058810E+02  0.37113010728E+02  0.00000000000E+00 0.  1.
</event>
<event>
 8    1  0.6840084E-009  0.1768493E+03  0.7561462E-02  0.1170888E+00
         -1   -1    0    0    0  501 -0.00000000000E+00  0.00000000000E+00  0.52097231307E+03  0.52097231307E+03  0.00000000000E+00 0.  1.
          1   -1    0    0  501    0  0.00000000000E+00 -0.00000000000E+00 -0.75097221869E+02  0.75097221869E+02  0.00000000000E+00 0. -1.
         25    2    1    2    0    0  0.14936728758E+03  0.55537995694E+02  0.29786341676E+03  0.36023045881E+03  0.12509321663E+03 0.  0.
         23    2    1    2    0    0 -0.14936728758E+03 -0.55537995694E+02  0.14801167444E+03  0.23583907613E+03  0.91200649619E+02 0.  0.
          5    1    3    3  502    0  0.92890297535E+02  0.79154509719E+02  0.26224811709E+03  0.28928461954E+03  0.41800000000E+01 0. -1.
         -5    1    3    3    0  502  0.56476990048E+02 -0.23616514025E+02  0.35615299668E+02  0.70945839272E+02  0.41800000000E+01 0. -1.
        -11    1    4    4    0    0 -0.11481144624E+03 -0.68064961284E+02  0.72580508061E+02  0.15192905349E+03  0.00000000000E+00 0. -1.
         11    1    4    4    0    0 -0.34555841339E+02  0.12526965590E+02  0.75431166380E+02  0.83910022638E+02  0.00000000000E+00 0.  1.
</event>
<event>
 8    1  0.6840084E-009  0.1056717E+03  0.7561462E-02  0.1268802E+00
          2   -1    0    0  501    0  0.00000000000E+00  0.00000000000E+00  0.13744569351E+03  0.13744569351E+03  0.00000000000E+00 0. -1.
         -2   -1    0    0    0  501 -0.00000000000E+00 -0.00000000000E+00 -0.94947491420E+02  0.94947491420E+02  0.00000000000E+00 0.  1.
         25    2    1    2    0    0  0.12964741339E+02  0.18802292216E+02 -0.36926494961E+01  0.12720342982E+03  0.12508183796E+03 0.  0.
         23    2    1    2    0    0 -0.12964741339E+02 -0.18802292216E+02  0.46190851587E+02  0.10518975511E+03  0.91704302510E+02 0.  0.
          5    1    3    3  502    0  0.57959151181E+02  0.46164924344E+02 -0.47334215783E+01  0.74366263353E+02  0.41800000000E+01 0. -1.
         -5    1    3    3    0  502 -0.44994409842E+02 -0.27362632128E+02  0.10407720822E+01  0.52837166470E+02  0.41800000000E+01 0. -1.
        -11    1    4    4    0    0 -0.46190024645E+02 -0.13381529759E+00  0.11712780402E+01  0.46205066556E+02  0.00000000000E+00 0.  1.
         11    1    4    4    0    0  0.33225283306E+02 -0.18668476918E+02  0.45019573547E+02  0.58984688551E+02  0.00000000000E+00 0. -1.
</event>
<event>
 8    1  0.6840084E-009  0.1243706E+03  0.7561462E-02  0.1236056E+00
          2   -1    0    0  501    0  0.00000000000E+00  0.00000000000E+00  0.13744276282E+03  0.13744276282E+03  0.00000000000E+00 0. -1.
         -2   -1    0    0    0  501 -0.00000000000E+00 -0.00000000000E+00 -0.12872874243E+03  0.12872874243E+03  0.00000000000E+00 0.  1.
         25    2    1    2    0    0 -0.49580192054E+02 -0.44102541372E+02 -0.36764325301E+02  0.14629723896E+03  0.12509211371E+03 0.  0.
         23    2    1    2    0    0  0.49580192054E+02  0.44102541372E+02  0.45478345692E+02  0.11987426629E+03  0.88872550269E+02 0.  0.
          5    1    3    3  502    0  0.11040121677E+02 -0.70745416029E+02 -0.28423422970E+01  0.71779868247E+02  0.41800000000E+01 0.  1.
         -5    1    3    3    0  502 -0.60620313731E+02  0.26642874657E+02 -0.33921983004E+02  0.74517370711E+02  0.41800000000E+01 0.  1.
        -11    1    4    4    0    0 -0.25601453685E+02  0.17091385893E+02  0.91353162303E+01  0.32109249527E+02  0.00000000000E+00 0.  1.
         11    1    4    4    0    0  0.75181645739E+02  0.27011155479E+02  0.36343029462E+02  0.87765016760E+02  0.00000000000E+00 0. -1.
</event>
<event>
 8    1  0.6840084E-009  0.9695381E+02  0.7561462E-02  0.1286835E+00
         -1   -1    0    0    0  501 -0.00000000000E+00  0.00000000000E+00  0.12562306345E+03  0.12562306345E+03  0.00000000000E+00 0.  1.
          1   -1    0    0  501    0  0.00000000000E+00 -0.00000000000E+00 -0.14150436711E+03  0.14150436711E+03  0.00000000000E+00 0. -1.
         25    2    1    2    0    0 -0.51606417459E+02  0.22970826398E+02  0.43600379981E+02  0.14402240755E+03  0.12510227637E+03 0.  0.
         23    2    1    2    0    0  0.51606417459E+02 -0.22970826398E+02 -0.59481683641E+02  0.12310502301E+03  0.91792672977E+02 0.  0.
          5    1    3    3  502    0 -0.42994735425E+02  0.52944344796E+02  0.73683257055E+02  0.10049052538E+03  0.41800000000E+01 0.  1.
         -5    1    3    3    0  502 -0.86116820339E+01 -0.29973518398E+02 -0.30082877073E+02  0.43531882174E+02  0.41800000000E+01 0.  1.
        -11    1    4    4    0    0  0.52577326514E+02 -0.46724077438E+02 -0.68017197558E+02  0.97846072172E+02  0.00000000000E+00 0. -1.
         11    1    4    4    0    0 -0.97090905569E+00  0.23753251040E+02  0.85355139175E+01  0.25258950834E+02  0.00000000000E+00 0.  1.
</event>
<event>
 8    1  0.6840084E-009  0.1952975E+03  0.7561462E-02  0.1153768E+00
          1   -1    0    0  501    0  0.00000000000E+00  0.00000000000E+00  0.10452832737E+04  0.10452832737E+04  0.00000000000E+00 0. -1.
         -1   -1    0    0    0  501 -0.00000000000E+00 -0.00000000000E+00 -0.13874256815E+03  0.13874256815E+03  0.00000000000E+00 0.  1.
         25    2    1    2    0    0 -0.14980922664E+03  0.86641983883E+02 -0.39953927949E+02  0.21724133523E+03  0.12509134108E+03 0.  0.
         23    2    1    2    0    0  0.14980922664E+03 -0.86641983883E+02  0.94649463350E+03  0.96678450663E+03  0.94183614601E+02 0.  0.
          5    1    3    3  502    0 -0.15747201377E+03  0.65163256138E+02 -0.65608552890E+02  0.18266263900E+03  0.41800000000E+01 0. -1.
         -5    1    3    3    0  502  0.76627871298E+01  0.21478727745E+02  0.25654624941E+02  0.34578696231E+02  0.41800000000E+01 0. -1.
        -11    1    4    4    0    0  0.95172028742E+02 -0.10267145907E+03  0.68600326476E+03  0.70014257321E+03  0.00000000000E+00 0.  1.
         11    1    4    4    0    0  0.54637197903E+02  0.16029475189E+02  0.26049136875E+03  0.26664193342E+03  0.00000000000E+00 0. -1.
</event>
<event>
 8    1  0.6840084E-009  0.1261616E+03  0.7561462E-02  0.1233265E+00
          1   -1    0    0  501    0  0.00000000000E+00  0.00000000000E+00  0.70950476081E+03  0.70950476081E+03  0.00000000000E+00 0. -1.
         -1   -1    0    0    0  501 -0.00000000000E+00 -0.00000000000E+00 -0.25179004690E+02  0.25179004690E+02  0.00000000000E+00 0.  1.
         25    2    1    2    0    0 -0.74535261116E+02 -0.22918423008E+02  0.37609842277E+03  0.40395295834E+03  0.12508880717E+03 0.  0.
         23    2    1    2    0    0  0.74535261116E+02  0.22918423008E+02  0.30822733335E+03  0.33073080716E+03  0.91093460344E+02 0.  0.
          5    1    3    3  502    0  0.28005607335E+02  0.67396111644E+01  0.16299508294E+03  0.16557356632E+03  0.41800000000E+01 0. -1.
         -5    1    3    3    0  502 -0.10254086845E+03 -0.29658034173E+02  0.21310333983E+03  0.23837939202E+03  0.41800000000E+01 0. -1.
        -11    1    4    4    0    0  0.22613963746E+02  0.52124629399E+02  0.11091186497E+03  0.12461865886E+03  0.00000000000E+00 0.  1.
         11    1    4    4    0    0  0.51921297370E+02 -0.29206206391E+02  0.19731546839E+03  0.20611214830E+03  0.00000000000E+00 0. -1.
</event>
<event>
 8    1  0.6840084E-009  0.8353827E+02  0.7561462E-02  0.1319300E+00
         -3   -1    0    0    0  501 -0.00000000000E+00  0.00000000000E+00  0.28798659108E+03  0.28798659108E+03  0.00000000000E+00 0.  1.
          3   -1    0    0  501    0  0.00000000000E+00 -0.00000000000E+00 -0.64076890057E+02  0.64076890057E+02  0.00000000000E+00 0. -1.
         25    2    1    2    0    0 -0.49895088631E+02 -0.25729133784E+02  0.20605002225E+03  0.24749856029E+03  0.12508963779E+03 0.  0.
         23    2    1    2    0    0  0.49895088631E+02  0.25729133784E+02  0.17859678767E+02  0.10456492084E+03  0.86390661245E+02 0.  0.
          5    1    3    3  502    0  0.10566437616E+02  0.27107827003E+02  0.35336339018E+01  0.29604777609E+02  0.41800000000E+01 0.  1.
         -5    1    3    3    0  502 -0.60461526247E+02 -0.52836960787E+02  0.20251638835E+03  0.21789378268E+03  0.41800000000E+01 0.  1.
        -11    1    4    4    0    0  0.21984113866E+02  0.50883334069E+01  0.51499016283E+02  0.56225804374E+02  0.00000000000E+00 0.  1.
         11    1    4    4    0    0  0.27910974765E+02  0.20640800377E+02 -0.33639337516E+02  0.48339116469E+02  0.00000000000E+00 0. -1.
</event>
<event>
 8    1  0.6840084E-009  0.2159124E+03  0.7561462E-02  0.1136968E+00
          2   -1    0    0  501    0  0.00000000000E+00  0.00000000000E+00  0.50258907010E+03  0.50258907010E+03  0.00000000000E+00 0. -1.
         -2   -1    0    0    0  501 -0.00000000000E+00 -0.00000000000E+00 -0.99897542341E+02  0.99897542341E+02  0.00000000000E+00 0.  1.
         25    2    1    2    0    0 -0.16225467659E+03 -0.10968454761E+03  0.21036489508E+03  0.31346272932E+03  0.12509281967E+03 0.  0.
         23    2    1    2    0    0  0.16225467659E+03  0.10968454761E+03  0.19232663268E+03  0.28902388312E+03  0.90487520231E+02 0.  0.
          5    1    3    3  502    0 -0.15526782109E+03 -0.46793009408E+02  0.11464711565E+03  0.19864318644E+03  0.41800000000E+01 0.  1.
         -5    1    3    3    0  502 -0.69868555009E+01 -0.62891538201E+02  0.95717779432E+02  0.11481954288E+03  0.41800000000E+01 0.  1.
        -11    1    4    4    0    0  0.14036438623E+03  0.61463040551E+02  0.10122200910E+03  0.18364574975E+03  0.00000000000E+00 0.  1.
         11    1    4    4    0    0  0.21890290359E+02  0.48221507057E+02  0.91104623584E+02  0.10537813337E+03  0.00000000000E+00 0. -1.
</event>
<event>
 8    1  0.6840084E-009  0.7209615E+02  0.7561462E-02  0.1353107E+00
          3   -1    0    0  501    0  0.00000000000E+00  0.00000000000E+00  0.37898634737E+02  0.37898634737E+02  0.00000000000E+00 0. -1.
         -3   -1    0    0    0  501 -0.00000000000E+00 -0.00000000000E+00 -0.37863525948E+03  0.37863525948E+03  0.00000000000E+00 0.  1.
         25    2    1    2    0    0  0.29996178886E+02  0.25888026874E+02 -0.13841486551E+03  0.19072304318E+03  0.12508654413E+03 0.  0.
         23    2    1    2    0    0 -0.29996178886E+02 -0.25888026874E+02 -0.20232175924E+03  0.22581085104E+03  0.92122122765E+02 0.  0.
          5    1    3    3  502    0 -0.12205520219E+02  0.86115316356E+01  0.20292211877E+02  0.25541720063E+02  0.41800000000E+01 0. -1.
         -5    1    3    3    0  502  0.42201699105E+02  0.17276495238E+02 -0.15870707738E+03  0.16518132312E+03  0.41800000000E+01 0. -1.
        -11    1    4    4    0    0  0.13856805988E+02  0.16740040160E+02 -0.98552915154E+01  0.23861407913E+02  0.00000000000E+00 0. -1.
         11    1    4    4    0    0 -0.43852984874E+02 -0.42628067033E+02 -0.19246646772E+03  0.20194944312E+03  0.00000000000E+00 0.  1.
</event>
<event>
 8    1  0.6840084E-009  0.2063401E+03  0.7561462E-02  0.1144497E+00
          1   -1    0    0  501    0  0.00000000000E+00  0.00000000000E+00  0.28340925144E+03  0.28340925144E+03  0.00000000000E+00 0. -1.
         -1   -1    0    0    0  501 -0.00000000000E+00 -0.00000000000E+00 -0.18597186998E+03  0.18597186998E+03  0.00000000000E+00 0.  1.
         25    2    1    2    0    0  0.30417293618E+02 -0.17806574025E+03 -0.41879893716E+02  0.22368200824E+03  0.12508835162E+03 0.  0.
         23    2    1    2    0    0 -0.30417293618E+02  0.17806574025E+03  0.13931727518E+03  0.24569911318E+03  0.91247638062E+02 0.  0.
          5    1    3    3  502    0 -0.41822283309E+02 -0.78436395591E+02 -0.46612650793E+02  0.10045687208E+03  0.41800000000E+01 0.  1.
         -5    1    3    3    0  502  0.72239576927E+02 -0.99629344657E+02  0.47327570764E+01  0.12322513616E+03  0.41800000000E+01 0.  1.
        -11    1    4    4    0    0 -0.46256343486E+02  0.17881528414E+03  0.13632430700E+03  0.22956234847E+03  0.00000000000E+00 0. -1.
         11    1    4    4    0    0  0.15839049867E+02 -0.74954389192E+00  0.29929681743E+01  0.16136764708E+02  0.00000000000E+00 0.  1.
</event>
<event>
 8    1  0.6840084E-009  0.1093328E+03  0.7561462E-02  0.1261810E+00
          1   -1    0    0  501    0  0.00000000000E+00  0.00000000000E+00  0.31496110309E+02  0.31496110309E+02  0.00000000000E+00 0. -1.
         -1   -1    0    0    0  501 -0.00000000000E+00 -0.00000000000E+00 -0.56065973465E+03  0.56065973465E+03  0.00000000000E+00 0.  1.
         25    2    1    2    0    0  0.41000732991E+02  0.60619658912E+02 -0.26643669358E+03  0.30330129755E+03  0.12508941707E+03 0.  0.
         23    2    1    2    0    0 -0.41000732991E+02 -0.60619658912E+02 -0.26272693076E+03  0.28885454740E+03  0.95161474635E+02 0.  0.
          5    1    3    3  502    0  0.11464355858E+02 -0.14991936451E+02  0.49908462556E+01  0.19964232019E+02  0.41800000000E+01 0. -1.
         -5    1    3    3    0  502  0.29536377133E+02  0.75611595363E+02 -0.27142753983E+03  0.28333706554E+03  0.41800000000E+01 0. -1.
        -11    1    4    4    0    0 -0.34422050181E+02 -0.85577825726E+02 -0.22469322231E+03  0.24288986382E+03  0.00000000000E+00 0.  1.
         11    1    4    4    0    0 -0.65786828097E+01  0.24958166814E+02 -0.38033708459E+02  0.45964683588E+02  0.00000000000E+00 0. -1.
</event>
<event>
 8    1  0.6840084E-009  0.1460004E+03  0.7561462E-02  0.1205476E+00
         -1   -1    0    0    0  501 -0.00000000000E+00  0.00000000000E+00  0.90626830110E+02  0.90626830110E+02  0.00000000000E+00 0.  1.
          1   -1    0    0  501    0  0.00000000000E+00 -0.00000000000E+00 -0.28368377727E+03  0.28368377727E+03  0.00000000000E+00 0. -1.
         25    2    1    2    0    0 -0.80407678856E+02 -0.41009596146E+02 -0.50657889896E+02  0.16236115229E+03  0.12509092761E+03 0.  0.
         23    2    1    2    0    0  0.80407678856E+02  0.41009596146E+02 -0.14239905727E+03  0.21194945509E+03  0.12844414431E+03 0.  0.
          5    1    3    3  502    0 -0.69381748830E+02  0.30675325152E+02 -0.47586624729E+02  0.89647988807E+02  0.41800000000E+01 0. -1.
         -5    1    3    3    0  502 -0.11025930026E+02 -0.71684921298E+02 -0.30712651675E+01  0.72713163486E+02  0.41800000000E+01 0. -1.
        -11    1    4    4    0    0  0.37533510046E+01 -0.35132862695E+02 -0.28283684412E+01  0.35445808680E+02  0.00000000000E+00 0. -1.
         11    1    4    4    0    0  0.76654327852E+02  0.76142458841E+02 -0.13957068883E+03  0.17650364641E+03  0.00000000000E+00 0.  1.
</event>
<event>
 8    1  0.6840084E-009  0.1250527E+03  0.7561462E-02  0.1234987E+00
          1   -1    0    0  501    0  0.00000000000E+00  0.00000000000E+00  0.95082048116E+02  0.95082048116E+02  0.00000000000E+00 0. -1.
         -1   -1    0    0    0  501 -0.00000000000E+00 -0.00000000000E+00 -0.22090273721E+03  0.22090273721E+03  0.00000000000E+00 0.  1.
         25    2    1    2    0    0 -0.41491364271E+02  0.53530420848E+02  0.48178557289E+01  0.14232603723E+03  0.12508577008E+03 0.  0.
         23    2    1    2    0    0  0.41491364271E+02 -0.53530420848E+02 -0.13063854482E+03  0.17365874809E+03  0.92216550195E+02 0.  0.
          5    1    3    3  502    0 -0.58558147912E+02  0.86595775482E+02  0.38829223912E+00  0.10462078278E+03  0.41800000000E+01 0.  1.
         -5    1    3    3    0  502  0.17066783641E+02 -0.33065354633E+02  0.44295634897E+01  0.37705254456E+02  0.41800000000E+01 0.  1.
        -11    1    4    4    0    0  0.13732421351E+02 -0.72906607571E+02 -0.11380674747E+03  0.13585259878E+03  0.00000000000E+00 0. -1.
         11    1    4    4    0    0  0.27758942920E+02  0.19376186723E+02 -0.16831797347E+02  0.37806149313E+02  0.00000000000E+00 0.  1.
</event>
<event>
 8    1  0.6840084E-009  0.4124178E+03  0.7561462E-02  0.1039563E+00
         -1   -1    0    0    0  501 -0.00000000000E+00  0.00000000000E+00  0.44813974602E+03  0.44813974602E+03  0.00000000000E+00 0.  1.
          1   -1    0    0  501    0  0.00000000000E+00 -0.00000000000E+00 -0.69860456063E+03  0.69860456063E+03  0.00000000000E+00 0. -1.
         25    2    1    2    0    0  0.13175605262E+02 -0.41014285249E+03  0.24709154042E+03  0.49506817963E+03  0.12509003603E+03 0.  0.
         23    2    1    2    0    0 -0.13175605262E+02  0.41014285249E+03 -0.49755635503E+03  0.65167612702E+03  0.93427469640E+02 0.  0.
          5    1    3    3  502    0 -0.91033544558E+01 -0.87323826109E+02  0.11687561171E+03  0.14623851299E+03  0.41800000000E+01 0. -1.
         -5    1    3    3    0  502  0.22278959718E+02 -0.32281902638E+03  0.13021592870E+03  0.34882966664E+03  0.41800000000E+01 0. -1.
        -11    1    4    4    0    0  0.18221740201E+02  0.20304062988E+03 -0.30687745916E+03  0.36841729620E+03  0.00000000000E+00 0. -1.
         11    1    4    4    0    0 -0.31397345463E+02  0.20710222260E+03 -0.19067889587E+03  0.28325883082E+03  0.00000000000E+00 0.  1.
</event>
<event>
 8    1  0.6840084E-009  0.1477306E+03  0.7561462E-02  0.1203290E+00
          2   -1    0    0  501    0  0.00000000000E+00  0.00000000000E+00  0.11844269628E+03  0.11844269628E+03  0.00000000000E+00 0. -1.
         -2   -1    0    0    0  501 -0.00000000000E+00 -0.00000000000E+00 -0.20518551785E+03  0.20518551785E+03  0.00000000000E+00 0.  1.
         25    2    1    2    0    0 -0.97488998862E+01  0.10313928881E+03 -0.87485567983E+02  0.18448382081E+03  0.12509117312E+03 0.  0.
         23    2    1    2    0    0  0.97488998862E+01 -0.10313928881E+03  0.74274641428E+00  0.13914439331E+03  0.92886256098E+02 0.  0.
          5    1    3    3  502    0  0.50697949537E+02  0.79990346435E+02 -0.68317529867E+02  0.11684817028E+03  0.41800000000E+01 0.  1.
         -5    1    3    3    0  502 -0.60446849423E+02  0.23148942374E+02 -0.19168038116E+02  0.67635650536E+02  0.41800000000E+01 0.  1.
        -11    1    4    4    0    0  0.37392042511E+02 -0.10143484753E+03  0.12945461442E+02  0.10887964966E+03  0.00000000000E+00 0.  1.
         11    1    4    4    0    0 -0.27643142625E+02 -0.17044412746E+01 -0.12202715027E+02  0.30264743652E+02  0.00000000000E+00 0. -1.
</event>
<event>
 8    1  0.6840084E-009  0.1497185E+03  0.7561462E-02  0.1200819E+00
         -2   -1    0    0    0  501 -0.00000000000E+00  0.00000000000E+00  0.50083884370E+02  0.50083884370E+02  0.00000000000E+00 0.  1.
          2   -1    0    0  501    0  0.00000000000E+00 -0.00000000000E+00 -0.75556238257E+03  0.75556238257E+03  0.00000000000E+00 0. -1.
         25    2    1    2    0    0 -0.51571334186E+02 -0.12961909841E+03 -0.53292623153E+03  0.56490577744E+03  0.12508979156E+03 0.  0.
         23    2    1    2    0    0  0.51571334186E+02  0.12961909841E+03 -0.17255226667E+03  0.24074048950E+03  0.93386216160E+02 0.  0.
          5    1    3    3  502    0 -0.19273320965E+02 -0.99026153963E+01 -0.50402807782E+01  0.22636243572E+02  0.41800000000E+01 0.  1.
         -5    1    3    3    0  502 -0.32298013221E+02 -0.11971648301E+03 -0.52788595075E+03  0.54226953387E+03  0.41800000000E+01 0.  1.
        -11    1    4    4    0    0 -0.89616680701E+01  0.61597313945E+02 -0.12108048522E+03  0.13614339676E+03  0.00000000000E+00 0. -1.
         11    1    4    4    0    0  0.60533002256E+02  0.68021784463E+02 -0.51471781447E+02  0.10459709274E+03  0.00000000000E+00 0.  1.
</event>
<event>
 8    1  0.6840084E-009  0.1574341E+03  0.7561462E-02  0.1191624E+00
          4   -1    0    0  501    0  0.00000000000E+00  0.00000000000E+00  0.21277049711E+03  0.21277049711E+03  0.00000000000E+00 0. -1.
         -4   -1    0    0    0  501 -0.00000000000E+00 -0.00000000000E+00 -0.14080733374E+03  0.14080733374E+03  0.00000000000E+00 0.  1.
         25    2    1    2    0    0 -0.57436469110E+02 -0.11997003052E+03  0.15061816732E+02  0.18321070230E+03  0.12509015512E+03 0.  0.
         23    2    1    2    0    0  0.57436469110E+02  0.11997003052E+03  0.56901346640E+02  0.17036712854E+03  0.89974657719E+02 0.  0.
          5    1    3    3  502    0 -0.37898638799E+02  0.51617579056E+01  0.38403200921E+02  0.54362016229E+02  0.41800000000E+01 0.  1.
         -5    1    3    3    0  502 -0.19537830311E+02 -0.12513178842E+03 -0.23341384189E+02  0.12884868607E+03  0.41800000000E+01 0.  1.
        -11    1    4    4    0    0  0.62534515180E+02  0.51487908774E+02 -0.28235220636E+00  0.81004012626E+02  0.00000000000E+00 0.  1.
         11    1    4    4    0    0 -0.50980460701E+01  0.68482121744E+02  0.57183698846E+02  0.89363115915E+02  0.00000000000E+00 0. -1.
</event>
<event>
 8    1  0.6840084E-009  0.2087064E+03  0.7561462E-02  0.1142594E+00
         -2   -1    0    0    0  501 -0.00000000000E+00  0.00000000000E+00  0.23270332349E+04  0.23270332349E+04  0.00000000000E+00 0.  1.
          2   -1    0    0  501    0  0.00000000000E+00 -0.00000000000E+00 -0.28162758174E+02  0.28162758174E+02  0.00000000000E+00 0. -1.
         25    2    1    2    0    0 -0.37916583520E+02  0.18713762013E+03  0.17836655701E+04  0.17982125842E+04  0.12508987002E+03 0.  0.
         23    2    1    2    0    0  0.37916583520E+02 -0.18713762013E+03  0.51520490654E+03  0.55698340886E+03  0.91303153549E+02 0.  0.
          5    1    3    3  502    0 -0.47460503434E+02  0.12542235350E+02  0.26824922842E+03  0.27273600423E+03  0.41800000000E+01 0.  1.
         -5    1    3    3    0  502  0.95439199146E+01  0.17459538478E+03  0.15154163417E+04  0.15254765799E+04  0.41800000000E+01 0.  1.
        -11    1    4    4    0    0  0.69214481773E+01 -0.10840068305E+03  0.17141345649E+03  0.20293148498E+03  0.00000000000E+00 0. -1.
         11    1    4    4    0    0  0.30995135343E+02 -0.78736937086E+02  0.34379145005E+03  0.35405192388E+03  0.00000000000E+00 0.  1.
</event>
<event>
 8    1  0.6840084E-009  0.1250906E+03  0.7561462E-02  0.1234928E+00
         -3   -1    0    0    0  501 -0.00000000000E+00  0.00000000000E+00  0.64700844822E+03  0.64700844822E+03  0.00000000000E+00 0.  1.
          3   -1    0    0  501    0  0.00000000000E+00 -0.00000000000E+00 -0.37320438189E+02  0.37320438189E+02  0.00000000000E+00 0. -1.
         25    2    1    2    0    0  0.24951899255E+02 -0.10772092937E+03  0.34140358970E+03  0.38004517262E+03  0.12510606008E+03 0.  0.
         23    2    1    2    0    0 -0.24951899255E+02  0.10772092937E+03  0.26828442033E+03  0.30428371379E+03  0.91573207789E+02 0.  0.
          5    1    3    3  502    0 -0.15010569392E+02 -0.50866707694E+02  0.28645573306E+03  0.29135390601E+03  0.41800000000E+01 0.  1.
         -5    1    3    3    0  502  0.39962468647E+02 -0.56854221679E+02  0.54947856643E+02  0.88691266609E+02  0.41800000000E+01 0.  1.
        -11    1    4    4    0    0 -0.45789859464E+02  0.61623681910E+02  0.86802810313E+02  0.11588320534E+03  0.00000000000E+00 0. -1.
         11    1    4    4    0    0  0.20837960209E+02  0.46097247462E+02  0.18148161002E+03  0.18840050845E+03  0.00000000000E+00 0.  1.
</event>
<event>
 8    1  0.6840084E-009  0.1073146E+03  0.7561462E-02  0.1265625E+00
          1   -1    0    0  501    0  0.00000000000E+00  0.00000000000E+00  0.67736052875E+03  0.67736052875E+03  0.00000000000E+00 0. -1.
         -1   -1    0    0    0  501 -0.00000000000E+00 -0.00000000000E+00 -0.21351662746E+02  0.21351662746E+02  0.00000000000E+00 0.  1.
         25    2    1    2    0    0  0.38553763920E+02 -0.30897391557E+01  0.26992812084E+03  0.30000940796E+03  0.12509402561E+03 0.  0.
         23    2    1    2    0    0 -0.38553763920E+02  0.30897391557E+01  0.38608074516E+03  0.39870278354E+03  0.91704027251E+02 0.  0.
          5    1    3    3  502    0 -0.73561265167E+01 -0.49275458958E+02  0.19182363318E+03  0.19823209150E+03  0.41800000000E+01 0.  1.
         -5    1    3    3    0  502  0.45909890436E+02  0.46185719802E+02  0.78104487665E+02  0.10177731647E+03  0.41800000000E+01 0.  1.
        -11    1    4    4    0    0 -0.62449206000E+02 -0.20570117760E+02  0.26560143655E+03  0.27361863272E+03  0.00000000000E+00 0.  1.
         11    1    4    4    0    0  0.23895442080E+02  0.23659856916E+02  0.12047930861E+03  0.12508415081E+03  0.00000000000E+00 0. -1.
</event>
<event>
 8    1  0.6840084E-009  0.1190826E+03  0.7561462E-02  0.1244618E+00
          2   -1    0    0  501    0  0.00000000000E+00  0.00000000000E+00  0.34766365719E+03  0.34766365719E+03  0.00000000000E+00 0. -1.
         -2   -1    0    0    0  501 -0.00000000000E+00 -0.00000000000E+00 -0.49353786404E+02  0.49353786404E+02  0.00000000000E+00 0.  1.
         25    2    1    2    0    0 -0.49817334552E+02  0.55185101844E+02  0.17030100834E+03  0.22400047851E+03  0.12508644468E+03 0.  0.
         23    2    1    2    0    0  0.49817334552E+02 -0.55185101844E+02  0.12800886244E+03  0.17301696508E+03  0.89562486876E+02 0.  0.
          5    1    3    3  502    0 -0.88541950594E+01 -0.30033290194E+02  0.10334829250E+03  0.10806820648E+03  0.41800000000E+01 0.  1.
         -5    1    3    3    0  502 -0.40963139492E+02  0.85218392038E+02  0.66952715846E+02  0.11593227203E+03  0.41800000000E+01 0.  1.
        -11    1    4    4    0    0  0.52271234272E+02  0.42517678783E+01  0.83972323890E+02  0.99003589036E+02  0.00000000000E+00 0.  1.
         11    1    4    4    0    0 -0.24538997204E+01 -0.59436869722E+02  0.44036538550E+02  0.74013376046E+02  0.00000000000E+00 0. -1.
</event>
<event>
 8    1  0.6840084E-009  0.9583769E+02  0.7561462E-02  0.1289300E+00
          3   -1    0    0  501    0  0.00000000000E+00  0.00000000000E+00  0.56946091928E+02  0.56946091928E+02  0.00000000000E+00 0. -1.
         -3   -1    0    0    0  501 -0.00000000000E+00 -0.00000000000E+00 -0.27643726469E+03  0.27643726469E+03  0.00000000000E+00 0.  1.
         25    2    1    2    0    0  0.33250667401E+02  0.52223689639E+02 -0.13711549714E+03  0.19565493851E+03  0.12508906734E+03 0.  0.
         23    2    1    2    0    0 -0.33250667401E+02 -0.52223689639E+02 -0.82375675623E+02  0.13772841810E+03  0.91380766998E+02 0.  0.
          5    1    3    3  502    0  0.20537941075E+02  0.68655038040E+02 -0.15311203115E+03  0.16910377806E+03  0.41800000000E+01 0.  1.
         -5    1    3    3    0  502  0.12712726326E+02 -0.16431348401E+02  0.15996534012E+02  0.26551160451E+02  0.41800000000E+01 0.  1.
        -11    1    4    4    0    0  0.12489844888E+02 -0.51460123696E+02 -0.12831170485E+02  0.54486507432E+02  0.00000000000E+00 0. -1.
         11    1    4    4    0    0 -0.45740512289E+02 -0.76356594289E+00 -0.69544505139E+02  0.83241910672E+02  0.00000000000E+00 0.  1.
</event>
<event>
 8    1  0.6840084E-009  0.1190457E+03  0.7561462E-02  0.1244680E+00
         -2   -1    0    0    0  501 -0.00000000000E+00  0.00000000000E+00  0.19265262493E+03  0.19265262493E+03  0.00000000000E+00 0.  1.
          2   -1    0    0  501    0  0.00000000000E+00 -0.00000000000E+00 -0.73969397710E+02  0.73969397710E+02  0.00000000000E+00 0. -1.
         25    2    1    2    0    0 -0.12603207438E+01 -0.48977744399E+02  0.69192234894E+02  0.15111327309E+03  0.12508896066E+03 0.  0.
         23    2    1    2    0    0  0.12603207438E+01  0.48977744399E+02  0.49490992324E+02  0.11550874955E+03  0.92154788514E+02 0.  0.
          5    1    3    3  502    0  0.51627744742E+02  0.11850187765E+02  0.33850587527E+02  0.63001473420E+02  0.41800000000E+01 0. -1.
         -5    1    3    3    0  502 -0.52888065486E+02 -0.60827932164E+02  0.35341647367E+02  0.88111799669E+02  0.41800000000E+01 0. -1.
        -11    1    4    4    0    0  0.15630353955E+02  0.73867333097E+02  0.33281364354E+02  0.82512666160E+02  0.00000000000E+00 0.  1.
         11    1    4    4    0    0 -0.14370033211E+02 -0.24889588698E+02  0.16209627969E+02  0.32996083388E+02  0.00000000000E+00 0. -1.
</event>
<event>
 8    1  0.6840084E-009  0.8271916E+02  0.7561462E-02  0.1321507E+00
          1   -1    0    0  501    0  0.00000000000E+00  0.00000000000E+00  0.12105991873E+03  0.12105991873E+03  0.00000000000E+00 0. -1.
         -1   -1    0    0    0  501 -0.00000000000E+00 -0.00000000000E+00 -0.10007612483E+03  0.10007612483E+03  0.00000000000E+00 0.  1.
         25    2    1    2    0    0 -0.17899034354E+02  0.12133312167E+02  0.42637022842E+01  0.12700963304E+03  0.12508267279E+03 0.  0.
         23    2    1    2    0    0  0.17899034354E+02 -0.12133312167E+02  0.16720091615E+02  0.94126410520E+02  0.90070122676E+02 0.  0.
          5    1    3    3  502    0 -0.59426427512E+02  0.14097490296E+02  0.39074021402E+02  0.72625691515E+02  0.41800000000E+01 0. -1.
         -5    1    3    3    0  502  0.41527393159E+02 -0.19641781287E+01 -0.34810319118E+02  0.54383941521E+02  0.41800000000E+01 0. -1.
        -11    1    4    4    0    0  0.14622065312E+02  0.22943498062E+02 -0.26762552364E+02  0.38163373886E+02  0.00000000000E+00 0.  1.
         11    1    4    4    0    0  0.32769690423E+01 -0.35076810230E+02  0.43482643979E+02  0.55963036635E+02  0.00000000000E+00 0. -1.
</event>
<event>
 8    1  0.6840084E-009  0.8537498E+02  0.7561462E-02  0.1314455E+00
         -3   -1    0    0    0  501 -0.00000000000E+00  0.00000000000E+00  0.16327968719E+03  0.16327968719E+03  0.00000000000E+00 0.  1.
          3   -1    0    0  501    0  0.00000000000E+00 -0.00000000000E+00 -0.86970641627E+02  0.86970641627E+02  0.00000000000E+00 0. -1.
         25    2    1    2    0    0 -0.33471899585E+02  0.71406212694E+01  0.66331413473E+01  0.12985731001E+03  0.12509023089E+03 0.  0.
         23    2    1    2    0    0  0.33471899585E+02 -0.71406212694E+01  0.69675904214E+02  0.12039301881E+03  0.92023860033E+02 0.  0.
          5    1    3    3  502    0 -0.32794463447E+02  0.47338671951E+02 -0.38401125474E+02  0.69343676947E+02  0.41800000000E+01 0.  1.
         -5    1    3    3    0  502 -0.67743613758E+00 -0.40198050681E+02  0.45034266821E+02  0.60513633062E+02  0.41800000000E+01 0.  1.
        -11    1    4    4    0    0  0.41453652414E+02 -0.28154621328E+02  0.80981118040E+02  0.95231452155E+02  0.00000000000E+00 0.  1.
         11    1    4    4    0    0 -0.79817528295E+01  0.21014000059E+02 -0.11305213826E+02  0.25161566651E+02  0.00000000000E+00 0. -1.
</event>
<event>
 8    1  0.6840084E-009  0.1375216E+03  0.7561462E-02  0.1216703E+00
          1   -1    0    0  501    0  0.00000000000E+00  0.00000000000E+00  0.93325264241E+02  0.93325264241E+02  0.00000000000E+00 0. -1.
         -1   -1    0    0    0  501 -0.00000000000E+00 -0.00000000000E+00 -0.21174544181E+03  0.21174544181E+03  0.00000000000E+00 0.  1.
         25    2    1    2    0    0  0.85264715386E+02 -0.12644723891E+02 -0.38732132881E+02  0.15677194846E+03  0.12508918808E+03 0.  0.
         23    2    1    2    0    0 -0.85264715386E+02  0.12644723891E+02 -0.79688044689E+02  0.14829875759E+03  0.90622162321E+02 0.  0.
          5    1    3    3  502    0 -0.97778998883E+01  0.40921031026E+02 -0.54277565659E+01  0.42627116344E+02  0.41800000000E+01 0. -1.
         -5    1    3    3    0  502  0.95042615274E+02 -0.53565754917E+02 -0.33304376315E+02  0.11414483212E+03  0.41800000000E+01 0. -1.
        -11    1    4    4    0    0 -0.19621706540E+01  0.36798900357E+02 -0.34586415541E+02  0.50539383862E+02  0.00000000000E+00 0.  1.
         11    1    4    4    0    0 -0.83302544732E+02 -0.24154176466E+02 -0.45101629148E+02  0.97759373726E+02  0.00000000000E+00 0. -1.
</event>
<event>
 8    1  0.6840084E-009  0.1141019E+03  0.7561462E-02  0.1253157E+00
         -1   -1    0    0    0  501 -0.00000000000E+00  0.00000000000E+00  0.73329614671E+02  0.73329614671E+02  0.00000000000E+00 0.  1.
          1   -1    0    0  501    0  0.00000000000E+00 -0.00000000000E+00 -0.22897277753E+03  0.22897277753E+03  0.00000000000E+00 0. -1.
         25    2    1    2    0    0 -0.64561057780E+02 -0.19605011441E+02 -0.58600967271E+02  0.15373171740E+03  0.12508749303E+03 0.  0.
         23    2    1    2    0    0  0.64561057780E+02  0.19605011441E+02 -0.97042195585E+02  0.14857067480E+03  0.90019836879E+02 0.  0.
          5    1    3    3  502    0 -0.37003928784E+02  0.43768825182E+02 -0.61845328357E+02  0.84423443681E+02  0.41800000000E+01 0. -1.
         -5    1    3    3    0  502 -0.27557128995E+02 -0.63373836623E+02  0.32443610858E+01  0.69308273717E+02  0.41800000000E+01 0. -1.
        -11    1    4    4    0    0  0.95538813257E+01 -0.27482407605E+02 -0.61226841586E+02  0.67788535217E+02  0.00000000000E+00 0. -1.
         11    1    4    4    0    0  0.55007176454E+02  0.47087419046E+02 -0.35815353999E+02  0.80782139585E+02  0.00000000000E+00 0.  1.
</event>
<event>
 8    1  0.6840084E-009  0.2643865E+03  0.7561462E-02  0.1104536E+00
          1   -1    0    0  501    0  0.00000000000E+00  0.00000000000E+00  0.74330522572E+03  0.74330522572E+03  0.00000000000E+00 0. -1.
         -1   -1    0    0    0  501 -0.00000000000E+00 -0.00000000000E+00 -0.11338377412E+03  0.11338377412E+03  0.00000000000E+00 0.  1.
         25    2    1    2    0    0  0.24587660220E+03  0.18461680882E+02  0.16370989714E+03  0.32131541327E+03  0.12508607922E+03 0.  0.
         23    2    1    2    0    0 -0.24587660220E+03 -0.18461680882E+02  0.46621155446E+03  0.53537358657E+03  0.92062622800E+02 0.  0.
          5    1    3    3  502    0  0.97173069114E+02  0.67285004906E+02  0.87915079340E+02  0.14736489006E+03  0.41800000000E+01 0. -1.
         -5    1    3    3    0  502  0.14870353309E+03 -0.48823324024E+02  0.75794817796E+02  0.17395052321E+03  0.41800000000E+01 0. -1.
        -11    1    4    4    0    0 -0.23705004452E+03 -0.41086053973E+01  0.38276539995E+03  0.45024321832E+03  0.00000000000E+00 0. -1.
         11    1    4    4    0    0 -0.88265576823E+01 -0.14353075485E+02  0.83446154504E+02  0.85130368247E+02  0.00000000000E+00 0.  1.
</event>
<event>
 8    1  0.6840084E-009  0.1527360E+03  0.7561462E-02  0.1197151E+00
         -2   -1    0    0    0  501 -0.00000000000E+00  0.00000000000E+00  0.11095667496E+03  0.11095667496E+03  0.00000000000E+00 0.  1.
          2   -1    0    0  501    0  0.00000000000E+00 -0.00000000000E+00 -0.23381546168E+03  0.23381546168E+03  0.00000000000E+00 0. -1.
         25    2    1    2    0    0  0.11398426222E+03  0.25970515092E+02 -0.97460918296E+02  0.19701548801E+03  0.12509833026E+03 0.  0.
         23    2    1    2    0    0 -0.11398426222E+03 -0.25970515092E+02 -0.25397868421E+02  0.14775664862E+03  0.86718485944E+02 0.  0.
          5    1    3    3  502    0  0.97236762641E+02 -0.29636501072E+02 -0.26325104548E+02  0.10508945587E+03  0.41800000000E+01 0.  1.
         -5    1    3    3    0  502  0.16747499579E+02  0.55607016164E+02 -0.71135813748E+02  0.91926032148E+02  0.41800000000E+01 0.  1.
        -11    1    4    4    0    0 -0.25404532010E+02 -0.47930973729E+02 -0.11321629229E+02  0.55416132829E+02  0.00000000000E+00 0.  1.
         11    1    4    4    0    0 -0.88579730210E+02  0.21960458638E+02 -0.14076239192E+02  0.92340515796E+02  0.00000000000E+00 0. -1.
</event>
<event>
 8    1  0.6840084E-009  0.1091410E+03  0.7561462E-02  0.1262169E+00
         -1   -1    0    0    0  501 -0.00000000000E+00  0.00000000000E+00  0.96796582295E+02  0.96796582295E+02  0.00000000000E+00 0.  1.
          1   -1    0    0  501    0  0.00000000000E+00 -0.00000000000E+00 -0.18933355013E+03  0.18933355013E+03  0.00000000000E+00 0. -1.
         25    2    1    2    0    0  0.58074740157E+02  0.45990439925E+02 -0.13939221283E+02  0.14604500126E+03  0.12508814689E+03 0.  0.
         23    2    1    2    0    0 -0.58074740157E+02 -0.45990439925E+02 -0.78597746556E+02  0.14008513117E+03  0.89210101461E+02 0.  0.
          5    1    3    3  502    0  0.77475100362E+02  0.22935275386E+02 -0.52861828817E+02  0.96645038047E+02  0.41800000000E+01 0.  1.
         -5    1    3    3    0  502 -0.19400360205E+02  0.23055164539E+02  0.38922607534E+02  0.49399963211E+02  0.41800000000E+01 0.  1.
        -11    1    4    4    0    0 -0.47656738708E+02 -0.67748641205E+02 -0.80985651898E+02  0.11584351058E+03  0.00000000000E+00 0. -1.
         11    1    4    4    0    0 -0.10418001449E+02  0.21758201280E+02  0.23879053423E+01  0.24241620594E+02  0.00000000000E+00 0.  1.
</event>
<event>
 8    1  0.6840084E-009  0.9264415E+02  0.7561462E-02  0.1296572E+00
          2   -1    0    0  501    0  0.00000000000E+00  0.00000000000E+00  0.30184072272E+04  0.30184072272E+04  0.00000000000E+00 0. -1.
         -2   -1    0    0    0  501 -0.00000000000E+00 -0.00000000000E+00 -0.76428932817E+01  0.76428932817E+01  0.00000000000E+00 0.  1.
         25    2    1    2    0    0 -0.44619161654E+01  0.59901669260E+01  0.26731425107E+04  0.26760781040E+04  0.12508934842E+03 0.  0.
         23    2    1    2    0    0  0.44619161654E+01 -0.59901669260E+01  0.33762182324E+03  0.34997201656E+03  0.91848386228E+02 0.  0.
          5    1    3    3  502    0 -0.29768372430E+02  0.43516426272E+02  0.22266072122E+04  0.22272352783E+04  0.41800000000E+01 0. -1.
         -5    1    3    3    0  502  0.25306456265E+02 -0.37526259346E+02  0.44653529853E+03  0.44884282561E+03  0.41800000000E+01 0. -1.
        -11    1    4    4    0    0  0.71107269928E+01 -0.46151291191E+02  0.12210684968E+03  0.13073097129E+03  0.00000000000E+00 0.  1.
         11    1    4    4    0    0 -0.26488108274E+01  0.40161124265E+02  0.21551497356E+03  0.21924104527E+03  0.00000000000E+00 0. -1.
</event>
<event>
 8    1  0.6840084E-009  0.8683165E+02  0.7561462E-02  0.1310711E+00
         -1   -1    0    0    0  501 -0.00000000000E+00  0.00000000000E+00  0.64542977853E+02  0.64542977853E+02  0.00000000000E+00 0.  1.
          1   -1    0    0  501    0  0.00000000000E+00 -0.00000000000E+00 -0.34072800417E+03  0.34072800417E+03  0.00000000000E+00 0. -1.
         25    2    1    2    0    0  0.34171629668E+02 -0.21257749443E+02 -0.19324886020E+02  0.13281897554E+03  0.12509131408E+03 0.  0.
         23    2    1    2    0    0 -0.34171629668E+02  0.21257749443E+02 -0.25686014030E+03  0.27245200648E+03  0.81445515395E+02 0.  0.
          5    1    3    3  502    0 -0.23376243542E+02 -0.31527274005E+02  0.35114655296E+02  0.52829245545E+02  0.41800000000E+01 0.  1.
         -5    1    3    3    0  502  0.57547873210E+02  0.10269524562E+02 -0.54439541317E+02  0.79989729994E+02  0.41800000000E+01 0.  1.
        -11    1    4    4    0    0  0.19310122036E+01  0.36390026044E+02 -0.49714727420E+02  0.61640221658E+02  0.00000000000E+00 0.  1.
         11    1    4    4    0    0 -0.36102641872E+02 -0.15132276601E+02 -0.20714541288E+03  0.21081178483E+03  0.00000000000E+00 0. -1.
</event>
<event>
 8    1  0.6840084E-009  0.1626971E+03  0.7561462E-02  0.1185685E+00
          2   -1    0    0  501    0  0.00000000000E+00  0.00000000000E+00  0.14429279183E+04  0.14429279183E+04  0.00000000000E+00 0.  1.
         -2   -1    0    0    0  501 -0.00000000000E+00 -0.00000000000E+00 -0.23621816462E+02  0.23621816462E+02  0.00000000000E+00 0. -1.
         25    2    1    2    0    0  0.14063631558E+03 -0.44222965179E+02  0.84656971043E+03  0.86836750843E+03  0.12509041204E+03 0.  0.
         23    2    1    2    0    0 -0.14063631558E+03  0.44222965179E+02  0.57273639145E+03  0.59818222636E+03  0.89781723857E+02 0.  0.
          5    1    3    3  502    0  0.12288693617E+03 -0.21783382003E+02  0.36193305968E+03  0.38286907279E+03  0.41800000000E+01 0.  1.
         -5    1    3    3    0  502  0.17749379408E+02 -0.22439583176E+02  0.48463665075E+03  0.48549843564E+03  0.41800000000E+01 0.  1.
        -11    1    4    4    0    0 -0.14320549078E+03  0.16940722890E+02  0.50274841541E+03  0.52302081209E+03  0.00000000000E+00 0. -1.
         11    1    4    4    0    0  0.25691752049E+01  0.27282242289E+02  0.69987976043E+02  0.75161414277E+02  0.00000000000E+00 0.  1.
</event>
<event>
 8    1  0.6840084E-009  0.1087420E+03  0.7561462E-02  0.1262917E+00
         -1   -1    0    0    0  501 -0.00000000000E+00  0.00000000000E+00  0.51232048787E+02  0.51232048787E+02  0.00000000000E+00 0.  1.
          1   -1    0    0  501    0  0.00000000000E+00 -0.00000000000E+00 -0.27965965225E+03  0.27965965225E+03  0.00000000000E+00 0. -1.
         25    2    1    2    0    0 -0.45509408497E+02  0.20170913077E+02 -0.14600488355E+03  0.19860423190E+03  0.12509293711E+03 0.  0.
         23    2    1    2    0    0  0.45509408497E+02 -0.20170913077E+02 -0.82422719912E+02  0.13228746913E+03  0.90711067325E+02 0.  0.
          5    1    3    3  502    0 -0.47031458814E+02  0.65196361292E+02 -0.56606915553E+02  0.98409038875E+02  0.41800000000E+01 0.  1.
         -5    1    3    3    0  502  0.15220503167E+01 -0.45025448216E+02 -0.89397967995E+02  0.10019519303E+03  0.41800000000E+01 0.  1.
        -11    1    4    4    0    0 -0.24520065470E+01 -0.39830953010E+02 -0.66122828346E+01  0.40450456587E+02  0.00000000000E+00 0.  1.
         11    1    4    4    0    0  0.47961415044E+02  0.19660039933E+02 -0.75810437078E+02  0.91837012545E+02  0.00000000000E+00 0. -1.
</event>
<event>
 8    1  0.6840084E-009  0.9871024E+02  0.7561462E-02  0.1283032E+00
          2   -1    0    0  501    0  0.00000000000E+00  0.00000000000E+00  0.78310217658E+03  0.78310217658E+03  0.00000000000E+00 0.  1.
         -2   -1    0    0    0  501 -0.00000000000E+00 -0.00000000000E+00 -0.32370585839E+02  0.32370585839E+02  0.00000000000E+00 0. -1.
         25    2    1    2    0    0 -0.84717551020E+02  0.86712270533E+01  0.59869083213E+03  0.61751934003E+03  0.12508864540E+03 0.  0.
         23    2    1    2    0    0  0.84717551020E+02 -0.86712270533E+01  0.15204075862E+03  0.19795342240E+03  0.93898410675E+02 0.  0.
          5    1    3    3  502    0  0.66182987898E+01 -0.67905386740E+01 -0.12649964064E+01  0.10439631711E+02  0.41800000000E+01 0. -1.
         -5    1    3    3    0  502 -0.91335849810E+02  0.15461765727E+02  0.59995582853E+03  0.60707970832E+03  0.41800000000E+01 0. -1.
        -11    1    4    4    0    0  0.69529506480E+02  0.10016078549E+02  0.15820186617E+03  0.17309680690E+03  0.00000000000E+00 0.  1.
         11    1    4    4    0    0  0.15188044540E+02 -0.18687305602E+02 -0.61611075475E+01  0.24856615494E+02  0.00000000000E+00 0. -1.
</event>
<event>
 8    1  0.6840084E-009  0.8844801E+02  0.7561462E-02  0.1306654E+00
          2   -1    0    0  501    0  0.00000000000E+00  0.00000000000E+00  0.32336222583E+03  0.32336222583E+03  0.00000000000E+00 0.  1.
         -2   -1    0    0    0  501 -0.00000000000E+00 -0.00000000000E+00 -0.40752232182E+02  0.40752232182E+02  0.00000000000E+00 0. -1.
         25    2    1    2    0    0  0.15220195227E+02 -0.17126879302E+02  0.20575515208E+03  0.24187629419E+03  0.12507587597E+03 0.  0.
         23    2    1    2    0    0 -0.15220195227E+02  0.17126879302E+02  0.76854841571E+02  0.12223816382E+03  0.92252467087E+02 0.  0.
          5    1    3    3  502    0 -0.41279083986E+02  0.13566125843E+02  0.25736828138E+02  0.50674049253E+02  0.41800000000E+01 0.  1.
         -5    1    3    3    0  502  0.56499279213E+02 -0.30693005145E+02  0.18001832394E+03  0.19120224494E+03  0.41800000000E+01 0.  1.
        -11    1    4    4    0    0 -0.39223422112E+02  0.21008806842E+02  0.85538237914E+02  0.96419069444E+02  0.00000000000E+00 0.  1.
         11    1    4    4    0    0  0.24003226885E+02 -0.38819275396E+01 -0.86833963428E+01  0.25819094375E+02  0.00000000000E+00 0. -1.
</event>
<event>
 8    1  0.6840084E-009  0.1016132E+03  0.7561462E-02  0.1276940E+00
         -2   -1    0    0    0  501 -0.00000000000E+00  0.00000000000E+00  0.29395957593E+02  0.29395957593E+02  0.00000000000E+00 0. -1.
          2   -1    0    0  501    0  0.00000000000E+00 -0.00000000000E+00 -0.42177787674E+03  0.42177787674E+03  0.00000000000E+00 0.  1.
         25    2    1    2    0    0  0.45537022211E+01  0.16277529117E+02 -0.25780467780E+03  0.28706296862E+03  0.12512474535E+03 0.  0.
         23    2    1    2    0    0 -0.45537022211E+01 -0.16277529117E+02 -0.13457724135E+03  0.16411086571E+03  0.92388571796E+02 0.  0.
          5    1    3    3  502    0 -0.40833228142E+02 -0.35463468032E+02 -0.14546009907E+03  0.15524536356E+03  0.41800000000E+01 0. -1.
         -5    1    3    3    0  502  0.45386930363E+02  0.51740997149E+02 -0.11234457873E+03  0.13181760506E+03  0.41800000000E+01 0. -1.
        -11    1    4    4    0    0  0.14071249318E+01 -0.47863789359E+02 -0.34555094517E+02  0.59050629883E+02  0.00000000000E+00 0. -1.
         11    1    4    4    0    0 -0.59608271530E+01  0.31586260243E+02 -0.10002214683E+03  0.10506023583E+03  0.00000000000E+00 0.  1.
</event>
<event>
 8    1  0.6840084E-009  0.1196229E+03  0.7561462E-02  0.1243720E+00
          2   -1    0    0  501    0  0.00000000000E+00  0.00000000000E+00  0.45265046805E+03  0.45265046805E+03  0.00000000000E+00 0. -1.
         -2   -1    0    0    0  501 -0.00000000000E+00 -0.00000000000E+00 -0.57124384107E+02  0.57124384107E+02  0.00000000000E+00 0.  1.
         25    2    1    2    0    0 -0.45411557096E+02 -0.79713588234E+02  0.32666361268E+03  0.36162850633E+03  0.12509834160E+03 0.  0.
         23    2    1    2    0    0  0.45411557096E+02  0.79713588234E+02  0.68862471262E+02  0.14814634583E+03  0.93748782219E+02 0.  0.
          5    1    3    3  502    0  0.10196022422E+02 -0.43378511229E+02  0.22171478585E+02  0.49946981614E+02  0.41800000000E+01 0. -1.
         -5    1    3    3    0  502 -0.55607579517E+02 -0.36335077005E+02  0.30449213410E+03  0.31168152471E+03  0.41800000000E+01 0. -1.
        -11    1    4    4    0    0  0.27609476393E+02  0.98354346228E+02  0.40689979944E+02  0.10996151634E+03  0.00000000000E+00 0.  1.
         11    1    4    4    0    0  0.17802080703E+02 -0.18640757993E+02  0.28172491319E+02  0.38184829488E+02  0.00000000000E+00 0. -1.
</event>
<event>
 8    1  0.6840084E-009  0.1036646E+03  0.7561462E-02  0.1272773E+00
         -1   -1    0    0    0  501 -0.00000000000E+00  0.00000000000E+00  0.12270480302E+03  0.12270480302E+03  0.00000000000E+00 0.  1.
          1   -1    0    0  501    0  0.00000000000E+00 -0.00000000000E+00 -0.12141676596E+03  0.12141676596E+03  0.00000000000E+00 0. -1.
         25    2    1    2    0    0 -0.54767270894E+02 -0.77259481902E+01 -0.17313298062E+02  0.13786589889E+03  0.12509241205E+03 0.  0.
         23    2    1    2    0    0  0.54767270894E+02  0.77259481902E+01  0.18601335116E+02  0.10625567009E+03  0.88798161696E+02 0.  0.
          5    1    3    3  502    0 -0.30050508478E+02 -0.50974774613E+02  0.32208656067E+02  0.67500597274E+02  0.41800000000E+01 0. -1.
         -5    1    3    3    0  502 -0.24716762417E+02  0.43248826423E+02 -0.49521954129E+02  0.70365301620E+02  0.41800000000E+01 0. -1.
        -11    1    4    4    0    0  0.33202337273E+02 -0.36178938307E+02 -0.92478850253E+01  0.49968331519E+02  0.00000000000E+00 0.  1.
         11    1    4    4    0    0  0.21564933621E+02  0.43904886497E+02  0.27849220141E+02  0.56287338566E+02  0.00000000000E+00 0. -1.
</event>
<event>
 8    1  0.6840084E-009  0.5791355E+02  0.7561462E-02  0.1406802E+00
         -2   -1    0    0    0  501 -0.00000000000E+00  0.00000000000E+00  0.15983680015E+02  0.15983680015E+02  0.00000000000E+00 0.  1.
          2   -1    0    0  501    0  0.00000000000E+00 -0.00000000000E+00 -0.82038193472E+03  0.82038193472E+03  0.00000000000E+00 0. -1.
         25    2    1    2    0    0  0.72958326508E+01  0.92267679490E+01 -0.32740874489E+03  0.35068805175E+03  0.12508901226E+03 0.  0.
         23    2    1    2    0    0 -0.72958326508E+01 -0.92267679490E+01 -0.47698950982E+03  0.48567756299E+03  0.90693661805E+02 0.  0.
          5    1    3    3  502    0 -0.64646528467E+01  0.56648772715E+01 -0.33423753447E+03  0.33437416829E+03  0.41800000000E+01 0.  1.
         -5    1    3    3    0  502  0.13760485497E+02  0.35618906774E+01  0.68287895825E+01  0.16313883458E+02  0.41800000000E+01 0.  1.
        -11    1    4    4    0    0  0.39870016674E+02  0.90256403480E+01 -0.21346978800E+03  0.21734863883E+03  0.00000000000E+00 0. -1.
         11    1    4    4    0    0 -0.47165849325E+02 -0.18252408297E+02 -0.26351972182E+03  0.26832892416E+03  0.00000000000E+00 0.  1.
</event>
<event>
 8    1  0.6840084E-009  0.1238130E+03  0.7561462E-02  0.1236936E+00
         -1   -1    0    0    0  501 -0.00000000000E+00  0.00000000000E+00  0.44792370615E+03  0.44792370615E+03  0.00000000000E+00 0.  1.
          1   -1    0    0  501    0  0.00000000000E+00 -0.00000000000E+00 -0.73066623236E+02  0.73066623236E+02  0.00000000000E+00 0. -1.
         25    2    1    2    0    0 -0.75213943608E+02 -0.53512025134E+02  0.37658702695E+02  0.15995779051E+03  0.12509053805E+03 0.  0.
         23    2    1    2    0    0  0.75213943608E+02  0.53512025134E+02  0.33719838022E+03  0.36103253887E+03  0.90116992603E+02 0.  0.
          5    1    3    3  502    0  0.29385069500E+02  0.81686494580E+01 -0.49921222226E+01  0.31186580892E+02  0.41800000000E+01 0.  1.
         -5    1    3    3    0  502 -0.10459901311E+03 -0.61680674592E+02  0.42650824917E+02  0.12877120962E+03  0.41800000000E+01 0.  1.
        -11    1    4    4    0    0  0.46299921445E+02  0.46430230476E+02  0.32000860201E+03  0.32665724298E+03  0.00000000000E+00 0.  1.
         11    1    4    4    0    0  0.28914022163E+02  0.70817946581E+01  0.17189778210E+02  0.34375295899E+02  0.00000000000E+00 0. -1.
</event>
<event>
 8    1  0.6840084E-009  0.2029183E+03  0.7561462E-02  0.1147300E+00
          1   -1    0    0  501    0  0.00000000000E+00  0.00000000000E+00  0.96988523599E+03  0.96988523599E+03  0.00000000000E+00 0. -1.
         -1   -1    0    0    0  501 -0.00000000000E+00 -0.00000000000E+00 -0.53595462964E+02  0.53595462964E+02  0.00000000000E+00 0.  1.
         25    2    1    2    0    0  0.17854947058E+03  0.86735105136E+02  0.41320399539E+03  0.47517142967E+03  0.12508978318E+03 0.  0.
         23    2    1    2    0    0 -0.17854947058E+03 -0.86735105136E+02  0.50308577763E+03  0.54830926929E+03  0.90248895972E+02 0.  0.
          5    1    3    3  502    0  0.11121851250E+03  0.81849784610E+02  0.15222252020E+03  0.20556778157E+03  0.41800000000E+01 0. -1.
         -5    1    3    3    0  502  0.67330958076E+02  0.48853205260E+01  0.26098147519E+03  0.26960364810E+03  0.41800000000E+01 0. -1.
        -11    1    4    4    0    0 -0.98846011815E+02 -0.34242270472E+02  0.37025073677E+03  0.38474494826E+03  0.00000000000E+00 0. -1.
         11    1    4    4    0    0 -0.79703458765E+02 -0.52492834664E+02  0.13283504087E+03  0.16356432102E+03  0.00000000000E+00 0.  1.
</event>
<event>
 8    1  0.6840084E-009  0.1027774E+03  0.7561462E-02  0.1274562E+00
         -1   -1    0    0    0  501 -0.00000000000E+00  0.00000000000E+00  0.13624286066E+03  0.13624286066E+03  0.00000000000E+00 0.  1.
          1   -1    0    0  501    0  0.00000000000E+00 -0.00000000000E+00 -0.11450722556E+03  0.11450722556E+03  0.00000000000E+00 0. -1.
         25    2    1    2    0    0 -0.35077213150E+02 -0.48114937386E+02 -0.15459422927E+02  0.13939835281E+03  0.12508976348E+03 0.  0.
         23    2    1    2    0    0  0.35077213150E+02  0.48114937386E+02  0.37195058025E+02  0.11135173341E+03  0.86430770625E+02 0.  0.
          5    1    3    3  502    0 -0.14601081341E+01 -0.63321826253E+02 -0.55838615404E+02  0.84541167285E+02  0.41800000000E+01 0.  1.
         -5    1    3    3    0  502 -0.33617105016E+02  0.15206888867E+02  0.40379192477E+02  0.54857185525E+02  0.41800000000E+01 0.  1.
        -11    1    4    4    0    0  0.78026850270E+01  0.69717270065E+02  0.25593907390E+02  0.74675482821E+02  0.00000000000E+00 0.  1.
         11    1    4    4    0    0  0.27274528123E+02 -0.21602332679E+02  0.11601150635E+02  0.36676250593E+02  0.00000000000E+00 0. -1.
</event>
<event>
 8    1  0.6840084E-009  0.1024731E+03  0.7561462E-02  0.1275180E+00
         -1   -1    0    0    0  501 -0.00000000000E+00  0.00000000000E+00  0.23023495387E+02  0.23023495387E+02  0.00000000000E+00 0.  1.
          1   -1    0    0  501    0  0.00000000000E+00 -0.00000000000E+00 -0.62285472712E+03  0.62285472712E+03  0.00000000000E+00 0. -1.
         25    2    1    2    0    0 -0.39464172517E+02  0.12470244480E+02 -0.26556958521E+03  0.29645988178E+03  0.12509328123E+03 0.  0.
         23    2    1    2    0    0  0.39464172517E+02 -0.12470244480E+02 -0.33426164652E+03  0.34941834073E+03  0.93002153678E+02 0.  0.
          5    1    3    3  502    0  0.42854388644E+02  0.43893402175E+01 -0.13565370377E+03  0.14239088693E+03  0.41800000000E+01 0. -1.
         -5    1    3    3    0  502 -0.82318561160E+02  0.80809042624E+01 -0.12991588144E+03  0.15406899486E+03  0.41800000000E+01 0. -1.
        -11    1    4    4    0    0 -0.19048881305E+02 -0.60226732932E+01 -0.15552443221E+02  0.25318194302E+02  0.00000000000E+00 0.  1.
         11    1    4    4    0    0  0.58513053822E+02 -0.64475711867E+01 -0.31870920330E+03  0.32410014642E+03  0.00000000000E+00 0. -1.
</event>
<event>
 8    1  0.6840084E-009  0.1458209E+03  0.7561462E-02  0.1205704E+00
         -2   -1    0    0    0  501 -0.00000000000E+00  0.00000000000E+00  0.40565357436E+02  0.40565357436E+02  0.00000000000E+00 0.  1.
          2   -1    0    0  501    0  0.00000000000E+00 -0.00000000000E+00 -0.71935594700E+03  0.71935594700E+03  0.00000000000E+00 0. -1.
         25    2    1    2    0    0  0.90381755761E+02 -0.87562280412E+02 -0.44482217712E+03  0.47890605571E+03  0.12509287037E+03 0.  0.
         23    2    1    2    0    0 -0.90381755761E+02  0.87562280412E+02 -0.23396841245E+03  0.28101524873E+03  0.91609700725E+02 0.  0.
          5    1    3    3  502    0 -0.13827123497E+02 -0.57203780525E+01 -0.84592708733E+00  0.15559564965E+02  0.41800000000E+01 0.  1.
         -5    1    3    3    0  502  0.10420887926E+03 -0.81841902359E+02 -0.44397625003E+03  0.46334649075E+03  0.41800000000E+01 0.  1.
        -11    1    4    4    0    0 -0.69023494283E+02  0.18809599639E+02 -0.62311815973E+02  0.94872578817E+02  0.00000000000E+00 0. -1.
         11    1    4    4    0    0 -0.21358261479E+02  0.68752680773E+02 -0.17165659648E+03  0.18614266991E+03  0.00000000000E+00 0.  1.
</event>
<event>
 8    1  0.6840084E-009  0.9611790E+02  0.7561462E-02  0.1288678E+00
         -2   -1    0    0    0  501 -0.00000000000E+00  0.00000000000E+00  0.93445164178E+02  0.93445164178E+02  0.00000000000E+00 0.  1.
          2   -1    0    0  501    0  0.00000000000E+00 -0.00000000000E+00 -0.13779909078E+03  0.13779909078E+03  0.00000000000E+00 0. -1.
         25    2    1    2    0    0 -0.46584531198E+01  0.31842627069E+02 -0.10302924522E+02  0.12957439141E+03  0.12509084128E+03 0.  0.
         23    2    1    2    0    0  0.46584531198E+01 -0.31842627069E+02 -0.34051002083E+02  0.10166986355E+03  0.90231016437E+02 0.  0.
          5    1    3    3  502    0 -0.27459990314E+02  0.57979490978E+02  0.34340392107E+02  0.72886263261E+02  0.41800000000E+01 0.  1.
         -5    1    3    3    0  502  0.22801537194E+02 -0.26136863909E+02 -0.44643316629E+02  0.56688128149E+02  0.41800000000E+01 0.  1.
        -11    1    4    4    0    0  0.45782901026E+02 -0.11892487867E+02 -0.51278434779E+01  0.47579408075E+02  0.00000000000E+00 0.  1.
         11    1    4    4    0    0 -0.41124447906E+02 -0.19950139202E+02 -0.28923158605E+02  0.54090455475E+02  0.00000000000E+00 0. -1.
</event>
<event>
 8    1  0.6840084E-009  0.1519247E+03  0.7561462E-02  0.1198128E+00
         -1   -1    0    0    0  501 -0.00000000000E+00  0.00000000000E+00  0.47597510343E+02  0.47597510343E+02  0.00000000000E+00 0.  1.
          1   -1    0    0  501    0  0.00000000000E+00 -0.00000000000E+00 -0.92651300742E+03  0.92651300742E+03  0.00000000000E+00 0. -1.
         25    2    1    2    0    0 -0.12826818680E+03  0.11927600083E+02 -0.75129979080E+03  0.77245963711E+03  0.12509004722E+03 0.  0.
         23    2    1    2    0    0  0.12826818680E+03 -0.11927600083E+02 -0.12761570627E+03  0.20165088065E+03  0.88217423398E+02 0.  0.
          5    1    3    3  502    0 -0.12232822652E+03 -0.34181755556E+02 -0.62549823310E+03  0.63827744706E+03  0.41800000000E+01 0.  1.
         -5    1    3    3    0  502 -0.59399602887E+01  0.46109355639E+02 -0.12580155770E+03  0.13418219005E+03  0.41800000000E+01 0.  1.
        -11    1    4    4    0    0  0.27662273067E+02 -0.10154329384E+02 -0.89207135730E+02  0.93947989982E+02  0.00000000000E+00 0. -1.
         11    1    4    4    0    0  0.10060591374E+03 -0.17732706996E+01 -0.38408570544E+02  0.10770289067E+03  0.00000000000E+00 0.  1.
</event>
<event>
 8    1  0.6840084E-009  0.7049114E+02  0.7561462E-02  0.1358431E+00
          2   -1    0    0  501    0  0.00000000000E+00  0.00000000000E+00  0.30921500110E+03  0.30921500110E+03  0.00000000000E+00 0. -1.
         -2   -1    0    0    0  501 -0.00000000000E+00 -0.00000000000E+00 -0.39834300452E+02  0.39834300452E+02  0.00000000000E+00 0.  1.
         25    2    1    2    0    0  0.97668161796E+00 -0.23110110478E+02  0.14655264557E+03  0.19406194024E+03  0.12508927858E+03 0.  0.
         23    2    1    2    0    0 -0.97668161796E+00  0.23110110478E+02  0.12282805508E+03  0.15498736131E+03  0.91647803779E+02 0.  0.
          5    1    3    3  502    0  0.21602631748E+02 -0.13537247527E+02 -0.15660005927E+02  0.30209914840E+02  0.41800000000E+01 0.  1.
         -5    1    3    3    0  502 -0.20625950130E+02 -0.95728629513E+01  0.16221265149E+03  0.16385202540E+03  0.41800000000E+01 0.  1.
        -11    1    4    4    0    0 -0.44618746186E+02  0.54586926092E+01  0.42391145531E+02  0.61787046018E+02  0.00000000000E+00 0.  1.
         11    1    4    4    0    0  0.43642064568E+02  0.17651417869E+02  0.80436909554E+02  0.93200315295E+02  0.00000000000E+00 0. -1.
</event>
<event>
 8    1  0.6840084E-009  0.9780270E+02  0.7561462E-02  0.1284986E+00
         -1   -1    0    0    0  501 -0.00000000000E+00  0.00000000000E+00  0.36727315313E+02  0.36727315313E+02  0.00000000000E+00 0.  1.
          1   -1    0    0  501    0  0.00000000000E+00 -0.00000000000E+00 -0.33410995910E+03  0.33410995910E+03  0.00000000000E+00 0. -1.
         25    2    1    2    0    0 -0.78954843099E+01 -0.24918996724E+02 -0.16778728483E+03  0.21091232539E+03  0.12509252966E+03 0.  0.
         23    2    1    2    0    0  0.78954843099E+01  0.24918996724E+02 -0.12959535896E+03  0.15992494903E+03  0.89987427949E+02 0.  0.
          5    1    3    3  502    0 -0.41343448645E+02  0.27993664380E+02 -0.27312781735E+02  0.57064756526E+02  0.41800000000E+01 0.  1.
         -5    1    3    3    0  502  0.33447964335E+02 -0.52912661104E+02 -0.14047450310E+03  0.15384756886E+03  0.41800000000E+01 0.  1.
        -11    1    4    4    0    0  0.43372949404E+02  0.15477617027E+02 -0.33189364911E+02  0.56765335479E+02  0.00000000000E+00 0.  1.
         11    1    4    4    0    0 -0.35477465094E+02  0.94413796968E+01 -0.96405994045E+02  0.10315961355E+03  0.00000000000E+00 0. -1.
</event>
<event>
 8    1  0.6840084E-009  0.1272854E+03  0.7561462E-02  0.1231540E+00
         -1   -1    0    0    0  501 -0.00000000000E+00  0.00000000000E+00  0.18924896500E+02  0.18924896500E+02  0.00000000000E+00 0.  1.
          1   -1    0    0  501    0  0.00000000000E+00 -0.00000000000E+00 -0.10461118427E+04  0.10461118427E+04  0.00000000000E+00 0. -1.
         25    2    1    2    0    0  0.37520760028E+02  0.63584535767E+02 -0.73547226581E+03  0.74967763076E+03  0.12508515366E+03 0.  0.
         23    2    1    2    0    0 -0.37520760028E+02 -0.63584535767E+02 -0.29171468042E+03  0.31535910847E+03  0.94356302923E+02 0.  0.
          5    1    3    3  502    0 -0.44297755751E+02  0.19857521225E+02 -0.33845536350E+03  0.34194461217E+03  0.41800000000E+01 0. -1.
         -5    1    3    3    0  502  0.81818515778E+02  0.43727014541E+02 -0.39701690232E+03  0.40773301859E+03  0.41800000000E+01 0. -1.
        -11    1    4    4    0    0  0.26183350926E+02 -0.33535457700E+02 -0.16486053189E+03  0.17026212076E+03  0.00000000000E+00 0. -1.
         11    1    4    4    0    0 -0.63704110953E+02 -0.30049078067E+02 -0.12685414853E+03  0.14509698772E+03  0.00000000000E+00 0.  1.
</event>
<event>
 8    1  0.6840084E-009  0.9577644E+02  0.7561462E-02  0.1289437E+00
          2   -1    0    0  501    0  0.00000000000E+00  0.00000000000E+00  0.24967703957E+03  0.24967703957E+03  0.00000000000E+00 0. -1.
         -2   -1    0    0    0  501 -0.00000000000E+00 -0.00000000000E+00 -0.50840554183E+02  0.50840554183E+02  0.00000000000E+00 0.  1.
         25    2    1    2    0    0 -0.13552358599E+02 -0.32715319516E+01  0.14898626500E+03  0.19503409464E+03  0.12508805526E+03 0.  0.
         23    2    1    2    0    0  0.13552358599E+02  0.32715319516E+01  0.49850220380E+02  0.10548349911E+03  0.91909492258E+02 0.  0.
          5    1    3    3  502    0 -0.58417458215E+02 -0.36249039932E+02  0.95207970745E+02  0.11751009494E+03  0.41800000000E+01 0.  1.
         -5    1    3    3    0  502  0.44865099616E+02  0.32977507980E+02  0.53778294259E+02  0.77523999700E+02  0.41800000000E+01 0.  1.
        -11    1    4    4    0    0 -0.20731616362E+02 -0.17173296711E+02  0.58716290281E+02  0.64593535135E+02  0.00000000000E+00 0. -1.
         11    1    4    4    0    0  0.34283974961E+02  0.20444828662E+02 -0.88660699006E+01  0.40889963972E+02  0.00000000000E+00 0.  1.
</event>
<event>
 7    1  0.6840084E-009  0.1264675E+03  0.7561462E-02  0.1232794E+00
          3   -1    0    0  501    0  0.00000000000E+00  0.00000000000E+00  0.93515427729E+02  0.93515427729E+02  0.00000000000E+00 0. -1.
         -3   -1    0    0    0  501 -0.00000000000E+00 -0.00000000000E+00 -0.17866588776E+03  0.17866588776E+03  0.00000000000E+00 0.  1.
         23    2    1    2    0    0  0.63136803401E+02 -0.22146274804E+02 -0.16439029177E+02  0.11449185704E+03  0.91440856393E+02 0.  0.
          5    1    1    2  502    0 -0.96480858333E+02 -0.66599639724E+01 -0.38899820654E+02  0.10432439596E+03  0.41800000000E+01 0. -1.
         -5    1    1    2    0  502  0.33344054932E+02  0.28806238776E+02 -0.29811610203E+02  0.53365062491E+02  0.41800000000E+01 0. -1.
        -11    1    3    3    0    0  0.26880846620E+02 -0.56095262311E+02 -0.97349701329E-01  0.62203439179E+02  0.00000000000E+00 0. -1.
         11    1    3    3    0    0  0.36255956780E+02  0.33948987507E+02 -0.16341679475E+02  0.52288417865E+02  0.00000000000E+00 0.  1.
</event>
<event>
 8    1  0.6840084E-009  0.6321808E+02  0.7561462E-02  0.1384803E+00
         -2   -1    0    0    0  501 -0.00000000000E+00  0.00000000000E+00  0.22880755838E+03  0.22880755838E+03  0.00000000000E+00 0.  1.
          2   -1    0    0  501    0  0.00000000000E+00 -0.00000000000E+00 -0.51140518464E+02  0.51140518464E+02  0.00000000000E+00 0. -1.
         25    2    1    2    0    0 -0.21103935020E+02 -0.41486726297E+02  0.75764115692E+02  0.15347519385E+03  0.12509160391E+03 0.  0.
         23    2    1    2    0    0  0.21103935020E+02  0.41486726297E+02  0.10190292422E+03  0.12647288299E+03  0.58691222811E+02 0.  0.
          5    1    3    3  502    0 -0.32741270865E+02 -0.46344618694E+02  0.10608033542E+03  0.12037576360E+03  0.41800000000E+01 0. -1.
         -5    1    3    3    0  502  0.11637335846E+02  0.48578923972E+01 -0.30316219728E+02  0.33099430248E+02  0.41800000000E+01 0. -1.
        -11    1    4    4    0    0 -0.67867459893E+01  0.19778693867E+02  0.26045819493E+01  0.21072268491E+02  0.00000000000E+00 0. -1.
         11    1    4    4    0    0  0.27890681009E+02  0.21708032430E+02  0.99298342271E+02  0.10540061450E+03  0.00000000000E+00 0.  1.
</event>
<event>
 8    1  0.6840084E-009  0.1211906E+03  0.7561462E-02  0.1241146E+00
         -1   -1    0    0    0  501 -0.00000000000E+00  0.00000000000E+00  0.99398527679E+02  0.99398527679E+02  0.00000000000E+00 0.  1.
          1   -1    0    0  501    0  0.00000000000E+00 -0.00000000000E+00 -0.57058319747E+03  0.57058319747E+03  0.00000000000E+00 0. -1.
         25    2    1    2    0    0 -0.59260141054E+02 -0.18795829120E+02 -0.52680230721E+03  0.54500728619E+03  0.12508886286E+03 0.  0.
         23    2    1    2    0    0  0.59260141054E+02  0.18795829120E+02  0.55617637414E+02  0.12497443896E+03  0.93060417428E+02 0.  0.
          5    1    3    3  502    0 -0.57765815673E+01  0.49751773913E+02 -0.24355955744E+03  0.24869125100E+03  0.41800000000E+01 0.  1.
         -5    1    3    3    0  502 -0.53483559487E+02 -0.68547603032E+02 -0.28324274977E+03  0.29631603520E+03  0.41800000000E+01 0.  1.
        -11    1    4    4    0    0  0.54187507349E+02 -0.25924395919E+02  0.10008436823E+02  0.60897693422E+02  0.00000000000E+00 0. -1.
         11    1    4    4    0    0  0.50726337049E+01  0.44720225039E+02  0.45609200591E+02  0.64076745538E+02  0.00000000000E+00 0.  1.
</event>
<event>
 8    1  0.6840084E-009  0.1411435E+03  0.7561462E-02  0.1211799E+00
         -1   -1    0    0    0  501 -0.00000000000E+00  0.00000000000E+00  0.38335999691E+02  0.38335999691E+02  0.00000000000E+00 0.  1.
          1   -1    0    0  501    0  0.00000000000E+00 -0.00000000000E+00 -0.67441697314E+03  0.67441697314E+03  0.00000000000E+00 0. -1.
         25    2    1    2    0    0  0.10654181942E+03  0.39915030334E+02 -0.41512916091E+03  0.44824464297E+03  0.12508665309E+03 0.  0.
         23    2    1    2    0    0 -0.10654181942E+03 -0.39915030334E+02 -0.22095181254E+03  0.26450832986E+03  0.90557076870E+02 0.  0.
          5    1    3    3  502    0  0.11382159122E+03  0.53350642943E+02 -0.22753945140E+03  0.25998715367E+03  0.41800000000E+01 0.  1.
         -5    1    3    3    0  502 -0.72797717977E+01 -0.13435612609E+02 -0.18758970950E+03  0.18825748929E+03  0.41800000000E+01 0.  1.
        -11    1    4    4    0    0  0.33828692947E+00 -0.33602399014E+02 -0.85395688158E+02  0.91769598525E+02  0.00000000000E+00 0. -1.
         11    1    4    4    0    0 -0.10688010635E+03 -0.63126313203E+01 -0.13555612438E+03  0.17273873134E+03  0.00000000000E+00 0.  1.
</event>
<event>
 8    1  0.6840084E-009  0.9833252E+02  0.7561462E-02  0.1283842E+00
         -1   -1    0    0    0  501 -0.00000000000E+00  0.00000000000E+00  0.43504977656E+03  0.43504977656E+03  0.00000000000E+00 0.  1.
          1   -1    0    0  501    0  0.00000000000E+00 -0.00000000000E+00 -0.32555136898E+02  0.32555136898E+02  0.00000000000E+00 0. -1.
         25    2    1    2    0    0  0.23933918244E+02 -0.80030476671E+01  0.14374088525E+03  0.19221419748E+03  0.12509186387E+03 0.  0.
         23    2    1    2    0    0 -0.23933918244E+02  0.80030476671E+01  0.25875375441E+03  0.27539071598E+03  0.90827637915E+02 0.  0.
          5    1    3    3  502    0  0.68853371228E+01 -0.53570492385E+02  0.17613843598E+02  0.56964246752E+02  0.41800000000E+01 0. -1.
         -5    1    3    3    0  502  0.17048581121E+02  0.45567444718E+02  0.12612704166E+03  0.13524995073E+03  0.41800000000E+01 0. -1.
        -11    1    4    4    0    0  0.27841036879E+02 -0.20485554188E+02  0.80857776390E+02  0.87936120380E+02  0.00000000000E+00 0. -1.
         11    1    4    4    0    0 -0.51774955122E+02  0.28488601855E+02  0.17789597802E+03  0.18745459560E+03  0.00000000000E+00 0.  1.
</event>
<event>
 8    1  0.6840084E-009  0.1078839E+03  0.7561462E-02  0.1264540E+00
          2   -1    0    0  501    0  0.00000000000E+00  0.00000000000E+00  0.60775609145E+03  0.60775609145E+03  0.00000000000E+00 0.  1.
         -2   -1    0    0    0  501 -0.00000000000E+00 -0.00000000000E+00 -0.21678072548E+02  0.21678072548E+02  0.00000000000E+00 0. -1.
         25    2    1    2    0    0  0.74372122495E+01 -0.32885335654E+02  0.29024019541E+03  0.31784291263E+03  0.12509192081E+03 0.  0.
         23    2    1    2    0    0 -0.74372122495E+01  0.32885335654E+02  0.29583782350E+03  0.31159125137E+03  0.91827733784E+02 0.  0.
          5    1    3    3  502    0 -0.14539326603E+02 -0.75356523764E+02  0.13495044696E+03  0.15530322993E+03  0.41800000000E+01 0. -1.
         -5    1    3    3    0  502  0.21976538853E+02  0.42471188110E+02  0.15528974845E+03  0.16253968270E+03  0.41800000000E+01 0. -1.
        -11    1    4    4    0    0 -0.43722257169E+02  0.32736589716E+02  0.11716061561E+03  0.12926689417E+03  0.00000000000E+00 0. -1.
         11    1    4    4    0    0  0.36285044920E+02  0.14874593774E+00  0.17867720789E+03  0.18232435720E+03  0.00000000000E+00 0.  1.
</event>
<event>
 8    1  0.6840084E-009  0.1186645E+03  0.7561462E-02  0.1245317E+00
         -2   -1    0    0    0  501 -0.00000000000E+00  0.00000000000E+00  0.22631958292E+03  0.22631958292E+03  0.00000000000E+00 0.  1.
          2   -1    0    0  501    0  0.00000000000E+00 -0.00000000000E+00 -0.64432580633E+02  0.64432580633E+02  0.00000000000E+00 0. -1.
         25    2    1    2    0    0  0.40692695376E+02  0.35326673698E+02  0.97607340026E+02  0.16756832559E+03  0.12509229225E+03 0.  0.
         23    2    1    2    0    0 -0.40692695376E+02 -0.35326673698E+02  0.64279662263E+02  0.12318383797E+03  0.90213710846E+02 0.  0.
          5    1    3    3  502    0 -0.39586849030E+02 -0.99988030120E+01  0.46699699657E+02  0.62172574547E+02  0.41800000000E+01 0. -1.
         -5    1    3    3    0  502  0.80279544407E+02  0.45325476710E+02  0.50907640369E+02  0.10539575104E+03  0.41800000000E+01 0. -1.
        -11    1    4    4    0    0 -0.68888214959E+02 -0.19181225317E+02  0.52139939109E+02  0.88499032849E+02  0.00000000000E+00 0.  1.
         11    1    4    4    0    0  0.28195519583E+02 -0.16145448380E+02  0.12139723154E+02  0.34684805120E+02  0.00000000000E+00 0. -1.
</event>
<event>
 8    1  0.6840084E-009  0.1195094E+03  0.7561462E-02  0.1243909E+00
         -1   -1    0    0    0  501 -0.00000000000E+00  0.00000000000E+00  0.20326842839E+03  0.20326842839E+03  0.00000000000E+00 0.  1.
          1   -1    0    0  501    0  0.00000000000E+00 -0.00000000000E+00 -0.95363105003E+02  0.95363105003E+02  0.00000000000E+00 0. -1.
         25    2    1    2    0    0 -0.46689136894E+02  0.53423982473E+02  0.47343480975E+01  0.14388863529E+03  0.12509007916E+03 0.  0.
         23    2    1    2    0    0  0.46689136894E+02 -0.53423982473E+02  0.10317097529E+03  0.15474289811E+03  0.90923687590E+02 0.  0.
          5    1    3    3  502    0 -0.44565486242E+01 -0.40180892668E+02 -0.34387889923E+01  0.40788020680E+02  0.41800000000E+01 0.  1.
         -5    1    3    3    0  502 -0.42232588270E+02  0.93604875141E+02  0.81731370898E+01  0.10310061461E+03  0.41800000000E+01 0.  1.
        -11    1    4    4    0    0  0.34253540375E+02 -0.68181050150E+02  0.11034325832E+03  0.13415511651E+03  0.00000000000E+00 0.  1.
         11    1    4    4    0    0  0.12435596519E+02  0.14757067678E+02 -0.71722830337E+01  0.20587781598E+02  0.00000000000E+00 0. -1.
</event>
<event>
 8    1  0.6840084E-009  0.8366833E+02  0.7561462E-02  0.1318952E+00
         -1   -1    0    0    0  501 -0.00000000000E+00  0.00000000000E+00  0.55627556788E+02  0.55627556788E+02  0.00000000000E+00 0.  1.
          1   -1    0    0  501    0  0.00000000000E+00 -0.00000000000E+00 -0.22700053098E+03  0.22700053098E+03  0.00000000000E+00 0. -1.
         25    2    1    2    0    0  0.10726877902E+02  0.67079336672E+01 -0.62799596592E+02  0.14053914577E+03  0.12508956742E+03 0.  0.
         23    2    1    2    0    0 -0.10726877902E+02 -0.67079336672E+01 -0.10857337760E+03  0.14208894200E+03  0.90780101516E+02 0.  0.
          5    1    3    3  502    0 -0.48971804868E+02  0.19073840953E+02  0.26827694276E+00  0.52721849866E+02  0.41800000000E+01 0. -1.
         -5    1    3    3    0  502  0.59698682770E+02 -0.12365907286E+02 -0.63067873534E+02  0.87817295902E+02  0.41800000000E+01 0. -1.
        -11    1    4    4    0    0 -0.50818745804E+01 -0.29546597266E+02  0.10210928287E+01  0.29997824751E+02  0.00000000000E+00 0.  1.
         11    1    4    4    0    0 -0.56450033212E+01  0.22838663598E+02 -0.10959447042E+03  0.11209111724E+03  0.00000000000E+00 0. -1.
</event>
<event>
 8    1  0.6840084E-009  0.1248746E+03  0.7561462E-02  0.1235265E+00
         -2   -1    0    0    0  501 -0.00000000000E+00  0.00000000000E+00  0.39419300733E+03  0.39419300733E+03  0.00000000000E+00 0.  1.
          2   -1    0    0  501    0  0.00000000000E+00 -0.00000000000E+00 -0.52304728181E+02  0.52304728181E+02  0.00000000000E+00 0. -1.
         25    2    1    2    0    0  0.58391855851E+01  0.78886776530E+02  0.10811177559E+03  0.18325732378E+03  0.12505147380E+03 0.  0.
         23    2    1    2    0    0 -0.58391855851E+01 -0.78886776530E+02  0.23377650357E+03  0.26324041174E+03  0.91579698358E+02 0.  0.
          5    1    3    3  502    0  0.35061389678E+02  0.10350095947E+03  0.76008471986E+02  0.13317848877E+03  0.41800000000E+01 0. -1.
         -5    1    3    3    0  502 -0.29222204093E+02 -0.24614182940E+02  0.32103303599E+02  0.50078835009E+02  0.41800000000E+01 0. -1.
        -11    1    4    4    0    0 -0.30180034606E+02 -0.15232502277E+02  0.15692353010E+03  0.16052369892E+03  0.00000000000E+00 0.  1.
         11    1    4    4    0    0  0.24340849021E+02 -0.63654274253E+02  0.76852973462E+02  0.10271671282E+03  0.00000000000E+00 0. -1.
</event>
<event>
 8    1  0.6840084E-009  0.1606717E+03  0.7561462E-02  0.1187941E+00
         -1   -1    0    0    0  501 -0.00000000000E+00  0.00000000000E+00  0.70617843844E+02  0.70617843844E+02  0.00000000000E+00 0.  1.
          1   -1    0    0  501    0  0.00000000000E+00 -0.00000000000E+00 -0.73744702435E+03  0.73744702435E+03  0.00000000000E+00 0. -1.
         25    2    1    2    0    0 -0.97751718798E+02 -0.12374435040E+03 -0.56293938307E+03  0.59784610581E+03  0.12510457398E+03 0.  0.
         23    2    1    2    0    0  0.97751718798E+02  0.12374435040E+03 -0.10388979744E+03  0.21021876239E+03  0.92362196081E+02 0.  0.
          5    1    3    3  502    0 -0.46728891927E+02 -0.28750488128E+02 -0.52247539485E+02  0.75877913062E+02  0.41800000000E+01 0.  1.
         -5    1    3    3    0  502 -0.51022826871E+02 -0.94993862277E+02 -0.51069184359E+03  0.52196819274E+03  0.41800000000E+01 0.  1.
        -11    1    4    4    0    0  0.21633611399E+02  0.38213239496E+02 -0.82902723802E+02  0.93814318890E+02  0.00000000000E+00 0. -1.
         11    1    4    4    0    0  0.76118107399E+02  0.85531110909E+02 -0.20987073637E+02  0.11640444350E+03  0.00000000000E+00 0.  1.
</event>
<event>
 8    1  0.6840084E-009  0.1090746E+03  0.7561462E-02  0.1262293E+00
         -2   -1    0    0    0  501 -0.00000000000E+00  0.00000000000E+00  0.13973599482E+03  0.13973599482E+03  0.00000000000E+00 0.  1.
          2   -1    0    0  501    0  0.00000000000E+00 -0.00000000000E+00 -0.12583061678E+03  0.12583061678E+03  0.00000000000E+00 0. -1.
         25    2    1    2    0    0  0.65144133919E+02 -0.61237041774E+01 -0.30997444807E+02  0.14454712507E+03  0.12510704155E+03 0.  0.
         23    2    1    2    0    0 -0.65144133919E+02  0.61237041774E+01  0.44902822842E+02  0.12101948652E+03  0.91368455619E+02 0.  0.
          5    1    3    3  502    0 -0.20749039482E+02 -0.26389696386E+01  0.31599886003E+02  0.38124952401E+02  0.41800000000E+01 0.  1.
         -5    1    3    3    0  502  0.85893173401E+02 -0.34847345387E+01 -0.62597330810E+02  0.10642217267E+03  0.41800000000E+01 0.  1.
        -11    1    4    4    0    0 -0.19331467371E+02  0.46076400211E+02  0.30532023908E+02  0.58557192308E+02  0.00000000000E+00 0.  1.
         11    1    4    4    0    0 -0.45812666548E+02 -0.39952696033E+02  0.14370798934E+02  0.62462294215E+02  0.00000000000E+00 0. -1.
</event>
<event>
 8    1  0.6840084E-009  0.9885327E+02  0.7561462E-02  0.1282726E+00
          2   -1    0    0  501    0  0.00000000000E+00  0.00000000000E+00  0.21320800274E+03  0.21320800274E+03  0.00000000000E+00 0.  1.
         -2   -1    0    0    0  501 -0.00000000000E+00 -0.00000000000E+00 -0.96907229511E+02  0.96907229511E+02  0.00000000000E+00 0. -1.
         25    2    1    2    0    0 -0.75550218272E+02 -0.32086032015E+02  0.62339556101E+02  0.16208319420E+03  0.12508953855E+03 0.  0.
         23    2    1    2    0    0  0.75550218272E+02  0.32086032015E+02  0.53961217129E+02  0.14803203805E+03  0.11074440124E+03 0.  0.
          5    1    3    3  502    0 -0.60197430921E+02  0.56998099596E+01 -0.25027094391E+02  0.65574738861E+02  0.41800000000E+01 0.  1.
         -5    1    3    3    0  502 -0.15352787351E+02 -0.37785841974E+02  0.87366650491E+02  0.96508455335E+02  0.41800000000E+01 0.  1.
        -11    1    4    4    0    0  0.36431569383E+02  0.42141240403E+02  0.81807644658E+02  0.98972895861E+02  0.00000000000E+00 0.  1.
         11    1    4    4    0    0  0.39118648889E+02 -0.10055208389E+02 -0.27846427530E+02  0.49059142194E+02  0.00000000000E+00 0. -1.
</event>
<event>
 8    1  0.6840084E-009  0.1885728E+03  0.7561462E-02  0.1159755E+00
         -1   -1    0    0    0  501 -0.00000000000E+00  0.00000000000E+00  0.50739547826E+02  0.50739547826E+02  0.00000000000E+00 0.  1.
          1   -1    0    0  501    0  0.00000000000E+00 -0.00000000000E+00 -0.83196702919E+03  0.83196702919E+03  0.00000000000E+00 0. -1.
         25    2    1    2    0    0  0.11310930085E+03 -0.12421380988E+03 -0.46879679848E+03  0.51345975459E+03  0.12509075431E+03 0.  0.
         23    2    1    2    0    0 -0.11310930085E+03  0.12421380988E+03 -0.31243068289E+03  0.36924682243E+03  0.10250609621E+03 0.  0.
          5    1    3    3  502    0  0.12704983378E+03 -0.74129876384E+02 -0.40590193115E+03  0.43175311111E+03  0.41800000000E+01 0. -1.
         -5    1    3    3    0  502 -0.13940532932E+02 -0.50083933499E+02 -0.62894867325E+02  0.81706643481E+02  0.41800000000E+01 0. -1.
        -11    1    4    4    0    0 -0.56967053922E+01  0.42484709534E+02 -0.20269644192E+02  0.47415835669E+02  0.00000000000E+00 0.  1.
         11    1    4    4    0    0 -0.10741259546E+03  0.81729100349E+02 -0.29216103870E+03  0.32183098676E+03  0.00000000000E+00 0. -1.
</event>
<event>
 8    1  0.6840084E-009  0.1593172E+03  0.7561462E-02  0.1189470E+00
          2   -1    0    0  501    0  0.00000000000E+00  0.00000000000E+00  0.38816746696E+02  0.38816746696E+02  0.00000000000E+00 0. -1.
         -2   -1    0    0    0  501 -0.00000000000E+00 -0.00000000000E+00 -0.11401136625E+04  0.11401136625E+04  0.00000000000E+00 0.  1.
         25    2    1    2    0    0  0.44115131973E+02 -0.13084388139E+03 -0.25066905479E+03  0.31233025663E+03  0.12509575536E+03 0.  0.
         23    2    1    2    0    0 -0.44115131973E+02  0.13084388139E+03 -0.85062786103E+03  0.86660015259E+03  0.91442880164E+02 0.  0.
          5    1    3    3  502    0  0.46364994125E+02 -0.37606628675E+02 -0.19422445119E+03  0.20323528493E+03  0.41800000000E+01 0. -1.
         -5    1    3    3    0  502 -0.22498621519E+01 -0.93237252717E+02 -0.56444603597E+02  0.10909497170E+03  0.41800000000E+01 0. -1.
        -11    1    4    4    0    0 -0.18278803807E+02 -0.10946723033E+02 -0.12390934782E+03  0.12572776897E+03  0.00000000000E+00 0. -1.
         11    1    4    4    0    0 -0.25836328166E+02  0.14179060442E+03 -0.72671851321E+03  0.74087238362E+03  0.00000000000E+00 0.  1.
</event>
<event>
 8    1  0.6840084E-009  0.1953199E+03  0.7561462E-02  0.1153749E+00
          1   -1    0    0  501    0  0.00000000000E+00  0.00000000000E+00  0.34174846451E+03  0.34174846451E+03  0.00000000000E+00 0. -1.
         -1   -1    0    0    0  501 -0.00000000000E+00 -0.00000000000E+00 -0.14822659472E+03  0.14822659472E+03  0.00000000000E+00 0.  1.
         25    2    1    2    0    0 -0.14443247187E+03 -0.10804644238E+03  0.18756890342E+03  0.28873323623E+03  0.12510002210E+03 0.  0.
         23    2    1    2    0    0  0.14443247187E+03  0.10804644238E+03  0.59529663640E+01  0.20124182301E+03  0.89039659022E+02 0.  0.
          5    1    3    3  502    0 -0.10489969223E+03 -0.26713922010E+02  0.39739990415E+02  0.11538768694E+03  0.41800000000E+01 0. -1.
         -5    1    3    3    0  502 -0.39532779636E+02 -0.81332520369E+02  0.14782891301E+03  0.17334554928E+03  0.41800000000E+01 0. -1.
        -11    1    4    4    0    0  0.45392953670E+02  0.74456910906E+02  0.32970645263E+02  0.93227760209E+02  0.00000000000E+00 0. -1.
         11    1    4    4    0    0  0.99039518198E+02  0.33589531473E+02 -0.27017678899E+02  0.10801406280E+03  0.00000000000E+00 0.  1.
</event>
<event>
 8    1  0.6840084E-009  0.1075135E+03  0.7561462E-02  0.1265245E+00
         -1   -1    0    0    0  501 -0.00000000000E+00  0.00000000000E+00  0.26533841928E+02  0.26533841928E+02  0.00000000000E+00 0.  1.
          1   -1    0    0  501    0  0.00000000000E+00 -0.00000000000E+00 -0.53625294957E+03  0.53625294957E+03  0.00000000000E+00 0. -1.
         25    2    1    2    0    0  0.41852861600E+02  0.25510954309E+02 -0.26945660991E+03  0.30109163725E+03  0.12508732383E+03 0.  0.
         23    2    1    2    0    0 -0.41852861600E+02 -0.25510954309E+02 -0.24026249773E+03  0.26169515424E+03  0.91410147836E+02 0.  0.
          5    1    3    3  502    0  0.56302094566E+02 -0.24820997975E+02 -0.63414432159E+02  0.88458297513E+02  0.41800000000E+01 0. -1.
         -5    1    3    3    0  502 -0.14449232966E+02  0.50331952284E+02 -0.20604217775E+03  0.21263333974E+03  0.41800000000E+01 0. -1.
        -11    1    4    4    0    0 -0.20850495401E+02 -0.58282083681E+02 -0.17595490849E+03  0.18652526440E+03  0.00000000000E+00 0.  1.
         11    1    4    4    0    0 -0.21002366199E+02  0.32771129372E+02 -0.64307589233E+02  0.75169889844E+02  0.00000000000E+00 0. -1.
</event>
<event>
 8    1  0.6840084E-009  0.7883501E+02  0.7561462E-02  0.1332390E+00
         -1   -1    0    0    0  501 -0.00000000000E+00  0.00000000000E+00  0.37735667735E+03  0.37735667735E+03  0.00000000000E+00 0.  1.
          1   -1    0    0  501    0  0.00000000000E+00 -0.00000000000E+00 -0.39606333064E+02  0.39606333064E+02  0.00000000000E+00 0. -1.
         25    2    1    2    0    0  0.52863633230E+02  0.11252868975E+02  0.16431421592E+03  0.21346518130E+03  0.12508809415E+03 0.  0.
         23    2    1    2    0    0 -0.52863633230E+02 -0.11252868975E+02  0.17343612837E+03  0.20349782911E+03  0.91706515861E+02 0.  0.
          5    1    3    3  502    0  0.15818967422E+02 -0.72139895137E+01  0.17047350047E+03  0.17140877497E+03  0.41800000000E+01 0.  1.
         -5    1    3    3    0  502  0.37044665808E+02  0.18466858489E+02 -0.61592845517E+01  0.42056406331E+02  0.41800000000E+01 0.  1.
        -11    1    4    4    0    0 -0.83700317868E+01 -0.42820514797E+02  0.11760755274E+03  0.12543998717E+03  0.00000000000E+00 0.  1.
         11    1    4    4    0    0 -0.44493601444E+02  0.31567645822E+02  0.55828575634E+02  0.78057841948E+02  0.00000000000E+00 0. -1.
</event>
<event>
 8    1  0.6840084E-009  0.7994414E+02  0.7561462E-02  0.1329210E+00
          2   -1    0    0  501    0  0.00000000000E+00  0.00000000000E+00  0.20911479073E+03  0.20911479073E+03  0.00000000000E+00 0. -1.
         -2   -1    0    0    0  501 -0.00000000000E+00 -0.00000000000E+00 -0.93390822373E+02  0.93390822373E+02  0.00000000000E+00 0.  1.
         25    2    1    2    0    0  0.19680303514E+02 -0.44944539305E+01 -0.29602724589E+02  0.13012376180E+03  0.12509339559E+03 0.  0.
         23    2    1    2    0    0 -0.19680303514E+02  0.44944539305E+01  0.14532669294E+03  0.17238185130E+03  0.90488344632E+02 0.  0.
          5    1    3    3  502    0 -0.94662258225E+01  0.32587511080E+02  0.35718844085E+02  0.49445561302E+02  0.41800000000E+01 0.  1.
         -5    1    3    3    0  502  0.29146529336E+02 -0.37081965010E+02 -0.65321568674E+02  0.80678200497E+02  0.41800000000E+01 0.  1.
        -11    1    4    4    0    0 -0.46434696232E+02 -0.10598394289E+02  0.38551248334E+02  0.61275653597E+02  0.00000000000E+00 0.  1.
         11    1    4    4    0    0  0.26754392718E+02  0.15092848220E+02  0.10677544461E+03  0.11110619770E+03  0.00000000000E+00 0. -1.
</event>
<event>
 8    1  0.6840084E-009  0.1200603E+03  0.7561462E-02  0.1242998E+00
          2   -1    0    0  501    0  0.00000000000E+00  0.00000000000E+00  0.93079302409E+03  0.93079302409E+03  0.00000000000E+00 0.  1.
         -2   -1    0    0    0  501 -0.00000000000E+00 -0.00000000000E+00 -0.16689868694E+02  0.16689868694E+02  0.00000000000E+00 0. -1.
         25    2    1    2    0    0 -0.41906555491E+02 -0.42192901215E+02  0.46853109266E+03  0.48857453594E+03  0.12508913653E+03 0.  0.
         23    2    1    2    0    0  0.41906555491E+02  0.42192901215E+02  0.44557206274E+03  0.45890835684E+03  0.92336431492E+02 0.  0.
          5    1    3    3  502    0  0.34455350078E+00 -0.80723799015E+02  0.25710656407E+03  0.26951383662E+03  0.41800000000E+01 0.  1.
         -5    1    3    3    0  502 -0.42251108992E+02  0.38530897800E+02  0.21142452859E+03  0.21906069932E+03  0.41800000000E+01 0.  1.
        -11    1    4    4    0    0  0.34611442404E+02  0.67369895659E+02  0.39220372540E+03  0.39945014333E+03  0.00000000000E+00 0.  1.
         11    1    4    4    0    0  0.72951130880E+01 -0.25176994443E+02  0.53368337337E+02  0.59458213514E+02  0.00000000000E+00 0. -1.
</event>
<event>
 8    1  0.6840084E-009  0.1655293E+03  0.7561462E-02  0.1182592E+00
         -2   -1    0    0    0  501 -0.00000000000E+00  0.00000000000E+00  0.44172187447E+02  0.44172187447E+02  0.00000000000E+00 0. -1.
          2   -1    0    0  501    0  0.00000000000E+00 -0.00000000000E+00 -0.13757840566E+04  0.13757840566E+04  0.00000000000E+00 0.  1.
         25    2    1    2    0    0 -0.19086810370E+02 -0.16184942929E+03 -0.11123972828E+04  0.11312094551E+04  0.12509025677E+03 0.  0.
         23    2    1    2    0    0  0.19086810370E+02  0.16184942929E+03 -0.21921458630E+03  0.28874678894E+03  0.93595561772E+02 0.  0.
          5    1    3    3  502    0 -0.11268848090E+02 -0.12250978116E+02 -0.51555094468E+03  0.51583652678E+03  0.41800000000E+01 0.  1.
         -5    1    3    3    0  502 -0.78179622807E+01 -0.14959845117E+03 -0.59684633815E+03  0.61537292830E+03  0.41800000000E+01 0.  1.
        -11    1    4    4    0    0  0.16796852069E+02  0.64255318511E+02 -0.24241839187E+02  0.70700402853E+02  0.00000000000E+00 0. -1.
         11    1    4    4    0    0  0.22899583015E+01  0.97594110780E+02 -0.19497274712E+03  0.21804638609E+03  0.00000000000E+00 0.  1.
</event>
<event>
 8    1  0.6840084E-009  0.4960253E+02  0.7561462E-02  0.1447497E+00
          1   -1    0    0  501    0  0.00000000000E+00  0.00000000000E+00  0.22834141605E+03  0.22834141605E+03  0.00000000000E+00 0. -1.
         -1   -1    0    0    0  501 -0.00000000000E+00 -0.00000000000E+00 -0.47295863303E+02  0.47295863303E+02  0.00000000000E+00 0.  1.
         25    2    1    2    0    0 -0.19386803508E+02 -0.85664595145E+01  0.91634979430E+02  0.15650661650E+03  0.12509244252E+03 0.  0.
         23    2    1    2    0    0  0.19386803508E+02  0.85664595145E+01  0.89410573312E+02  0.11913066284E+03  0.75819732461E+02 0.  0.
          5    1    3    3  502    0  0.69210453603E+01 -0.12271428448E+02  0.11796050967E+03  0.11887238143E+03  0.41800000000E+01 0.  1.
         -5    1    3    3    0  502 -0.26307848869E+02  0.37049689332E+01 -0.26325530243E+02  0.37634235072E+02  0.41800000000E+01 0.  1.
        -11    1    4    4    0    0  0.94781972898E+01 -0.22815581576E+02  0.81667671443E+02  0.85322889927E+02  0.00000000000E+00 0. -1.
         11    1    4    4    0    0  0.99086062185E+01  0.31382041091E+02  0.77429018690E+01  0.33807772916E+02  0.00000000000E+00 0.  1.
</event>
<event>
 8    1  0.6840084E-009  0.1746658E+03  0.7561462E-02  0.1173068E+00
         -1   -1    0    0    0  501 -0.00000000000E+00  0.00000000000E+00  0.56425914865E+03  0.56425914865E+03  0.00000000000E+00 0.  1.
          1   -1    0    0  501    0  0.00000000000E+00 -0.00000000000E+00 -0.81557792412E+02  0.81557792412E+02  0.00000000000E+00 0. -1.
         25    2    1    2    0    0 -0.17056046310E+02 -0.16360890012E+03  0.37730370749E+03  0.43019699203E+03  0.12511028474E+03 0.  0.
         23    2    1    2    0    0  0.17056046310E+02  0.16360890012E+03  0.10539764874E+03  0.21561994903E+03  0.91238791900E+02 0.  0.
          5    1    3    3  502    0  0.10162732666E+02 -0.75851917181E+01  0.16372818135E+03  0.16427174448E+03  0.41800000000E+01 0.  1.
         -5    1    3    3    0  502 -0.27218778976E+02 -0.15602370840E+03  0.21357552615E+03  0.26592524754E+03  0.41800000000E+01 0.  1.
        -11    1    4    4    0    0 -0.17832403825E+02  0.10899140219E+02  0.41459088338E+02  0.46428890677E+02  0.00000000000E+00 0.  1.
         11    1    4    4    0    0  0.34888450135E+02  0.15270975990E+03  0.63938560402E+02  0.16919105836E+03  0.00000000000E+00 0. -1.
</event>
<event>
 8    1  0.6840084E-009  0.4482264E+02  0.7561462E-02  0.1475452E+00
         -1   -1    0    0    0  501 -0.00000000000E+00  0.00000000000E+00  0.93472599909E+02  0.93472599909E+02  0.00000000000E+00 0.  1.
          1   -1    0    0  501    0  0.00000000000E+00 -0.00000000000E+00 -0.20755537848E+03  0.20755537848E+03  0.00000000000E+00 0. -1.
         25    2    1    2    0    0 -0.34214238215E+02 -0.10658598595E+02  0.10160966084E+02  0.13051854687E+03  0.12509047136E+03 0.  0.
         23    2    1    2    0    0  0.34214238215E+02  0.10658598595E+02 -0.12424374466E+03  0.17050943152E+03  0.11114287351E+03 0.  0.
          5    1    3    3  502    0  0.14897646609E+01  0.42638557976E+01 -0.54608370620E+02  0.54954039040E+02  0.41800000000E+01 0.  1.
         -5    1    3    3    0  502 -0.35704002876E+02 -0.14922454393E+02  0.64769336704E+02  0.75564507829E+02  0.41800000000E+01 0.  1.
        -11    1    4    4    0    0  0.51477128428E+01  0.14372292741E+02  0.18957838531E+02  0.24340529738E+02  0.00000000000E+00 0.  1.
         11    1    4    4    0    0  0.29066525372E+02 -0.37136941458E+01 -0.14320158319E+03  0.14616890179E+03  0.00000000000E+00 0. -1.
</event>
<event>
 8    1  0.6840084E-009  0.1054259E+03  0.7561462E-02  0.1269283E+00
         -4   -1    0    0    0  501 -0.00000000000E+00  0.00000000000E+00  0.30472905681E+02  0.30472905681E+02  0.00000000000E+00 0.  1.
          4   -1    0    0  501    0  0.00000000000E+00 -0.00000000000E+00 -0.49679094859E+03  0.49679094859E+03  0.00000000000E+00 0. -1.
         25    2    1    2    0    0 -0.53412508369E+02 -0.20232398346E+02 -0.30437133410E+03  0.33399229311E+03  0.12508675727E+03 0.  0.
         23    2    1    2    0    0  0.53412508369E+02  0.20232398346E+02 -0.16194670881E+03  0.19327156116E+03  0.88684349606E+02 0.  0.
          5    1    3    3  502    0 -0.12796249257E+02  0.38154952460E+02 -0.29593588434E+02  0.50127809334E+02  0.41800000000E+01 0. -1.
         -5    1    3    3    0  502 -0.40616259112E+02 -0.58387350806E+02 -0.27477774566E+03  0.28386448378E+03  0.41800000000E+01 0. -1.
        -11    1    4    4    0    0  0.12848463944E+02  0.48193464903E+02 -0.48413242571E+02  0.69509245006E+02  0.00000000000E+00 0.  1.
         11    1    4    4    0    0  0.40564044425E+02 -0.27961066557E+02 -0.11353346624E+03  0.12376231616E+03  0.00000000000E+00 0. -1.
</event>
<event>
 8    1  0.6840084E-009  0.1030500E+03  0.7561462E-02  0.1274010E+00
          2   -1    0    0  501    0  0.00000000000E+00  0.00000000000E+00  0.13116336094E+03  0.13116336094E+03  0.00000000000E+00 0. -1.
         -2   -1    0    0    0  501 -0.00000000000E+00 -0.00000000000E+00 -0.12268204867E+03  0.12268204867E+03  0.00000000000E+00 0.  1.
         25    2    1    2    0    0 -0.51002034209E+02 -0.12621261286E+02  0.39767371678E+02  0.14138202969E+03  0.12508769220E+03 0.  0.
         23    2    1    2    0    0  0.51002034209E+02  0.12621261286E+02 -0.31286059409E+02  0.11246337992E+03  0.94385860060E+02 0.  0.
          5    1    3    3  502    0  0.11915032713E+02  0.47069962049E+02  0.11549511530E+02  0.50084058825E+02  0.41800000000E+01 0.  1.
         -5    1    3    3    0  502 -0.62917066921E+02 -0.59691223334E+02  0.28217860148E+02  0.91297970867E+02  0.41800000000E+01 0.  1.
        -11    1    4    4    0    0  0.77865072175E+01 -0.16623815997E+02 -0.52891386671E+02  0.55986424577E+02  0.00000000000E+00 0.  1.
         11    1    4    4    0    0  0.43215526991E+02  0.29245077283E+02  0.21605327262E+02  0.56476955340E+02  0.00000000000E+00 0. -1.
</event>
<event>
 8    1  0.6840084E-009  0.2579490E+03  0.7561462E-02  0.1108382E+00
         -2   -1    0    0    0  501 -0.00000000000E+00  0.00000000000E+00  0.79717766237E+02  0.79717766237E+02  0.00000000000E+00 0.  1.
          2   -1    0    0  501    0  0.00000000000E+00 -0.00000000000E+00 -0.13287150678E+04  0.13287150678E+04  0.00000000000E+00 0. -1.
         25    2    1    2    0    0  0.24681476510E+03  0.40807616330E+02 -0.10186360473E+04  0.10563382057E+04  0.12509283860E+03 0.  0.
         23    2    1    2    0    0 -0.24681476510E+03 -0.40807616330E+02 -0.23036125430E+03  0.35209462831E+03  0.91222420386E+02 0.  0.
          5    1    3    3  502    0  0.20587903666E+03  0.39388552465E+02 -0.59790346776E+03  0.63359582146E+03  0.41800000000E+01 0.  1.
         -5    1    3    3    0  502  0.40935728435E+02  0.14190638644E+01 -0.42073257950E+03  0.42274238427E+03  0.41800000000E+01 0.  1.
        -11    1    4    4    0    0 -0.13972154614E+03 -0.66798679703E+02 -0.15092872375E+03  0.21624905484E+03  0.00000000000E+00 0.  1.
         11    1    4    4    0    0 -0.10709321896E+03  0.25991063373E+02 -0.79432530545E+02  0.13584557347E+03  0.00000000000E+00 0. -1.
</event>
<event>
 8    1  0.6840084E-009  0.1166281E+03  0.7561462E-02  0.1248766E+00
         -1   -1    0    0    0  501 -0.00000000000E+00  0.00000000000E+00  0.40612482834E+02  0.40612482834E+02  0.00000000000E+00 0.  1.
          1   -1    0    0  501    0  0.00000000000E+00 -0.00000000000E+00 -0.51271112137E+03  0.51271112137E+03  0.00000000000E+00 0. -1.
         25    2    1    2    0    0 -0.39464060671E+01  0.95154585769E+02 -0.24599970641E+03  0.29194858848E+03  0.12509257950E+03 0.  0.
         23    2    1    2    0    0  0.39464060671E+01 -0.95154585769E+02 -0.22609893213E+03  0.26137501573E+03  0.90145451487E+02 0.  0.
          5    1    3    3  502    0 -0.30023997824E+02  0.37509512224E+02 -0.12260059245E+02  0.49761284201E+02  0.41800000000E+01 0.  1.
         -5    1    3    3    0  502  0.26077591757E+02  0.57645073545E+02 -0.23373964716E+03  0.24218730428E+03  0.41800000000E+01 0.  1.
        -11    1    4    4    0    0 -0.32139424102E+02 -0.18963286342E+02 -0.12110228731E+03  0.12672139836E+03  0.00000000000E+00 0. -1.
         11    1    4    4    0    0  0.36085830169E+02 -0.76191299427E+02 -0.10499664482E+03  0.13465361737E+03  0.00000000000E+00 0.  1.
</event>
<event>
 8    1  0.6840084E-009  0.1073503E+03  0.7561462E-02  0.1265557E+00
          2   -1    0    0  501    0  0.00000000000E+00  0.00000000000E+00  0.11262489661E+03  0.11262489661E+03  0.00000000000E+00 0. -1.
         -2   -1    0    0    0  501 -0.00000000000E+00 -0.00000000000E+00 -0.15209880435E+03  0.15209880435E+03  0.00000000000E+00 0.  1.
         25    2    1    2    0    0 -0.22295846510E+02  0.11571659027E+02  0.47168296240E+02  0.13602736961E+03  0.12509032356E+03 0.  0.
         23    2    1    2    0    0  0.22295846510E+02 -0.11571659027E+02 -0.86642203977E+02  0.12869633135E+03  0.91787069505E+02 0.  0.
          5    1    3    3  502    0 -0.39886583401E+02 -0.49608296448E+02  0.23507379496E+02  0.67985232975E+02  0.41800000000E+01 0. -1.
         -5    1    3    3    0  502  0.17590736890E+02  0.61179955476E+02  0.23660916744E+02  0.68042136633E+02  0.41800000000E+01 0. -1.
        -11    1    4    4    0    0  0.90163837299E+01 -0.47740001512E+02 -0.21755435997E+02  0.53232526855E+02  0.00000000000E+00 0.  1.
         11    1    4    4    0    0  0.13279462781E+02  0.36168342484E+02 -0.64886767980E+02  0.75463804494E+02  0.00000000000E+00 0. -1.
</event>
<event>
 8    1  0.6840084E-009  0.5929572E+02  0.7561462E-02  0.1400811E+00
          2   -1    0    0  501    0  0.00000000000E+00  0.00000000000E+00  0.20889094687E+03  0.20889094687E+03  0.00000000000E+00 0. -1.
         -2   -1    0    0    0  501 -0.00000000000E+00 -0.00000000000E+00 -0.81877915295E+02  0.81877915295E+02  0.00000000000E+00 0.  1.
         25    2    1    2    0    0 -0.18171909569E+02 -0.27848434676E+02  0.14494245929E+03  0.19432574987E+03  0.12509367269E+03 0.  0.
         23    2    1    2    0    0  0.18171909569E+02  0.27848434676E+02 -0.17929427713E+02  0.96443112296E+02  0.88735877299E+02 0.  0.
          5    1    3    3  502    0 -0.80170285102E+01 -0.13658058943E+02  0.16591689564E+03  0.16672343560E+03  0.41800000000E+01 0. -1.
         -5    1    3    3    0  502 -0.10154881059E+02 -0.14190375733E+02 -0.20974436350E+02  0.27602314269E+02  0.41800000000E+01 0. -1.
        -11    1    4    4    0    0 -0.30364072332E+02  0.55989017205E+01 -0.28494649977E+02  0.42015112357E+02  0.00000000000E+00 0.  1.
         11    1    4    4    0    0  0.48535981901E+02  0.22249532956E+02  0.10565222265E+02  0.54427999939E+02  0.00000000000E+00 0. -1.
</event>
<event>
 8    1  0.6840084E-009  0.5512411E+02  0.7561462E-02  0.1419513E+00
         -2   -1    0    0    0  501 -0.00000000000E+00  0.00000000000E+00  0.22169221126E+03  0.22169221126E+03  0.00000000000E+00 0.  1.
          2   -1    0    0  501    0  0.00000000000E+00 -0.00000000000E+00 -0.88557100518E+02  0.88557100518E+02  0.00000000000E+00 0. -1.
         25    2    1    2    0    0  0.37812261238E+02  0.22313051162E+02  0.15502891242E+03  0.20397893261E+03  0.12508317996E+03 0.  0.
         23    2    1    2    0    0 -0.37812261238E+02 -0.22313051162E+02 -0.21893801682E+02  0.10627037917E+03  0.94267786566E+02 0.  0.
          5    1    3    3  502    0  0.18573593813E+02  0.94209641586E+01  0.17304346290E+03  0.17434232247E+03  0.41800000000E+01 0.  1.
         -5    1    3    3    0  502  0.19238667425E+02  0.12892087004E+02 -0.18014550476E+02  0.29636610138E+02  0.41800000000E+01 0.  1.
        -11    1    4    4    0    0 -0.38614515684E+01  0.14728827912E+02  0.30244211151E+02  0.33860913868E+02  0.00000000000E+00 0.  1.
         11    1    4    4    0    0 -0.33950809670E+02 -0.37041879075E+02 -0.52138012833E+02  0.72409465298E+02  0.00000000000E+00 0. -1.
</event>
<event>
 8    1  0.6840084E-009  0.1074030E+03  0.7561462E-02  0.1265456E+00
         -2   -1    0    0    0  501 -0.00000000000E+00  0.00000000000E+00  0.64189271273E+03  0.64189271273E+03  0.00000000000E+00 0.  1.
          2   -1    0    0  501    0  0.00000000000E+00 -0.00000000000E+00 -0.28197469009E+02  0.28197469009E+02  0.00000000000E+00 0. -1.
         25    2    1    2    0    0 -0.10474675378E+02  0.38394714805E+02  0.50482386245E+03  0.52161108911E+03  0.12508846166E+03 0.  0.
         23    2    1    2    0    0  0.10474675378E+02 -0.38394714805E+02  0.10887138128E+03  0.14847909263E+03  0.92785722703E+02 0.  0.
          5    1    3    3  502    0 -0.57957599154E+02  0.55733747426E+02  0.31501006674E+03  0.32513712254E+03  0.41800000000E+01 0.  1.
         -5    1    3    3    0  502  0.47482923776E+02 -0.17339032621E+02  0.18981379570E+03  0.19647396658E+03  0.41800000000E+01 0.  1.
        -11    1    4    4    0    0 -0.20431759381E+02  0.12552170512E+02  0.77524547856E+02  0.81148439888E+02  0.00000000000E+00 0. -1.
         11    1    4    4    0    0  0.30906434759E+02 -0.50946885317E+02  0.31346833420E+02  0.67330652740E+02  0.00000000000E+00 0.  1.
</event>
<event>
 8    1  0.6840084E-009  0.1902694E+03  0.7561462E-02  0.1158219E+00
         -2   -1    0    0    0  501 -0.00000000000E+00  0.00000000000E+00  0.71157607935E+02  0.71157607935E+02  0.00000000000E+00 0.  1.
          2   -1    0    0  501    0  0.00000000000E+00 -0.00000000000E+00 -0.96340990713E+03  0.96340990713E+03  0.00000000000E+00 0. -1.
         25    2    1    2    0    0  0.41489502920E+02  0.17337800991E+03 -0.77082657917E+03  0.80100102738E+03  0.12509083713E+03 0.  0.
         23    2    1    2    0    0 -0.41489502920E+02 -0.17337800991E+03 -0.12142572003E+03  0.23356648769E+03  0.89597910204E+02 0.  0.
          5    1    3    3  502    0  0.20291744070E+02  0.17509311275E+03 -0.75167977298E+03  0.77208115281E+03  0.41800000000E+01 0. -1.
         -5    1    3    3    0  502  0.21197758850E+02 -0.17151028428E+01 -0.19146806188E+02  0.28919874571E+02  0.41800000000E+01 0. -1.
        -11    1    4    4    0    0 -0.27216430161E+02 -0.39824016635E+02  0.57733554084E+01  0.48580016512E+02  0.00000000000E+00 0.  1.
         11    1    4    4    0    0 -0.14273072759E+02 -0.13355399328E+03 -0.12719907543E+03  0.18498647117E+03  0.00000000000E+00 0. -1.
</event>
<event>
 8    1  0.6840084E-009  0.1217322E+03  0.7561462E-02  0.1240267E+00
         -1   -1    0    0    0  501 -0.00000000000E+00  0.00000000000E+00  0.77468084454E+03  0.77468084454E+03  0.00000000000E+00 0.  1.
          1   -1    0    0  501    0  0.00000000000E+00 -0.00000000000E+00 -0.22214024325E+02  0.22214024325E+02  0.00000000000E+00 0. -1.
         25    2    1    2    0    0 -0.67096396570E+01 -0.73528166041E+02  0.42159765905E+03  0.44592053734E+03  0.12509647891E+03 0.  0.
         23    2    1    2    0    0  0.67096396570E+01  0.73528166041E+02  0.33086916116E+03  0.35097433153E+03  0.90868966733E+02 0.  0.
          5    1    3    3  502    0  0.29373017419E+02 -0.89657555391E+02  0.36323054332E+03  0.37530674307E+03  0.41800000000E+01 0. -1.
         -5    1    3    3    0  502 -0.36082657076E+02  0.16129389350E+02  0.58367115728E+02  0.70613794268E+02  0.41800000000E+01 0. -1.
        -11    1    4    4    0    0 -0.33391195399E+02  0.11299866989E+02  0.17372710257E+03  0.17726749587E+03  0.00000000000E+00 0.  1.
         11    1    4    4    0    0  0.40100835056E+02  0.62228299052E+02  0.15714205860E+03  0.17370683566E+03  0.00000000000E+00 0. -1.
</event>
<event>
 8    1  0.6840084E-009  0.9531770E+02  0.7561462E-02  0.1290462E+00
          1   -1    0    0  501    0  0.00000000000E+00  0.00000000000E+00  0.52968697760E+03  0.52968697760E+03  0.00000000000E+00 0. -1.
         -1   -1    0    0    0  501 -0.00000000000E+00 -0.00000000000E+00 -0.34352228084E+02  0.34352228084E+02  0.00000000000E+00 0.  1.
         25    2    1    2    0    0  0.28539242255E+02  0.70515582890E+02  0.32716381477E+03  0.35842565594E+03  0.12508338564E+03 0.  0.
         23    2    1    2    0    0 -0.28539242255E+02 -0.70515582890E+02  0.16817093474E+03  0.20561354974E+03  0.90600953450E+02 0.  0.
          5    1    3    3  502    0  0.24841383999E+02  0.53884688362E+02  0.42221087792E+02  0.72943448323E+02  0.41800000000E+01 0. -1.
         -5    1    3    3    0  502  0.36978582555E+01  0.16630894527E+02  0.28494272698E+03  0.28548220762E+03  0.41800000000E+01 0. -1.
        -11    1    4    4    0    0  0.21291466620E+01  0.18932247977E+02  0.54612134855E+02  0.57839852631E+02  0.00000000000E+00 0. -1.
         11    1    4    4    0    0 -0.30668388917E+02 -0.89447830866E+02  0.11355879989E+03  0.14777369711E+03  0.00000000000E+00 0.  1.
</event>
<event>
 8    1  0.6840084E-009  0.1531885E+03  0.7561462E-02  0.1196609E+00
          2   -1    0    0  501    0  0.00000000000E+00  0.00000000000E+00  0.76321897141E+03  0.76321897141E+03  0.00000000000E+00 0. -1.
         -2   -1    0    0    0  501 -0.00000000000E+00 -0.00000000000E+00 -0.39049828647E+02  0.39049828647E+02  0.00000000000E+00 0.  1.
         25    2    1    2    0    0 -0.10301208389E+03  0.42890589840E+02  0.55347159402E+03  0.57829825269E+03  0.12508785533E+03 0.  0.
         23    2    1    2    0    0  0.10301208389E+03 -0.42890589840E+02  0.17069754875E+03  0.22397054737E+03  0.92596224641E+02 0.  0.
          5    1    3    3  502    0  0.82949051067E+01  0.54595749295E+02  0.19813052387E+03  0.20572476317E+03  0.41800000000E+01 0. -1.
         -5    1    3    3    0  502 -0.11130698900E+03 -0.11705159455E+02  0.35534107015E+03  0.37257348952E+03  0.41800000000E+01 0. -1.
        -11    1    4    4    0    0  0.35456564584E+02 -0.59652129203E+02  0.11711764326E+03  0.13613260761E+03  0.00000000000E+00 0. -1.
         11    1    4    4    0    0  0.67555519305E+02  0.16761539363E+02  0.53579905484E+02  0.87837939765E+02  0.00000000000E+00 0.  1.
</event>
<event>
 8    1  0.6840084E-009  0.8698825E+02  0.7561462E-02  0.1310313E+00
         -2   -1    0    0    0  501 -0.00000000000E+00  0.00000000000E+00  0.79167953338E+03  0.79167953338E+03  0.00000000000E+00 0. -1.
          2   -1    0    0  501    0  0.00000000000E+00 -0.00000000000E+00 -0.27580124172E+02  0.27580124172E+02  0.00000000000E+00 0.  1.
         25    2    1    2    0    0  0.42549125083E+02 -0.35506978443E+02  0.63397158006E+03  0.64856631215E+03  0.12508846218E+03 0.  0.
         23    2    1    2    0    0 -0.42549125083E+02  0.35506978443E+02  0.13012782915E+03  0.17069334540E+03  0.95560413781E+02 0.  0.
          5    1    3    3  502    0 -0.25396155174E+02 -0.19528596068E+02  0.44660363151E+02  0.55121240904E+02  0.41800000000E+01 0.  1.
         -5    1    3    3    0  502  0.67945280256E+02 -0.15978382375E+02  0.58931121691E+03  0.59344507125E+03  0.41800000000E+01 0.  1.
        -11    1    4    4    0    0 -0.93800044102E+01 -0.11104619089E+02 -0.11118800898E+02  0.18300950282E+02  0.00000000000E+00 0.  1.
         11    1    4    4    0    0 -0.33169120672E+02  0.46611597532E+02  0.14124663005E+03  0.15239239512E+03  0.00000000000E+00 0. -1.
</event>
<event>
 8    1  0.6840084E-009  0.6057267E+02  0.7561462E-02  0.1395444E+00
         -2   -1    0    0    0  501 -0.00000000000E+00  0.00000000000E+00  0.51144435981E+03  0.51144435981E+03  0.00000000000E+00 0.  1.
          2   -1    0    0  501    0  0.00000000000E+00 -0.00000000000E+00 -0.27202418367E+02  0.27202418367E+02  0.00000000000E+00 0. -1.
         25    2    1    2    0    0  0.23887558044E+01 -0.51945689894E+01  0.37515384599E+03  0.39549066386E+03  0.12505905540E+03 0.  0.
         23    2    1    2    0    0 -0.23887558044E+01  0.51945689894E+01  0.10908809546E+03  0.14315611432E+03  0.92524433508E+02 0.  0.
          5    1    3    3  502    0  0.97671107350E+01 -0.27784939731E+02  0.36951571088E+03  0.37071111707E+03  0.41800000000E+01 0.  1.
         -5    1    3    3    0  502 -0.73783549306E+01  0.22590370741E+02  0.56381351070E+01  0.24779546791E+02  0.41800000000E+01 0.  1.
        -11    1    4    4    0    0 -0.15657313375E+02 -0.27689024024E+02  0.37738419902E+01  0.32032411662E+02  0.00000000000E+00 0. -1.
         11    1    4    4    0    0  0.13268557571E+02  0.32883593014E+02  0.10531425347E+03  0.11112370266E+03  0.00000000000E+00 0.  1.
</event>
<event>
 8    1  0.6840084E-009  0.1893995E+03  0.7561462E-02  0.1159004E+00
         -2   -1    0    0    0  501 -0.00000000000E+00  0.00000000000E+00  0.23509693914E+03  0.23509693914E+03  0.00000000000E+00 0.  1.
          2   -1    0    0  501    0  0.00000000000E+00 -0.00000000000E+00 -0.21327925897E+03  0.21327925897E+03  0.00000000000E+00 0. -1.
         25    2    1    2    0    0 -0.14199351399E+03  0.94330630061E+02 -0.71290787924E+02  0.22314162036E+03  0.12509748404E+03 0.  0.
         23    2    1    2    0    0  0.14199351399E+03 -0.94330630061E+02  0.93108468089E+02  0.22523457775E+03  0.11402193825E+03 0.  0.
          5    1    3    3  502    0 -0.29074466780E+02 -0.23155853858E+02  0.13041883480E+02  0.39611631008E+02  0.41800000000E+01 0.  1.
         -5    1    3    3    0  502 -0.11291904721E+03  0.11748648392E+03 -0.84332671404E+02  0.18352998935E+03  0.41800000000E+01 0.  1.
        -11    1    4    4    0    0  0.11252076352E+03 -0.97315210225E+02  0.24852121877E+02  0.15082705436E+03  0.00000000000E+00 0. -1.
         11    1    4    4    0    0  0.29472750465E+02  0.29845801642E+01  0.68256346212E+02  0.74407523390E+02  0.00000000000E+00 0.  1.
</event>
<event>
 8    1  0.6840084E-009  0.1548727E+03  0.7561462E-02  0.1194610E+00
          1   -1    0    0  501    0  0.00000000000E+00  0.00000000000E+00  0.65679175581E+03  0.65679175581E+03  0.00000000000E+00 0. -1.
         -1   -1    0    0    0  501 -0.00000000000E+00 -0.00000000000E+00 -0.47765349627E+02  0.47765349627E+02  0.00000000000E+00 0.  1.
         25    2    1    2    0    0  0.12323577852E+03 -0.11444284364E+02  0.45101488863E+03  0.48412669049E+03  0.12508474698E+03 0.  0.
         23    2    1    2    0    0 -0.12323577852E+03  0.11444284364E+02  0.15801151755E+03  0.22043041494E+03  0.91125734034E+02 0.  0.
          5    1    3    3  502    0 -0.22895391310E+02  0.83080272616E+01  0.10699575900E+03  0.10981250887E+03  0.41800000000E+01 0.  1.
         -5    1    3    3    0  502  0.14613116983E+03 -0.19752311626E+02  0.34401912963E+03  0.37431418162E+03  0.41800000000E+01 0.  1.
        -11    1    4    4    0    0 -0.80089794143E+02 -0.21848340362E+02  0.14049191931E+03  0.16318610386E+03  0.00000000000E+00 0. -1.
         11    1    4    4    0    0 -0.43145984373E+02  0.33292624726E+02  0.17519598237E+02  0.57244311080E+02  0.00000000000E+00 0.  1.
</event>
<event>
 8    1  0.6840084E-009  0.1279753E+03  0.7561462E-02  0.1230491E+00
         -1   -1    0    0    0  501 -0.00000000000E+00  0.00000000000E+00  0.77941797975E+02  0.77941797975E+02  0.00000000000E+00 0.  1.
          1   -1    0    0  501    0  0.00000000000E+00 -0.00000000000E+00 -0.25328840600E+03  0.25328840600E+03  0.00000000000E+00 0. -1.
         25    2    1    2    0    0  0.49550355773E+02  0.67635775106E+02 -0.60517133971E+02  0.16229564520E+03  0.12509083545E+03 0.  0.
         23    2    1    2    0    0 -0.49550355773E+02 -0.67635775106E+02 -0.11482947405E+03  0.16893455878E+03  0.91231799318E+02 0.  0.
          5    1    3    3  502    0  0.73806882076E+02  0.12569198383E+02 -0.68361680832E+02  0.10147035230E+03  0.41800000000E+01 0.  1.
         -5    1    3    3    0  502 -0.24256526304E+02  0.55066576724E+02  0.78445468605E+01  0.60825292896E+02  0.41800000000E+01 0.  1.
        -11    1    4    4    0    0 -0.67137888578E+02 -0.20284794975E+02 -0.85274819065E+02  0.11041179175E+03  0.00000000000E+00 0. -1.
         11    1    4    4    0    0  0.17587532806E+02 -0.47350980132E+02 -0.29554654986E+02  0.58522767031E+02  0.00000000000E+00 0.  1.
</event>
<event>
 8    1  0.6840084E-009  0.1201291E+03  0.7561462E-02  0.1242884E+00
          1   -1    0    0  501    0  0.00000000000E+00  0.00000000000E+00  0.11658925580E+03  0.11658925580E+03  0.00000000000E+00 0. -1.
         -1   -1    0    0    0  501 -0.00000000000E+00 -0.00000000000E+00 -0.14923532586E+03  0.14923532586E+03  0.00000000000E+00 0.  1.
         25    2    1    2    0    0 -0.31519995244E+02 -0.63318369061E+02 -0.38086655938E+02  0.14866460488E+03  0.12509134831E+03 0.  0.
         23    2    1    2    0    0  0.31519995244E+02  0.63318369061E+02  0.54405858807E+01  0.11715997679E+03  0.93242341377E+02 0.  0.
          5    1    3    3  502    0  0.38874448468E+02 -0.92933270264E+01 -0.44053151930E+02  0.59630036608E+02  0.41800000000E+01 0. -1.
         -5    1    3    3    0  502 -0.70394443712E+02 -0.54025042034E+02  0.59664959924E+01  0.89034568268E+02  0.41800000000E+01 0. -1.
        -11    1    4    4    0    0  0.51725162496E+02  0.79961674444E+01  0.20755771012E+02  0.56304823588E+02  0.00000000000E+00 0. -1.
         11    1    4    4    0    0 -0.20205167252E+02  0.55322201616E+02 -0.15315185131E+02  0.60855153199E+02  0.00000000000E+00 0.  1.
</event>
<event>
 8    1  0.6840084E-009  0.1252754E+03  0.7561462E-02  0.1234639E+00
         -2   -1    0    0    0  501 -0.00000000000E+00  0.00000000000E+00  0.23091484604E+03  0.23091484604E+03  0.00000000000E+00 0.  1.
          2   -1    0    0  501    0  0.00000000000E+00 -0.00000000000E+00 -0.83050284390E+02  0.83050284390E+02  0.00000000000E+00 0. -1.
         25    2    1    2    0    0 -0.52815794989E+02  0.54451913570E+02  0.12866863703E+03  0.19482769279E+03  0.12509073759E+03 0.  0.
         23    2    1    2    0    0  0.52815794989E+02 -0.54451913570E+02  0.19195924623E+02  0.11913743764E+03  0.89837221870E+02 0.  0.
          5    1    3    3  502    0 -0.20783484538E+02  0.88197414914E+02  0.11436650532E+03  0.14597228219E+03  0.41800000000E+01 0. -1.
         -5    1    3    3    0  502 -0.32032310452E+02 -0.33745501344E+02  0.14302131703E+02  0.48855410602E+02  0.41800000000E+01 0. -1.
        -11    1    4    4    0    0  0.32556601417E+02  0.18477947862E+02  0.21950690240E+02  0.43395848362E+02  0.00000000000E+00 0.  1.
         11    1    4    4    0    0  0.20259193572E+02 -0.72929861432E+02 -0.27547656168E+01  0.75741589277E+02  0.00000000000E+00 0. -1.
</event>
<event>
 8    1  0.6840084E-009  0.1216536E+03  0.7561462E-02  0.1240394E+00
         -1   -1    0    0    0  501 -0.00000000000E+00  0.00000000000E+00  0.14495285390E+04  0.14495285390E+04  0.00000000000E+00 0.  1.
          1   -1    0    0  501    0  0.00000000000E+00 -0.00000000000E+00 -0.14501363914E+02  0.14501363914E+02  0.00000000000E+00 0. -1.
         25    2    1    2    0    0  0.29251415258E+02 -0.82017245557E+02  0.97347814820E+03  0.98533077397E+03  0.12503821513E+03 0.  0.
         23    2    1    2    0    0 -0.29251415258E+02  0.82017245557E+02  0.46154902688E+03  0.47869912894E+03  0.92427690495E+02 0.  0.
          5    1    3    3  502    0 -0.27866110504E+01 -0.84038725089E+02  0.31496991468E+03  0.32602728731E+03  0.41800000000E+01 0.  1.
         -5    1    3    3    0  502  0.32038026309E+02  0.20214795320E+01  0.65850823352E+03  0.65930348666E+03  0.41800000000E+01 0.  1.
        -11    1    4    4    0    0 -0.72454736116E+01  0.98803237567E+02  0.37243044837E+03  0.38538164917E+03  0.00000000000E+00 0.  1.
         11    1    4    4    0    0 -0.22005941647E+02 -0.16785992009E+02  0.89118578513E+02  0.93317479776E+02  0.00000000000E+00 0. -1.
</event>
<event>
 8    1  0.6840084E-009  0.3971416E+03  0.7561462E-02  0.1044774E+00
          4   -1    0    0  501    0  0.00000000000E+00  0.00000000000E+00  0.17718371934E+03  0.17718371934E+03  0.00000000000E+00 0. -1.
         -4   -1    0    0    0  501 -0.00000000000E+00 -0.00000000000E+00 -0.91589832000E+03  0.91589832000E+03  0.00000000000E+00 0.  1.
         25    2    1    2    0    0  0.37310505430E+03  0.10068649862E+03 -0.33351499633E+03  0.52557078420E+03  0.12508894387E+03 0.  0.
         23    2    1    2    0    0 -0.37310505430E+03 -0.10068649862E+03 -0.40519960433E+03  0.56751125515E+03  0.92396714340E+02 0.  0.
          5    1    3    3  502    0  0.19280000867E+03  0.29112622177E+01 -0.10938902953E+03  0.22172900345E+03  0.41800000000E+01 0.  1.
         -5    1    3    3    0  502  0.18030504563E+03  0.97775236405E+02 -0.22412596680E+03  0.30384178075E+03  0.41800000000E+01 0. -1.
        -11    1    4    4    0    0 -0.13937078710E+03  0.56332573963E+01 -0.16293276676E+03  0.21448318435E+03  0.00000000000E+00 0.  1.
         11    1    4    4    0    0 -0.23373426720E+03 -0.10631975602E+03 -0.24226683758E+03  0.35302807080E+03  0.00000000000E+00 0. -1.
</event>
<event>
 8    1  0.6840084E-009  0.1393686E+03  0.7561462E-02  0.1214181E+00
         -1   -1    0    0    0  501 -0.00000000000E+00  0.00000000000E+00  0.61234015699E+02  0.61234015699E+02  0.00000000000E+00 0.  1.
          1   -1    0    0  501    0  0.00000000000E+00 -0.00000000000E+00 -0.49635683299E+03  0.49635683299E+03  0.00000000000E+00 0. -1.
         25    2    1    2    0    0  0.11623063391E+03  0.28511392171E+02 -0.12748134240E+03  0.21499176448E+03  0.12508999318E+03 0.  0.
         23    2    1    2    0    0 -0.11623063391E+03 -0.28511392171E+02 -0.30764147490E+03  0.34259908421E+03  0.91697304666E+02 0.  0.
          5    1    3    3  502    0  0.51503268466E+02  0.39272267123E+02  0.70190243338E+01  0.65281212690E+02  0.41800000000E+01 0. -1.
         -5    1    3    3    0  502  0.64727365442E+02 -0.10760874953E+02 -0.13450036673E+03  0.14971055179E+03  0.41800000000E+01 0. -1.
        -11    1    4    4    0    0 -0.41857364557E+02 -0.55017681314E+02 -0.17607245002E+03  0.18915732045E+03  0.00000000000E+00 0. -1.
         11    1    4    4    0    0 -0.74373269351E+02  0.26506289144E+02 -0.13156902488E+03  0.15344176376E+03  0.00000000000E+00 0.  1.
</event>
<event>
 8    1  0.6840084E-009  0.1489660E+03  0.7561462E-02  0.1201749E+00
          2   -1    0    0  501    0  0.00000000000E+00  0.00000000000E+00  0.35892652326E+03  0.35892652326E+03  0.00000000000E+00 0. -1.
         -2   -1    0    0    0  501 -0.00000000000E+00 -0.00000000000E+00 -0.68647256097E+02  0.68647256097E+02  0.00000000000E+00 0.  1.
         25    2    1    2    0    0 -0.18087515242E+02 -0.11851039417E+03  0.12541624129E+03  0.21391924133E+03  0.12514126617E+03 0.  0.
         23    2    1    2    0    0  0.18087515242E+02  0.11851039417E+03  0.16486302588E+03  0.21365453803E+03  0.64004473176E+02 0.  0.
          5    1    3    3  502    0 -0.15333493578E+02  0.20926622572E+02 -0.49417849087E-01  0.26277640680E+02  0.41800000000E+01 0. -1.
         -5    1    3    3    0  502 -0.27540216641E+01 -0.13943701674E+03  0.12546565913E+03  0.18764160065E+03  0.41800000000E+01 0. -1.
        -11    1    4    4    0    0  0.22146059829E+02  0.11340445719E+02  0.13979348460E+02  0.28539023432E+02  0.00000000000E+00 0.  1.
         11    1    4    4    0    0 -0.40585445871E+01  0.10716994845E+03  0.15088367742E+03  0.18511551460E+03  0.00000000000E+00 0. -1.
</event>
<event>
 8    1  0.6840084E-009  0.1512583E+03  0.7561462E-02  0.1198935E+00
         -2   -1    0    0    0  501 -0.00000000000E+00  0.00000000000E+00  0.29141620417E+02  0.29141620417E+02  0.00000000000E+00 0. -1.
          2   -1    0    0  501    0  0.00000000000E+00 -0.00000000000E+00 -0.85515130192E+03  0.85515130192E+03  0.00000000000E+00 0.  1.
         25    2    1    2    0    0  0.10941784836E+03 -0.33829928756E+02 -0.38491472962E+03  0.42062065169E+03  0.12508258842E+03 0.  0.
         23    2    1    2    0    0 -0.10941784836E+03  0.33829928756E+02 -0.44109495188E+03  0.46367227065E+03  0.85501393987E+02 0.  0.
          5    1    3    3  502    0  0.13020235990E+03 -0.14582184524E+02 -0.35830733642E+03  0.38153232414E+03  0.41800000000E+01 0.  1.
         -5    1    3    3    0  502 -0.20784511534E+02 -0.19247744232E+02 -0.26607393197E+02  0.39088327547E+02  0.41800000000E+01 0.  1.
        -11    1    4    4    0    0 -0.35899799296E+02 -0.28953734728E+02 -0.15166235686E+03  0.15851998244E+03  0.00000000000E+00 0.  1.
         11    1    4    4    0    0 -0.73518049067E+02  0.62783663484E+02 -0.28943259502E+03  0.30515228821E+03  0.00000000000E+00 0. -1.
</event>
<event>
 8    1  0.6840084E-009  0.6908872E+02  0.7561462E-02  0.1363220E+00
         -2   -1    0    0    0  501 -0.00000000000E+00  0.00000000000E+00  0.23026677853E+02  0.23026677853E+02  0.00000000000E+00 0.  1.
          2   -1    0    0  501    0  0.00000000000E+00 -0.00000000000E+00 -0.54384412413E+03  0.54384412413E+03  0.00000000000E+00 0. -1.
         25    2    1    2    0    0 -0.77267369837E+01  0.10808911440E+02 -0.26611823222E+03  0.29435311910E+03  0.12509320593E+03 0.  0.
         23    2    1    2    0    0  0.77267369837E+01 -0.10808911440E+02 -0.25469921406E+03  0.27251768289E+03  0.96008660104E+02 0.  0.
          5    1    3    3  502    0  0.11785705292E+02 -0.19840740672E+02 -0.25507217106E+03  0.25614808742E+03  0.41800000000E+01 0.  1.
         -5    1    3    3    0  502 -0.19512442275E+02  0.30649652111E+02 -0.11046061161E+02  0.38205031675E+02  0.41800000000E+01 0.  1.
        -11    1    4    4    0    0 -0.27179823889E+02 -0.28188289248E+02 -0.20811768870E+03  0.21176943790E+03  0.00000000000E+00 0. -1.
         11    1    4    4    0    0  0.34906560873E+02  0.17379377808E+02 -0.46581525355E+02  0.60748244990E+02  0.00000000000E+00 0.  1.
</event>
<event>
 8    1  0.6840084E-009  0.9056815E+02  0.7561462E-02  0.1301482E+00
          1   -1    0    0  501    0  0.00000000000E+00  0.00000000000E+00  0.44204971907E+02  0.44204971907E+02  0.00000000000E+00 0.  1.
         -1   -1    0    0    0  501 -0.00000000000E+00 -0.00000000000E+00 -0.37521213790E+03  0.37521213790E+03  0.00000000000E+00 0. -1.
         25    2    1    2    0    0 -0.36443546121E+02 -0.31374232371E+00 -0.84603641001E+02  0.15534819411E+03  0.12508818831E+03 0.  0.
         23    2    1    2    0    0  0.36443546121E+02  0.31374232371E+00 -0.24640352499E+03  0.26406891569E+03  0.87689592435E+02 0.  0.
          5    1    3    3  502    0 -0.52853147988E+02  0.22687818700E+02  0.81999399002E+01  0.58248637615E+02  0.41800000000E+01 0. -1.
         -5    1    3    3    0  502  0.16409601868E+02 -0.23001561024E+02 -0.92803580901E+02  0.97099556493E+02  0.41800000000E+01 0. -1.
        -11    1    4    4    0    0 -0.12862073481E+02 -0.32988034736E+02 -0.87564102864E+02  0.94451656843E+02  0.00000000000E+00 0.  1.
         11    1    4    4    0    0  0.49305619601E+02  0.33301777060E+02 -0.15883942212E+03  0.16961725885E+03  0.00000000000E+00 0. -1.
</event>
<event>
 8    1  0.6840084E-009  0.1799311E+03  0.7561462E-02  0.1167870E+00
          2   -1    0    0  501    0  0.00000000000E+00  0.00000000000E+00  0.57170909620E+03  0.57170909620E+03  0.00000000000E+00 0.  1.
         -2   -1    0    0    0  501 -0.00000000000E+00 -0.00000000000E+00 -0.64964528753E+02  0.64964528753E+02  0.00000000000E+00 0. -1.
         25    2    1    2    0    0  0.15083799218E+03 -0.30215519347E+02  0.19734272499E+03  0.27974223873E+03  0.12508593658E+03 0.  0.
         23    2    1    2    0    0 -0.15083799218E+03  0.30215519347E+02  0.30940184246E+03  0.35693138623E+03  0.89473106915E+02 0.  0.
          5    1    3    3  502    0 -0.15042644266E+01 -0.35930865223E+02  0.88317874771E+01  0.37266107352E+02  0.41800000000E+01 0. -1.
         -5    1    3    3    0  502  0.15234225661E+03  0.57153458763E+01  0.18851093751E+03  0.24247613137E+03  0.41800000000E+01 0. -1.
        -11    1    4    4    0    0 -0.72028219946E+02 -0.23513211116E+02  0.18690672488E+03  0.20168058749E+03  0.00000000000E+00 0.  1.
         11    1    4    4    0    0 -0.78809772233E+02  0.53728730463E+02  0.12249511758E+03  0.15525079874E+03  0.00000000000E+00 0. -1.
</event>
<event>
 8    1  0.6840084E-009  0.2136991E+03  0.7561462E-02  0.1138670E+00
          1   -1    0    0  501    0  0.00000000000E+00  0.00000000000E+00  0.11450189832E+04  0.11450189832E+04  0.00000000000E+00 0. -1.
         -1   -1    0    0    0  501 -0.00000000000E+00 -0.00000000000E+00 -0.47498322496E+02  0.47498322496E+02  0.00000000000E+00 0.  1.
         25    2    1    2    0    0 -0.14526820880E+03  0.13862091713E+03  0.44760211399E+03  0.50627490865E+03  0.12509204424E+03 0.  0.
         23    2    1    2    0    0  0.14526820880E+03 -0.13862091713E+03  0.64991854675E+03  0.68624239708E+03  0.90641596319E+02 0.  0.
          5    1    3    3  502    0 -0.15554061112E+03  0.12639013529E+03  0.31996490847E+03  0.37757431461E+03  0.41800000000E+01 0.  1.
         -5    1    3    3    0  502  0.10272402317E+02  0.12230781842E+02  0.12763720552E+03  0.12870059404E+03  0.41800000000E+01 0.  1.
        -11    1    4    4    0    0  0.90090956558E+02 -0.42541079948E+02  0.41069378472E+03  0.42260561844E+03  0.00000000000E+00 0. -1.
         11    1    4    4    0    0  0.55177252240E+02 -0.96079837180E+02  0.23922476203E+03  0.26363677863E+03  0.00000000000E+00 0.  1.
</event>
<event>
 8    1  0.6840084E-009  0.1503004E+03  0.7561462E-02  0.1200104E+00
         -4   -1    0    0    0  501 -0.00000000000E+00  0.00000000000E+00  0.59734978385E+03  0.59734978385E+03  0.00000000000E+00 0.  1.
          4   -1    0    0  501    0  0.00000000000E+00 -0.00000000000E+00 -0.48459747152E+02  0.48459747152E+02  0.00000000000E+00 0. -1.
         25    2    1    2    0    0 -0.10562790834E+03 -0.68693501394E+02  0.22182104027E+03  0.28412644219E+03  0.12508880482E+03 0.  0.
         23    2    1    2    0    0  0.10562790834E+03  0.68693501394E+02  0.32706899642E+03  0.36168308881E+03  0.89243913818E+02 0.  0.
          5    1    3    3  502    0 -0.52207702562E+02  0.30803985097E+02  0.51109478336E+02  0.79398872035E+02  0.41800000000E+01 0.  1.
         -5    1    3    3    0  502 -0.53420205779E+02 -0.99497486491E+02  0.17071156194E+03  0.20472757016E+03  0.41800000000E+01 0.  1.
        -11    1    4    4    0    0  0.52753550978E+02  0.25691267705E+02  0.25823380660E+03  0.26481630850E+03  0.00000000000E+00 0.  1.
         11    1    4    4    0    0  0.52874357364E+02  0.43002233689E+02  0.68835189822E+02  0.96866780305E+02  0.00000000000E+00 0. -1.
</event>
<event>
 8    1  0.6840084E-009  0.7382140E+02  0.7561462E-02  0.1347560E+00
         -2   -1    0    0    0  501 -0.00000000000E+00  0.00000000000E+00  0.21380715344E+03  0.21380715344E+03  0.00000000000E+00 0.  1.
          2   -1    0    0  501    0  0.00000000000E+00 -0.00000000000E+00 -0.61303333499E+02  0.61303333499E+02  0.00000000000E+00 0. -1.
         25    2    1    2    0    0 -0.22480429817E+02  0.30474293224E+02  0.91310319426E+02  0.15943298440E+03  0.12508896758E+03 0.  0.
         23    2    1    2    0    0  0.22480429817E+02 -0.30474293224E+02  0.61193500511E+02  0.11567750253E+03  0.90568139072E+02 0.  0.
          5    1    3    3  502    0  0.10327377534E+02 -0.14898361110E+02  0.10078887076E+03  0.10249138871E+03  0.41800000000E+01 0.  1.
         -5    1    3    3    0  502 -0.32807807351E+02  0.45372654334E+02 -0.94785513374E+01  0.56941595692E+02  0.41800000000E+01 0.  1.
        -11    1    4    4    0    0  0.36329270879E+01 -0.47412753583E+02 -0.19987565376E+01  0.47593722162E+02  0.00000000000E+00 0. -1.
         11    1    4    4    0    0  0.18847502729E+02  0.16938460360E+02  0.63192257049E+02  0.68083780369E+02  0.00000000000E+00 0.  1.
</event>
<event>
 8    1  0.6840084E-009  0.1173686E+03  0.7561462E-02  0.1247502E+00
          1   -1    0    0  501    0  0.00000000000E+00  0.00000000000E+00  0.18411327294E+03  0.18411327294E+03  0.00000000000E+00 0. -1.
         -1   -1    0    0    0  501 -0.00000000000E+00 -0.00000000000E+00 -0.96148920606E+02  0.96148920606E+02  0.00000000000E+00 0.  1.
         25    2    1    2    0    0  0.88326729736E+01 -0.57281048710E+02 -0.20717673144E+01  0.13788031754E+03  0.12509018783E+03 0.  0.
         23    2    1    2    0    0 -0.88326729736E+01  0.57281048710E+02  0.90036119651E+02  0.14238187601E+03  0.93845410758E+02 0.  0.
          5    1    3    3  502    0 -0.56937360713E+02 -0.14475745728E+02 -0.59736839203E+01  0.59199388164E+02  0.41800000000E+01 0.  1.
         -5    1    3    3    0  502  0.65770033687E+02 -0.42805302982E+02  0.39019166059E+01  0.78680929378E+02  0.41800000000E+01 0.  1.
        -11    1    4    4    0    0 -0.41740394558E+02  0.46821694723E+02  0.87632740620E+02  0.10776840383E+03  0.00000000000E+00 0.  1.
         11    1    4    4    0    0  0.32907721584E+02  0.10459353987E+02  0.24033790313E+01  0.34613472182E+02  0.00000000000E+00 0. -1.
</event>
<event>
 8    1  0.6840084E-009  0.1647628E+03  0.7561462E-02  0.1183422E+00
          2   -1    0    0  501    0  0.00000000000E+00  0.00000000000E+00  0.80848424392E+03  0.80848424392E+03  0.00000000000E+00 0. -1.
         -2   -1    0    0    0  501 -0.00000000000E+00 -0.00000000000E+00 -0.59568674608E+02  0.59568674608E+02  0.00000000000E+00 0.  1.
         25    2    1    2    0    0 -0.12640426709E+03  0.22500173336E+02  0.67287102138E+03  0.69633854432E+03  0.12509060857E+03 0.  0.
         23    2    1    2    0    0  0.12640426709E+03 -0.22500173336E+02  0.76044547933E+02  0.17171437421E+03  0.84963265599E+02 0.  0.
          5    1    3    3  502    0 -0.26499691478E+02 -0.48727557384E+02  0.17939869499E+03  0.18782431328E+03  0.41800000000E+01 0. -1.
         -5    1    3    3    0  502 -0.99904575611E+02  0.71227730720E+02  0.49347232639E+03  0.50851423103E+03  0.41800000000E+01 0. -1.
        -11    1    4    4    0    0  0.77453346208E+02  0.26510345772E+02  0.24761409598E+02  0.85527461537E+02  0.00000000000E+00 0.  1.
         11    1    4    4    0    0  0.48950920881E+02 -0.49010519109E+02  0.51283138335E+02  0.86186912672E+02  0.00000000000E+00 0. -1.
</event>
<event>
 8    1  0.6840084E-009  0.1001633E+03  0.7561462E-02  0.1279953E+00
         -1   -1    0    0    0  501 -0.00000000000E+00  0.00000000000E+00  0.10892462236E+03  0.10892462236E+03  0.00000000000E+00 0.  1.
          1   -1    0    0  501    0  0.00000000000E+00 -0.00000000000E+00 -0.17332264930E+03  0.17332264930E+03  0.00000000000E+00 0. -1.
         25    2    1    2    0    0 -0.42753566986E+02 -0.31788146192E+02  0.28437458142E+02  0.13890318185E+03  0.12508817360E+03 0.  0.
         23    2    1    2    0    0  0.42753566986E+02  0.31788146192E+02 -0.92835485089E+02  0.14334408981E+03  0.95345409236E+02 0.  0.
          5    1    3    3  502    0 -0.75417629849E+02 -0.70379876026E+01  0.51502122188E+02  0.91691292670E+02  0.41800000000E+01 0.  1.
         -5    1    3    3    0  502  0.32664062863E+02 -0.24750158589E+02 -0.23064664045E+02  0.47211889185E+02  0.41800000000E+01 0.  1.
        -11    1    4    4    0    0  0.42979555822E+02 -0.78010748936E+01 -0.13983121138E+01  0.43704167592E+02  0.00000000000E+00 0.  1.
         11    1    4    4    0    0 -0.22598883599E+00  0.39589221085E+02 -0.91437172975E+02  0.99639922214E+02  0.00000000000E+00 0. -1.
</event>
<event>
 8    1  0.6840084E-009  0.1354062E+03  0.7561462E-02  0.1219647E+00
          1   -1    0    0  501    0  0.00000000000E+00  0.00000000000E+00  0.34280380682E+03  0.34280380682E+03  0.00000000000E+00 0. -1.
         -1   -1    0    0    0  501 -0.00000000000E+00 -0.00000000000E+00 -0.76252573888E+02  0.76252573888E+02  0.00000000000E+00 0.  1.
         25    2    1    2    0    0  0.53648197758E+02 -0.10415129816E+03  0.11804164188E+03  0.20810312188E+03  0.12508980010E+03 0.  0.
         23    2    1    2    0    0 -0.53648197758E+02  0.10415129816E+03  0.14850959105E+03  0.21095325882E+03  0.93383921233E+02 0.  0.
          5    1    3    3  502    0  0.81395902389E+02 -0.78629670892E+02  0.12592762874E+03  0.16936102902E+03  0.41800000000E+01 0.  1.
         -5    1    3    3    0  502 -0.27747704630E+02 -0.25521627265E+02 -0.78859868591E+01  0.38742092861E+02  0.41800000000E+01 0.  1.
        -11    1    4    4    0    0 -0.30351578161E+02  0.33336406170E+02  0.33796761595E+00  0.45084903186E+02  0.00000000000E+00 0.  1.
         11    1    4    4    0    0 -0.23296619597E+02  0.70814891988E+02  0.14817162343E+03  0.16586835564E+03  0.00000000000E+00 0. -1.
</event>
<event>
 8    1  0.6840084E-009  0.1313595E+03  0.7561462E-02  0.1225452E+00
         -1   -1    0    0    0  501 -0.00000000000E+00  0.00000000000E+00  0.12306351116E+03  0.12306351116E+03  0.00000000000E+00 0.  1.
          1   -1    0    0  501    0  0.00000000000E+00 -0.00000000000E+00 -0.16797982477E+03  0.16797982477E+03  0.00000000000E+00 0. -1.
         25    2    1    2    0    0  0.85403987266E+02 -0.10842882275E+02 -0.59685146922E+02  0.16315856426E+03  0.12508793384E+03 0.  0.
         23    2    1    2    0    0 -0.85403987266E+02  0.10842882275E+02  0.14768833317E+02  0.12788477166E+03  0.93407640204E+02 0.  0.
          5    1    3    3  502    0 -0.32331832813E+02 -0.42070314674E+01 -0.20891516117E+02  0.38948355196E+02  0.41800000000E+01 0.  1.
         -5    1    3    3    0  502  0.11773582008E+03 -0.66358508079E+01 -0.38793630806E+02  0.12421020907E+03  0.41800000000E+01 0.  1.
        -11    1    4    4    0    0 -0.17690035848E+01  0.26672549466E+02  0.31314000959E+02  0.41171846264E+02  0.00000000000E+00 0.  1.
         11    1    4    4    0    0 -0.83634983682E+02 -0.15829667190E+02 -0.16545167642E+02  0.86712925398E+02  0.00000000000E+00 0. -1.
</event>
<event>
 8    1  0.6840084E-009  0.1964767E+03  0.7561462E-02  0.1152746E+00
          2   -1    0    0  501    0  0.00000000000E+00  0.00000000000E+00  0.14508019116E+03  0.14508019116E+03  0.00000000000E+00 0.  1.
         -2   -1    0    0    0  501 -0.00000000000E+00 -0.00000000000E+00 -0.33282326951E+03  0.33282326951E+03  0.00000000000E+00 0. -1.
         25    2    1    2    0    0 -0.75543800074E+02 -0.17511448945E+03 -0.92633974316E+02  0.24617030695E+03  0.12508723628E+03 0.  0.
         23    2    1    2    0    0  0.75543800074E+02  0.17511448945E+03 -0.95109104035E+02  0.23173315373E+03  0.91008585976E+02 0.  0.
          5    1    3    3  502    0 -0.14897862193E+02 -0.51766842967E+02  0.30102030247E+02  0.61849470116E+02  0.41800000000E+01 0. -1.
         -5    1    3    3    0  502 -0.60645937881E+02 -0.12334764648E+03 -0.12273600456E+03  0.18432083683E+03  0.41800000000E+01 0. -1.
        -11    1    4    4    0    0  0.74658794480E+02  0.92861219793E+02 -0.89989523755E+02  0.14931596070E+03  0.00000000000E+00 0. -1.
         11    1    4    4    0    0  0.88500559437E+00  0.82253269654E+02 -0.51195802800E+01  0.82417193024E+02  0.00000000000E+00 0.  1.
</event>
<event>
 8    1  0.6840084E-009  0.8384664E+02  0.7561462E-02  0.1318477E+00
         -1   -1    0    0    0  501 -0.00000000000E+00  0.00000000000E+00  0.16222049079E+03  0.16222049079E+03  0.00000000000E+00 0.  1.
          1   -1    0    0  501    0  0.00000000000E+00 -0.00000000000E+00 -0.14144950466E+03  0.14144950466E+03  0.00000000000E+00 0. -1.
         25    2    1    2    0    0 -0.97834810242E+01 -0.41282398335E+02 -0.85438043808E+02  0.15730807792E+03  0.12508484774E+03 0.  0.
         23    2    1    2    0    0  0.97834810242E+01  0.41282398335E+02  0.10620902994E+03  0.14636191754E+03  0.91331812366E+02 0.  0.
          5    1    3    3  502    0  0.28067490126E+02 -0.30749441660E+02  0.18771162965E+02  0.45860016609E+02  0.41800000000E+01 0. -1.
         -5    1    3    3    0  502 -0.37850971150E+02 -0.10532956676E+02 -0.10420920677E+03  0.11144806131E+03  0.41800000000E+01 0. -1.
        -11    1    4    4    0    0  0.42699451718E+02  0.20070150718E+02  0.19183300473E+02  0.50931848032E+02  0.00000000000E+00 0. -1.
         11    1    4    4    0    0 -0.32915970694E+02  0.21212247618E+02  0.87025729470E+02  0.95430069504E+02  0.00000000000E+00 0.  1.
</event>
<event>
 8    1  0.6840084E-009  0.1693235E+03  0.7561462E-02  0.1178555E+00
          1   -1    0    0  501    0  0.00000000000E+00  0.00000000000E+00  0.64479765922E+02  0.64479765922E+02  0.00000000000E+00 0. -1.
         -1   -1    0    0    0  501 -0.00000000000E+00 -0.00000000000E+00 -0.53670493321E+03  0.53670493321E+03  0.00000000000E+00 0.  1.
         25    2    1    2    0    0 -0.20580937829E+02  0.14486447386E+03 -0.30562689398E+03  0.36119732552E+03  0.12508564607E+03 0.  0.
         23    2    1    2    0    0  0.20580937829E+02 -0.14486447386E+03 -0.16659827331E+03  0.23998737361E+03  0.91813201838E+02 0.  0.
          5    1    3    3  502    0 -0.48261711260E+02  0.79191164351E+01 -0.11299244744E+03  0.12319363115E+03  0.41800000000E+01 0. -1.
         -5    1    3    3    0  502  0.27680773431E+02  0.13694535743E+03 -0.19263444654E+03  0.23800369437E+03  0.41800000000E+01 0. -1.
        -11    1    4    4    0    0  0.16460927435E+02 -0.25517968107E+02 -0.97279511380E+02  0.10190894054E+03  0.00000000000E+00 0.  1.
         11    1    4    4    0    0  0.41200103938E+01 -0.11934650576E+03 -0.69318761927E+02  0.13807843306E+03  0.00000000000E+00 0. -1.
</event>
<event>
 8    1  0.6840084E-009  0.1055331E+03  0.7561462E-02  0.1269073E+00
          1   -1    0    0  501    0  0.00000000000E+00  0.00000000000E+00  0.18630142427E+03  0.18630142427E+03  0.00000000000E+00 0. -1.
         -1   -1    0    0    0  501 -0.00000000000E+00 -0.00000000000E+00 -0.10235014027E+03  0.10235014027E+03  0.00000000000E+00 0.  1.
         25    2    1    2    0    0 -0.64419845538E+02  0.32999418100E+02  0.88911427501E+02  0.16968076160E+03  0.12508973109E+03 0.  0.
         23    2    1    2    0    0  0.64419845538E+02 -0.32999418100E+02 -0.49601435013E+01  0.11897080293E+03  0.94289823593E+02 0.  0.
          5    1    3    3  502    0 -0.55009667053E+02  0.70694976040E+02  0.94421022190E+02  0.13021768289E+03  0.41800000000E+01 0. -1.
         -5    1    3    3    0  502 -0.94101784848E+01 -0.37695557940E+02 -0.55095946888E+01  0.39463078708E+02  0.41800000000E+01 0. -1.
        -11    1    4    4    0    0  0.10600525956E+02 -0.25956871863E+02  0.39753973364E+02  0.48646775285E+02  0.00000000000E+00 0. -1.
         11    1    4    4    0    0  0.53819319582E+02 -0.70425462374E+01 -0.44714116865E+02  0.70324027649E+02  0.00000000000E+00 0.  1.
</event>
<event>
 8    1  0.6840084E-009  0.1091273E+03  0.7561462E-02  0.1262195E+00
          2   -1    0    0  501    0  0.00000000000E+00  0.00000000000E+00  0.59894261541E+03  0.59894261541E+03  0.00000000000E+00 0. -1.
         -2   -1    0    0    0  501 -0.00000000000E+00 -0.00000000000E+00 -0.22114969595E+02  0.22114969595E+02  0.00000000000E+00 0.  1.
         25    2    1    2    0    0 -0.29420703905E+02  0.23694297864E+02  0.33883071006E+03  0.36315798050E+03  0.12510184312E+03 0.  0.
         23    2    1    2    0    0  0.29420703905E+02 -0.23694297864E+02  0.23799693576E+03  0.25789960451E+03  0.91883986665E+02 0.  0.
          5    1    3    3  502    0  0.20041214036E+02 -0.40574511812E+02  0.81458932030E+02  0.93278996973E+02  0.41800000000E+01 0. -1.
         -5    1    3    3    0  502 -0.49461917941E+02  0.64268809677E+02  0.25737177803E+03  0.26987898353E+03  0.41800000000E+01 0. -1.
        -11    1    4    4    0    0  0.56947355956E+02 -0.28464150920E+02  0.20503251909E+03  0.21468941083E+03  0.00000000000E+00 0. -1.
         11    1    4    4    0    0 -0.27526652052E+02  0.47698530555E+01  0.32964416663E+02  0.43210193673E+02  0.00000000000E+00 0.  1.
</event>
<event>
 8    1  0.6840084E-009  0.1083127E+03  0.7561462E-02  0.1263727E+00
         -2   -1    0    0    0  501 -0.00000000000E+00  0.00000000000E+00  0.47029399656E+02  0.47029399656E+02  0.00000000000E+00 0.  1.
          2   -1    0    0  501    0  0.00000000000E+00 -0.00000000000E+00 -0.25779494212E+03  0.25779494212E+03  0.00000000000E+00 0. -1.
         25    2    1    2    0    0  0.10147255759E+02 -0.89054865773E+01 -0.13341574752E+03  0.18338557112E+03  0.12509289156E+03 0.  0.
         23    2    1    2    0    0 -0.10147255759E+02  0.89054865773E+01 -0.77349794945E+02  0.12143877066E+03  0.92639676973E+02 0.  0.
          5    1    3    3  502    0  0.14200560971E+02 -0.65998043526E+02 -0.61864166771E+02  0.91662670763E+02  0.41800000000E+01 0.  1.
         -5    1    3    3    0  502 -0.40533052119E+01  0.57092556949E+02 -0.71551580745E+02  0.91722900353E+02  0.41800000000E+01 0.  1.
        -11    1    4    4    0    0 -0.15411973057E+02 -0.39763561384E+02 -0.23610397105E+02  0.48745467265E+02  0.00000000000E+00 0.  1.
         11    1    4    4    0    0  0.52647172985E+01  0.48669047961E+02 -0.53739397839E+02  0.72693303390E+02  0.00000000000E+00 0. -1.
</event>
<event>
 8    1  0.6840084E-009  0.1671172E+03  0.7561462E-02  0.1180888E+00
          1   -1    0    0  501    0  0.00000000000E+00  0.00000000000E+00  0.46416181707E+03  0.46416181707E+03  0.00000000000E+00 0. -1.
         -1   -1    0    0    0  501 -0.00000000000E+00 -0.00000000000E+00 -0.10062749850E+03  0.10062749850E+03  0.00000000000E+00 0.  1.
         25    2    1    2    0    0  0.12591063279E+03 -0.58975659822E+02  0.26561944054E+02  0.18890644395E+03  0.12509393187E+03 0.  0.
         23    2    1    2    0    0 -0.12591063279E+03  0.58975659822E+02  0.33697237452E+03  0.37588287162E+03  0.91683892197E+02 0.  0.
          5    1    3    3  502    0  0.12688401359E+03  0.94034100130E+00  0.18596453353E+02  0.12831109704E+03  0.41800000000E+01 0.  1.
         -5    1    3    3    0  502 -0.97338079931E+00 -0.59916000824E+02  0.79654907011E+01  0.60595346909E+02  0.41800000000E+01 0.  1.
        -11    1    4    4    0    0 -0.71259294699E+02  0.59067354649E+02  0.28797275076E+03  0.30248164349E+03  0.00000000000E+00 0. -1.
         11    1    4    4    0    0 -0.54651338092E+02 -0.91694826455E-01  0.48999623759E+02  0.73401228135E+02  0.00000000000E+00 0.  1.
</event>
<event>
 8    1  0.6840084E-009  0.9704307E+02  0.7561462E-02  0.1286640E+00
         -1   -1    0    0    0  501 -0.00000000000E+00  0.00000000000E+00  0.32749681854E+02  0.32749681854E+02  0.00000000000E+00 0.  1.
          1   -1    0    0  501    0  0.00000000000E+00 -0.00000000000E+00 -0.35941409884E+03  0.35941409884E+03  0.00000000000E+00 0. -1.
         25    2    1    2    0    0  0.12381426179E+02  0.55983667328E+01 -0.19701460688E+03  0.23377125657E+03  0.12509837588E+03 0.  0.
         23    2    1    2    0    0 -0.12381426179E+02 -0.55983667328E+01 -0.12964981010E+03  0.15839252413E+03  0.89969311520E+02 0.  0.
          5    1    3    3  502    0 -0.45385171859E+02 -0.20069541589E+02 -0.13981192187E+03  0.14841646210E+03  0.41800000000E+01 0. -1.
         -5    1    3    3    0  502  0.57766598037E+02  0.25667908322E+02 -0.57202685012E+02  0.85354794470E+02  0.41800000000E+01 0. -1.
        -11    1    4    4    0    0  0.15975568801E+02 -0.35985386823E+02 -0.99613641148E+02  0.10711229792E+03  0.00000000000E+00 0. -1.
         11    1    4    4    0    0 -0.28356994980E+02  0.30387020090E+02 -0.30036168956E+02  0.51280226207E+02  0.00000000000E+00 0.  1.
</event>
<event>
 8    1  0.6840084E-009  0.1693286E+03  0.7561462E-02  0.1178550E+00
          2   -1    0    0  501    0  0.00000000000E+00  0.00000000000E+00  0.25437077322E+03  0.25437077322E+03  0.00000000000E+00 0. -1.
         -2   -1    0    0    0  501 -0.00000000000E+00 -0.00000000000E+00 -0.17183591525E+03  0.17183591525E+03  0.00000000000E+00 0.  1.
         25    2    1    2    0    0  0.14474842796E+03 -0.69416221279E+02 -0.35900848826E+02  0.20665810486E+03  0.12509189496E+03 0.  0.
         23    2    1    2    0    0 -0.14474842796E+03  0.69416221279E+02  0.11843570679E+03  0.21954858361E+03  0.91672486327E+02 0.  0.
          5    1    3    3  502    0  0.93448725489E+02 -0.28201721521E+02  0.40478481534E+02  0.10575434393E+03  0.41800000000E+01 0.  1.
         -5    1    3    3    0  502  0.51299702472E+02 -0.41214499758E+02 -0.76379330360E+02  0.10090376093E+03  0.41800000000E+01 0.  1.
        -11    1    4    4    0    0 -0.54512637521E+02 -0.92683078120E+01  0.65486495829E+01  0.55681361249E+02  0.00000000000E+00 0.  1.
         11    1    4    4    0    0 -0.90235790440E+02  0.78684529091E+02  0.11188705720E+03  0.16386722236E+03  0.00000000000E+00 0. -1.
</event>
<event>
 8    1  0.6840084E-009  0.1120441E+03  0.7561462E-02  0.1256831E+00
          2   -1    0    0  501    0  0.00000000000E+00  0.00000000000E+00  0.85167896540E+03  0.85167896540E+03  0.00000000000E+00 0. -1.
         -2   -1    0    0    0  501 -0.00000000000E+00 -0.00000000000E+00 -0.17728660435E+02  0.17728660435E+02  0.00000000000E+00 0.  1.
         25    2    1    2    0    0  0.24480402751E+02 -0.49632182852E+02  0.54425776123E+03  0.56118284048E+03  0.12508807337E+03 0.  0.
         23    2    1    2    0    0 -0.24480402751E+02  0.49632182852E+02  0.28969254373E+03  0.30822478535E+03  0.89543870343E+02 0.  0.
          5    1    3    3  502    0  0.52605581219E+02  0.10770518005E+02  0.38122142994E+03  0.38500727562E+03  0.41800000000E+01 0. -1.
         -5    1    3    3    0  502 -0.28125178469E+02 -0.60402700858E+02  0.16303633129E+03  0.17617556486E+03  0.41800000000E+01 0. -1.
        -11    1    4    4    0    0 -0.48516937991E+02  0.21713764210E+00  0.10784477615E+03  0.11825580816E+03  0.00000000000E+00 0. -1.
         11    1    4    4    0    0  0.24036535241E+02  0.49415045210E+02  0.18184776758E+03  0.18996897719E+03  0.00000000000E+00 0.  1.
</event>
<event>
 8    1  0.6840084E-009  0.1642004E+03  0.7561462E-02  0.1184035E+00
         -1   -1    0    0    0  501 -0.00000000000E+00  0.00000000000E+00  0.54548698879E+03  0.54548698879E+03  0.00000000000E+00 0.  1.
          1   -1    0    0  501    0  0.00000000000E+00 -0.00000000000E+00 -0.65513965059E+02  0.65513965059E+02  0.00000000000E+00 0. -1.
         25    2    1    2    0    0  0.13429077610E+03 -0.31782349027E+02  0.36560632846E+03  0.41031716871E+03  0.12509221108E+03 0.  0.
         23    2    1    2    0    0 -0.13429077610E+03  0.31782349027E+02  0.11436669527E+03  0.20068378514E+03  0.90277961744E+02 0.  0.
          5    1    3    3  502    0  0.83359167130E+02 -0.73958861278E+02  0.16582971849E+03  0.19983901481E+03  0.41800000000E+01 0. -1.
         -5    1    3    3    0  502  0.50931608965E+02  0.42176512252E+02  0.19977660997E+03  0.21047815390E+03  0.41800000000E+01 0. -1.
        -11    1    4    4    0    0 -0.93046979553E+02 -0.79099642612E+01  0.10848585433E+03  0.14314149827E+03  0.00000000000E+00 0.  1.
         11    1    4    4    0    0 -0.41243796542E+02  0.39692313288E+02  0.58808409393E+01  0.57542286864E+02  0.00000000000E+00 0. -1.
</event>
<event>
 8    1  0.6840084E-009  0.7789668E+02  0.7561462E-02  0.1335129E+00
          1   -1    0    0  501    0  0.00000000000E+00  0.00000000000E+00  0.20171943754E+03  0.20171943754E+03  0.00000000000E+00 0. -1.
         -1   -1    0    0    0  501 -0.00000000000E+00 -0.00000000000E+00 -0.96358279621E+02  0.96358279621E+02  0.00000000000E+00 0.  1.
         25    2    1    2    0    0  0.21576877315E+01 -0.68894473195E+02 -0.48518335583E+01  0.14290806198E+03  0.12509224531E+03 0.  0.
         23    2    1    2    0    0 -0.21576877315E+01  0.68894473195E+02  0.11021299148E+03  0.15516965518E+03  0.84732604969E+02 0.  0.
          5    1    3    3  502    0  0.39340962005E+01 -0.24446402228E+02  0.59491081177E+02  0.64573716281E+02  0.41800000000E+01 0. -1.
         -5    1    3    3    0  502 -0.17764084691E+01 -0.44448070966E+02 -0.64342914735E+02  0.78334345700E+02  0.41800000000E+01 0. -1.
        -11    1    4    4    0    0  0.24602050029E+02  0.35893065681E+02  0.10334235029E+03  0.11213034555E+03  0.00000000000E+00 0. -1.
         11    1    4    4    0    0 -0.26759737760E+02  0.33001407513E+02  0.68706411843E+01  0.43039309627E+02  0.00000000000E+00 0.  1.
</event>
<event>
 8    1  0.6840084E-009  0.6667988E+02  0.7561462E-02  0.1371762E+00
         -1   -1    0    0    0  501 -0.00000000000E+00  0.00000000000E+00  0.33043301867E+03  0.33043301867E+03  0.00000000000E+00 0.  1.
          1   -1    0    0  501    0  0.00000000000E+00 -0.00000000000E+00 -0.40276701840E+02  0.40276701840E+02  0.00000000000E+00 0. -1.
         25    2    1    2    0    0 -0.34447909495E+01 -0.80046402097E+01  0.24643803589E+03  0.27650507826E+03  0.12508961556E+03 0.  0.
         23    2    1    2    0    0  0.34447909495E+01  0.80046402097E+01  0.43718280937E+02  0.94204642246E+02  0.82989672148E+02 0.  0.
          5    1    3    3  502    0  0.26669082223E+02  0.26214070828E+02  0.22091453547E+03  0.22409623343E+03  0.41800000000E+01 0.  1.
         -5    1    3    3    0  502 -0.30113873173E+02 -0.34218711038E+02  0.25523500417E+02  0.52408844827E+02  0.41800000000E+01 0.  1.
        -11    1    4    4    0    0 -0.22933708732E+02  0.37388230164E+01  0.59008026564E+02  0.63418301718E+02  0.00000000000E+00 0.  1.
         11    1    4    4    0    0  0.26378499682E+02  0.42658171933E+01 -0.15289745628E+02  0.30786340529E+02  0.00000000000E+00 0. -1.
</event>
<event>
 8    1  0.6840084E-009  0.1383963E+03  0.7561462E-02  0.1215503E+00
         -2   -1    0    0    0  501 -0.00000000000E+00  0.00000000000E+00  0.53878944310E+02  0.53878944310E+02  0.00000000000E+00 0.  1.
          2   -1    0    0  501    0  0.00000000000E+00 -0.00000000000E+00 -0.42385763295E+03  0.42385763295E+03  0.00000000000E+00 0. -1.
         25    2    1    2    0    0 -0.78796144775E+02 -0.60188435753E+02 -0.14427744080E+03  0.21516363257E+03  0.12509168089E+03 0.  0.
         23    2    1    2    0    0  0.78796144775E+02  0.60188435753E+02 -0.22570124784E+03  0.26257294469E+03  0.90399213358E+02 0.  0.
          5    1    3    3  502    0 -0.90417294020E+02 -0.84709056367E+02 -0.14062481965E+03  0.18746659326E+03  0.41800000000E+01 0.  1.
         -5    1    3    3    0  502  0.11621149244E+02  0.24520620614E+02 -0.36526211478E+01  0.27697039306E+02  0.41800000000E+01 0.  1.
        -11    1    4    4    0    0  0.94382172616E+02  0.51164415895E+02 -0.21796802823E+03  0.24297294765E+03  0.00000000000E+00 0. -1.
         11    1    4    4    0    0 -0.15586027841E+02  0.90240198580E+01 -0.77332196153E+01  0.19599997038E+02  0.00000000000E+00 0.  1.
</event>
<event>
 8    1  0.6840084E-009  0.1261082E+03  0.7561462E-02  0.1233347E+00
          1   -1    0    0  501    0  0.00000000000E+00  0.00000000000E+00  0.15284425816E+03  0.15284425816E+03  0.00000000000E+00 0. -1.
         -1   -1    0    0    0  501 -0.00000000000E+00 -0.00000000000E+00 -0.17977736679E+03  0.17977736679E+03  0.00000000000E+00 0.  1.
         25    2    1    2    0    0  0.88658361595E+02 -0.41514216689E+01  0.74295391187E+02  0.17042584228E+03  0.12509046000E+03 0.  0.
         23    2    1    2    0    0 -0.88658361595E+02  0.41514216689E+01 -0.10122849982E+03  0.16219578266E+03  0.90458406770E+02 0.  0.
          5    1    3    3  502    0 -0.28710578715E+02 -0.15172942658E+02  0.36856322844E+01  0.32948016699E+02  0.41800000000E+01 0.  1.
         -5    1    3    3    0  502  0.11736894031E+03  0.11021520989E+02  0.70609758902E+02  0.13747782558E+03  0.41800000000E+01 0.  1.
        -11    1    4    4    0    0 -0.36194594414E+02 -0.22553681578E+02 -0.93570036692E+02  0.10283029215E+03  0.00000000000E+00 0.  1.
         11    1    4    4    0    0 -0.52463767181E+02  0.26705103247E+02 -0.76584631304E+01  0.59365490513E+02  0.00000000000E+00 0. -1.
</event>
<event>
 8    1  0.6840084E-009  0.1202330E+03  0.7561462E-02  0.1242713E+00
         -3   -1    0    0    0  501 -0.00000000000E+00  0.00000000000E+00  0.15777921520E+02  0.15777921520E+02  0.00000000000E+00 0.  1.
          3   -1    0    0  501    0  0.00000000000E+00 -0.00000000000E+00 -0.11273590927E+04  0.11273590927E+04  0.00000000000E+00 0. -1.
         25    2    1    2    0    0  0.50022150500E+02  0.59533221932E+02 -0.65453361785E+03  0.67090037295E+03  0.12508650396E+03 0.  0.
         23    2    1    2    0    0 -0.50022150500E+02 -0.59533221932E+02 -0.45704755332E+03  0.47223664126E+03  0.89825159615E+02 0.  0.
          5    1    3    3  502    0 -0.10949730165E+02 -0.25787846561E+02 -0.29513919114E+03  0.29649540328E+03  0.41800000000E+01 0.  1.
         -5    1    3    3    0  502  0.60971880664E+02  0.85321068493E+02 -0.35939442671E+03  0.37440496967E+03  0.41800000000E+01 0.  1.
        -11    1    4    4    0    0 -0.45681836849E+02 -0.76813933764E+02 -0.43399312458E+03  0.44309958567E+03  0.00000000000E+00 0. -1.
         11    1    4    4    0    0 -0.43403136504E+01  0.17280711832E+02 -0.23054428740E+02  0.29137055592E+02  0.00000000000E+00 0.  1.
</event>
<event>
 8    1  0.6840084E-009  0.8839085E+02  0.7561462E-02  0.1306796E+00
          1   -1    0    0  501    0  0.00000000000E+00  0.00000000000E+00  0.38390577973E+03  0.38390577973E+03  0.00000000000E+00 0. -1.
         -1   -1    0    0    0  501 -0.00000000000E+00 -0.00000000000E+00 -0.46644045708E+02  0.46644045708E+02  0.00000000000E+00 0.  1.
         25    2    1    2    0    0  0.33796208322E+01  0.62877008283E+02  0.10952845820E+03  0.17779312416E+03  0.12509585059E+03 0.  0.
         23    2    1    2    0    0 -0.33796208322E+01 -0.62877008283E+02  0.22773327582E+03  0.25275670128E+03  0.89769511067E+02 0.  0.
          5    1    3    3  502    0 -0.16650937223E+02 -0.11253470952E+00  0.11023075609E+03  0.11155966279E+03  0.41800000000E+01 0.  1.
         -5    1    3    3    0  502  0.20030558056E+02  0.62989542992E+02 -0.70229788804E+00  0.66233461367E+02  0.41800000000E+01 0.  1.
        -11    1    4    4    0    0  0.32533865420E+01  0.14937305770E+02  0.40250016872E+01  0.15808487159E+02  0.00000000000E+00 0.  1.
         11    1    4    4    0    0 -0.66330073742E+01 -0.77814314053E+02  0.22370827413E+03  0.23694821412E+03  0.00000000000E+00 0. -1.
</event>
<event>
 8    1  0.6840084E-009  0.9287265E+02  0.7561462E-02  0.1296041E+00
         -2   -1    0    0    0  501 -0.00000000000E+00  0.00000000000E+00  0.49860264857E+02  0.49860264857E+02  0.00000000000E+00 0.  1.
          2   -1    0    0  501    0  0.00000000000E+00 -0.00000000000E+00 -0.26758254990E+03  0.26758254990E+03  0.00000000000E+00 0. -1.
         25    2    1    2    0    0 -0.16176676225E+02  0.38195084295E+02 -0.11409054374E+03  0.17431154485E+03  0.12508922088E+03 0.  0.
         23    2    1    2    0    0  0.16176676225E+02 -0.38195084295E+02 -0.10363174130E+03  0.14313126991E+03  0.89590587125E+02 0.  0.
          5    1    3    3  502    0  0.50935080347E+02 -0.54132893447E+01 -0.49864220072E+02  0.71607254904E+02  0.41800000000E+01 0.  1.
         -5    1    3    3    0  502 -0.67111756572E+02  0.43608373640E+02 -0.64226323668E+02  0.10270428995E+03  0.41800000000E+01 0.  1.
        -11    1    4    4    0    0  0.88327423104E+01  0.51642514176E+01  0.14118913985E+02  0.17436472164E+02  0.00000000000E+00 0.  1.
         11    1    4    4    0    0  0.73439339150E+01 -0.43359335713E+02 -0.11775065529E+03  0.12569479774E+03  0.00000000000E+00 0. -1.
</event>
<event>
 8    1  0.6840084E-009  0.1283905E+03  0.7561462E-02  0.1229864E+00
          2   -1    0    0  501    0  0.00000000000E+00  0.00000000000E+00  0.50424270288E+03  0.50424270288E+03  0.00000000000E+00 0. -1.
         -2   -1    0    0    0  501 -0.00000000000E+00 -0.00000000000E+00 -0.38509907760E+02  0.38509907760E+02  0.00000000000E+00 0.  1.
         25    2    1    2    0    0 -0.12153053635E+02 -0.74840649690E+02  0.33681888746E+03  0.36721128199E+03  0.12509333763E+03 0.  0.
         23    2    1    2    0    0  0.12153053635E+02  0.74840649690E+02  0.12891390766E+03  0.17554132864E+03  0.91908339745E+02 0.  0.
          5    1    3    3  502    0 -0.68709130208E+02 -0.38051733595E+02  0.17766029913E+03  0.19429239123E+03  0.41800000000E+01 0. -1.
         -5    1    3    3    0  502  0.56556076573E+02 -0.36788916095E+02  0.15915858833E+03  0.17291889076E+03  0.41800000000E+01 0. -1.
        -11    1    4    4    0    0 -0.19355711343E+02  0.76565025237E+02  0.58188889039E+02  0.98095838132E+02  0.00000000000E+00 0.  1.
         11    1    4    4    0    0  0.31508764979E+02 -0.17243755468E+01  0.70725018621E+02  0.77445490511E+02  0.00000000000E+00 0. -1.
</event>
<event>
 8    1  0.6840084E-009  0.7809906E+02  0.7561462E-02  0.1334534E+00
         -1   -1    0    0    0  501 -0.00000000000E+00  0.00000000000E+00  0.12110782755E+03  0.12110782755E+03  0.00000000000E+00 0.  1.
          1   -1    0    0  501    0  0.00000000000E+00 -0.00000000000E+00 -0.10643057146E+03  0.10643057146E+03  0.00000000000E+00 0. -1.
         25    2    1    2    0    0  0.33893572113E+01  0.70689586938E+01  0.40051884879E+02  0.13157881696E+03  0.12508946267E+03 0.  0.
         23    2    1    2    0    0 -0.33893572113E+01 -0.70689586938E+01 -0.25374628791E+02  0.95959582054E+02  0.92211234036E+02 0.  0.
          5    1    3    3  502    0  0.33155784393E+02  0.20363001231E+02 -0.33182054008E+02  0.51307689152E+02  0.41800000000E+01 0. -1.
         -5    1    3    3    0  502 -0.29766427182E+02 -0.13294042538E+02  0.73233938887E+02  0.80271127805E+02  0.41800000000E+01 0. -1.
        -11    1    4    4    0    0 -0.43496675897E+02 -0.14472917069E+00  0.68673883390E+01  0.44035698963E+02  0.00000000000E+00 0.  1.
         11    1    4    4    0    0  0.40107318685E+02 -0.69242295231E+01 -0.32242017130E+02  0.51923883091E+02  0.00000000000E+00 0. -1.
</event>
<event>
 8    1  0.6840084E-009  0.7735588E+02  0.7561462E-02  0.1336727E+00
          1   -1    0    0  501    0  0.00000000000E+00  0.00000000000E+00  0.71626234440E+02  0.71626234440E+02  0.00000000000E+00 0. -1.
         -1   -1    0    0    0  501 -0.00000000000E+00 -0.00000000000E+00 -0.24622026868E+03  0.24622026868E+03  0.00000000000E+00 0.  1.
         25    2    1    2    0    0  0.33996641721E+02 -0.48125451217E+02 -0.37893345720E+02  0.14332116300E+03  0.12503287332E+03 0.  0.
         23    2    1    2    0    0 -0.33996641721E+02  0.48125451217E+02 -0.13670068852E+03  0.17452534012E+03  0.91105353300E+02 0.  0.
          5    1    3    3  502    0 -0.17978953961E+01 -0.26977369922E+02  0.43753758876E+02  0.51603049635E+02  0.41800000000E+01 0.  1.
         -5    1    3    3    0  502  0.35794537117E+02 -0.21148081295E+02 -0.81647104596E+02  0.91718113363E+02  0.41800000000E+01 0.  1.
        -11    1    4    4    0    0  0.12642144169E+02  0.34857592190E+02 -0.11603588803E+03  0.12181626679E+03  0.00000000000E+00 0. -1.
         11    1    4    4    0    0 -0.46638785890E+02  0.13267859027E+02 -0.20664800483E+02  0.52709073332E+02  0.00000000000E+00 0.  1.
</event>
<event>
 8    1  0.6840084E-009  0.3077262E+03  0.7561462E-02  0.1081441E+00
         -1   -1    0    0    0  501 -0.00000000000E+00  0.00000000000E+00  0.10241402910E+03  0.10241402910E+03  0.00000000000E+00 0.  1.
          1   -1    0    0  501    0  0.00000000000E+00 -0.00000000000E+00 -0.96766046161E+03  0.96766046161E+03  0.00000000000E+00 0. -1.
         25    2    1    2    0    0 -0.31353005097E+02  0.29173249193E+03 -0.50062676784E+03  0.59360349452E+03  0.12508832977E+03 0.  0.
         23    2    1    2    0    0  0.31353005097E+02 -0.29173249193E+03 -0.36461966467E+03  0.47647099619E+03  0.89365835560E+02 0.  0.
          5    1    3    3  502    0 -0.32894638249E+02  0.17002621056E+02 -0.10906491549E+03  0.11525525819E+03  0.41800000000E+01 0. -1.
         -5    1    3    3    0  502  0.15416331524E+01  0.27472987088E+03 -0.39156185235E+03  0.47834823633E+03  0.41800000000E+01 0. -1.
        -11    1    4    4    0    0 -0.18923220288E+02 -0.17886924973E+03 -0.24966914356E+03  0.30771249245E+03  0.00000000000E+00 0. -1.
         11    1    4    4    0    0  0.50276225385E+02 -0.11286324221E+03 -0.11495052112E+03  0.16875850374E+03  0.00000000000E+00 0.  1.
</event>
<event>
 8    1  0.6840084E-009  0.2114011E+03  0.7561462E-02  0.1140461E+00
         -2   -1    0    0    0  501 -0.00000000000E+00  0.00000000000E+00  0.46625188361E+03  0.46625188361E+03  0.00000000000E+00 0.  1.
          2   -1    0    0  501    0  0.00000000000E+00 -0.00000000000E+00 -0.11187344937E+03  0.11187344937E+03  0.00000000000E+00 0. -1.
         25    2    1    2    0    0  0.11175101991E+03  0.16289201654E+03  0.18346958236E+03  0.29720508816E+03  0.12509067620E+03 0.  0.
         23    2    1    2    0    0 -0.11175101991E+03 -0.16289201654E+03  0.17090885188E+03  0.28092024482E+03  0.10336463996E+03 0.  0.
          5    1    3    3  502    0  0.11331086870E+03  0.95963326541E+02  0.17507922253E+03  0.22960513837E+03  0.41800000000E+01 0.  1.
         -5    1    3    3    0  502 -0.15598487898E+01  0.66928689999E+02  0.83903598369E+01  0.67599949789E+02  0.41800000000E+01 0.  1.
        -11    1    4    4    0    0 -0.51766498795E+02 -0.12731765309E+03  0.15900471425E+03  0.21017148793E+03  0.00000000000E+00 0.  1.
         11    1    4    4    0    0 -0.59984521117E+02 -0.35574363454E+02  0.11904137630E+02  0.70748756891E+02  0.00000000000E+00 0. -1.
</event>
<event>
 8    1  0.6840084E-009  0.1112499E+03  0.7561462E-02  0.1258273E+00
          2   -1    0    0  501    0  0.00000000000E+00  0.00000000000E+00  0.47644100580E+03  0.47644100580E+03  0.00000000000E+00 0.  1.
         -2   -1    0    0    0  501 -0.00000000000E+00 -0.00000000000E+00 -0.37656240659E+02  0.37656240659E+02  0.00000000000E+00 0. -1.
         25    2    1    2    0    0 -0.39909586525E+02  0.60532748026E+02  0.29882231560E+03  0.33196237424E+03  0.12508898006E+03 0.  0.
         23    2    1    2    0    0  0.39909586525E+02 -0.60532748026E+02  0.13996244955E+03  0.18213487222E+03  0.91250401177E+02 0.  0.
          5    1    3    3  502    0  0.35326198678E+02  0.52959915838E+02  0.18086217730E+03  0.19178449514E+03  0.41800000000E+01 0.  1.
         -5    1    3    3    0  502 -0.75235785203E+02  0.75728321885E+01  0.11796013830E+03  0.14017787910E+03  0.41800000000E+01 0.  1.
        -11    1    4    4    0    0 -0.54205844760E+01 -0.24418930534E+02  0.11724653115E+03  0.11988501145E+03  0.00000000000E+00 0.  1.
         11    1    4    4    0    0  0.45330171001E+02 -0.36113817493E+02  0.22715918399E+02  0.62249860768E+02  0.00000000000E+00 0. -1.
</event>
<event>
 8    1  0.6840084E-009  0.1267793E+03  0.7561462E-02  0.1232314E+00
         -4   -1    0    0    0  501 -0.00000000000E+00  0.00000000000E+00  0.52309968929E+03  0.52309968929E+03  0.00000000000E+00 0.  1.
          4   -1    0    0  501    0  0.00000000000E+00 -0.00000000000E+00 -0.36008464895E+02  0.36008464895E+02  0.00000000000E+00 0. -1.
         25    2    1    2    0    0 -0.20690766917E+01  0.73170921071E+02  0.18376022631E+03  0.23403588150E+03  0.12508680300E+03 0.  0.
         23    2    1    2    0    0  0.20690766917E+01 -0.73170921071E+02  0.30333099808E+03  0.32507227269E+03  0.91126413862E+02 0.  0.
          5    1    3    3  502    0 -0.14109779471E+02  0.10459254886E+03  0.16314910252E+03  0.19435480237E+03  0.41800000000E+01 0.  1.
         -5    1    3    3    0  502  0.12040702779E+02 -0.31421627789E+02  0.20611123796E+02  0.39681079124E+02  0.41800000000E+01 0.  1.
        -11    1    4    4    0    0  0.39599396038E+02 -0.10482050301E+02  0.14538045012E+03  0.15104125536E+03  0.00000000000E+00 0.  1.
         11    1    4    4    0    0 -0.37530319346E+02 -0.62688870770E+02  0.15795054797E+03  0.17403101733E+03  0.00000000000E+00 0. -1.
</event>
<event>
 8    1  0.6840084E-009  0.2872369E+03  0.7561462E-02  0.1091801E+00
          2   -1    0    0  501    0  0.00000000000E+00  0.00000000000E+00  0.12825114661E+04  0.12825114661E+04  0.00000000000E+00 0. -1.
         -2   -1    0    0    0  501 -0.00000000000E+00 -0.00000000000E+00 -0.66445604427E+02  0.66445604427E+02  0.00000000000E+00 0.  1.
         25    2    1    2    0    0  0.19422863336E+03  0.18772563088E+03  0.60227849310E+03  0.67182806998E+03  0.12509155789E+03 0.  0.
         23    2    1    2    0    0 -0.19422863336E+03 -0.18772563088E+03  0.61378736854E+03  0.67712900051E+03  0.93824703814E+02 0.  0.
          5    1    3    3  502    0  0.12799371577E+03  0.18997761143E+03  0.49840593170E+03  0.54854337046E+03  0.41800000000E+01 0. -1.
         -5    1    3    3    0  502  0.66234917590E+02 -0.22519805434E+01  0.10387256140E+03  0.12328469952E+03  0.41800000000E+01 0. -1.
        -11    1    4    4    0    0 -0.83506253619E+02 -0.35533355069E+02  0.13489662053E+03  0.16258232360E+03  0.00000000000E+00 0.  1.
         11    1    4    4    0    0 -0.11072237975E+03 -0.15219227582E+03  0.47889074801E+03  0.51454667691E+03  0.00000000000E+00 0. -1.
</event>
<event>
 8    1  0.6840084E-009  0.2686771E+03  0.7561462E-02  0.1102039E+00
          1   -1    0    0  501    0  0.00000000000E+00  0.00000000000E+00  0.14519941775E+04  0.14519941775E+04  0.00000000000E+00 0. -1.
         -1   -1    0    0    0  501 -0.00000000000E+00 -0.00000000000E+00 -0.54861481642E+02  0.54861481642E+02  0.00000000000E+00 0.  1.
         25    2    1    2    0    0 -0.25776409816E+03 -0.23459043561E+02  0.77355789522E+03  0.82524644765E+03  0.12508886869E+03 0.  0.
         23    2    1    2    0    0  0.25776409816E+03  0.23459043561E+02  0.62357480065E+03  0.68160921151E+03  0.93557085145E+02 0.  0.
          5    1    3    3  502    0 -0.92096747308E+02 -0.41515794655E+02  0.15853907286E+03  0.18803585321E+03  0.41800000000E+01 0. -1.
         -5    1    3    3    0  502 -0.16566735086E+03  0.18056751094E+02  0.61501882237E+03  0.63721059444E+03  0.41800000000E+01 0. -1.
        -11    1    4    4    0    0  0.27774557924E+02  0.28098574003E+02  0.15007529351E+03  0.15518875491E+03  0.00000000000E+00 0. -1.
         11    1    4    4    0    0  0.22998954024E+03 -0.46395304425E+01  0.47349950714E+03  0.52642045660E+03  0.00000000000E+00 0.  1.
</event>
<event>
 8    1  0.6840084E-009  0.1210126E+03  0.7561462E-02  0.1241436E+00
          2   -1    0    0  501    0  0.00000000000E+00  0.00000000000E+00  0.68067441188E+03  0.68067441188E+03  0.00000000000E+00 0. -1.
         -2   -1    0    0    0  501 -0.00000000000E+00 -0.00000000000E+00 -0.24990704783E+02  0.24990704783E+02  0.00000000000E+00 0.  1.
         25    2    1    2    0    0  0.61412523057E+02  0.34521364671E+02  0.37871012749E+03  0.40500930572E+03  0.12509178410E+03 0.  0.
         23    2    1    2    0    0 -0.61412523057E+02 -0.34521364671E+02  0.27697357960E+03  0.30065581094E+03  0.93361288798E+02 0.  0.
          5    1    3    3  502    0  0.55708911714E+02  0.75791171897E+02  0.19438049990E+03  0.21598387838E+03  0.41800000000E+01 0.  1.
         -5    1    3    3    0  502  0.57036113431E+01 -0.41269807226E+02  0.18432962760E+03  0.18902542734E+03  0.41800000000E+01 0.  1.
        -11    1    4    4    0    0  0.12129332148E+02  0.13513821965E+02  0.12680885942E+02  0.22148339684E+02  0.00000000000E+00 0.  1.
         11    1    4    4    0    0 -0.73541855206E+02 -0.48035186636E+02  0.26429269366E+03  0.27850747126E+03  0.00000000000E+00 0. -1.
</event>
<event>
 8    1  0.6840084E-009  0.1438016E+03  0.7561462E-02  0.1208303E+00
          2   -1    0    0  501    0  0.00000000000E+00  0.00000000000E+00  0.32900193600E+02  0.32900193600E+02  0.00000000000E+00 0. -1.
         -2   -1    0    0    0  501 -0.00000000000E+00 -0.00000000000E+00 -0.63313568975E+03  0.63313568975E+03  0.00000000000E+00 0.  1.
         25    2    1    2    0    0 -0.56755390328E+02  0.74739337000E+02 -0.31019508294E+03  0.34738366868E+03  0.12508909207E+03 0.  0.
         23    2    1    2    0    0  0.56755390328E+02 -0.74739337000E+02 -0.29004041321E+03  0.31865221467E+03  0.92782809809E+02 0.  0.
          5    1    3    3  502    0  0.39365377235E+02  0.14704641127E+02 -0.69772684830E+02  0.81557092543E+02  0.41800000000E+01 0. -1.
         -5    1    3    3    0  502 -0.96120767563E+02  0.60034695872E+02 -0.24042239811E+03  0.26582657614E+03  0.41800000000E+01 0. -1.
        -11    1    4    4    0    0 -0.18811855236E+02 -0.48424228356E+02 -0.11359247164E+03  0.12490813185E+03  0.00000000000E+00 0. -1.
         11    1    4    4    0    0  0.75567245564E+02 -0.26315108643E+02 -0.17644794157E+03  0.19374408283E+03  0.00000000000E+00 0.  1.
</event>
<event>
 8    1  0.6840084E-009  0.2013278E+03  0.7561462E-02  0.1148624E+00
         -1   -1    0    0    0  501 -0.00000000000E+00  0.00000000000E+00  0.80898665879E+03  0.80898665879E+03  0.00000000000E+00 0.  1.
          1   -1    0    0  501    0  0.00000000000E+00 -0.00000000000E+00 -0.61587220191E+02  0.61587220191E+02  0.00000000000E+00 0. -1.
         25    2    1    2    0    0  0.24977948496E+02  0.17520335139E+03  0.22927717029E+03  0.31548980884E+03  0.12508271829E+03 0.  0.
         23    2    1    2    0    0 -0.24977948496E+02 -0.17520335139E+03  0.51812226830E+03  0.55508407013E+03  0.91364805904E+02 0.  0.
          5    1    3    3  502    0  0.67688131947E+02  0.10544949921E+03  0.18175739197E+03  0.22080421650E+03  0.41800000000E+01 0.  1.
         -5    1    3    3    0  502 -0.42710183451E+02  0.69753852181E+02  0.47519778326E+02  0.94685592339E+02  0.41800000000E+01 0.  1.
        -11    1    4    4    0    0 -0.35983709753E+02 -0.17986640781E+03  0.50525586054E+03  0.53752231268E+03  0.00000000000E+00 0.  1.
         11    1    4    4    0    0  0.11005761256E+02  0.46630564194E+01  0.12866407764E+02  0.17561757451E+02  0.00000000000E+00 0. -1.
</event>
<event>
 8    1  0.6840084E-009  0.1425639E+03  0.7561462E-02  0.1209920E+00
          1   -1    0    0  501    0  0.00000000000E+00  0.00000000000E+00  0.37667061155E+03  0.37667061155E+03  0.00000000000E+00 0. -1.
         -1   -1    0    0    0  501 -0.00000000000E+00 -0.00000000000E+00 -0.64916989044E+02  0.64916989044E+02  0.00000000000E+00 0.  1.
         25    2    1    2    0    0 -0.10520066495E+03  0.37727881847E+02  0.19566026529E+03  0.25771190393E+03  0.12506763386E+03 0.  0.
         23    2    1    2    0    0  0.10520066495E+03 -0.37727881847E+02  0.11609335721E+03  0.18387569666E+03  0.88555244114E+02 0.  0.
          5    1    3    3  502    0  0.54328122088E+01  0.39103180020E+02  0.90360294454E+01  0.40714817504E+02  0.41800000000E+01 0. -1.
         -5    1    3    3    0  502 -0.11063347716E+03 -0.13752981738E+01  0.18662423585E+03  0.21699708643E+03  0.41800000000E+01 0. -1.
        -11    1    4    4    0    0 -0.89700611700E+01 -0.16210247893E+02 -0.14775459474E+01  0.18585404924E+02  0.00000000000E+00 0.  1.
         11    1    4    4    0    0  0.11417072612E+03 -0.21517633954E+02  0.11757090316E+03  0.16529029174E+03  0.00000000000E+00 0. -1.
</event>
<event>
 8    1  0.6840084E-009  0.1186505E+03  0.7561462E-02  0.1245340E+00
         -1   -1    0    0    0  501 -0.00000000000E+00  0.00000000000E+00  0.12287351418E+03  0.12287351418E+03  0.00000000000E+00 0. -1.
          1   -1    0    0  501    0  0.00000000000E+00 -0.00000000000E+00 -0.19899035511E+03  0.19899035511E+03  0.00000000000E+00 0.  1.
         25    2    1    2    0    0  0.29716723573E+02 -0.91439237141E+02 -0.99727515088E+02  0.18664694558E+03  0.12508911736E+03 0.  0.
         23    2    1    2    0    0 -0.29716723573E+02  0.91439237141E+02  0.23610674157E+02  0.13521692370E+03  0.92097420009E+02 0.  0.
          5    1    3    3  502    0  0.50218187642E+02 -0.28889600471E+02 -0.10550529885E+03  0.12043801672E+03  0.41800000000E+01 0. -1.
         -5    1    3    3    0  502 -0.20501464069E+02 -0.62549636670E+02  0.57777837607E+01  0.66208928867E+02  0.41800000000E+01 0. -1.
        -11    1    4    4    0    0 -0.47979034367E+02  0.72595159406E+02 -0.15232283995E+02  0.88340632688E+02  0.00000000000E+00 0.  1.
         11    1    4    4    0    0  0.18262310793E+02  0.18844077735E+02  0.38842958152E+02  0.46876291014E+02  0.00000000000E+00 0. -1.
</event>
<event>
 8    1  0.6840084E-009  0.2691726E+03  0.7561462E-02  0.1101754E+00
          1   -1    0    0  501    0  0.00000000000E+00  0.00000000000E+00  0.59237559037E+03  0.59237559037E+03  0.00000000000E+00 0. -1.
         -1   -1    0    0    0  501 -0.00000000000E+00 -0.00000000000E+00 -0.16637376841E+03  0.16637376841E+03  0.00000000000E+00 0.  1.
         25    2    1    2    0    0 -0.52837404124E+02 -0.26004462388E+03  0.36210043808E+03  0.46602663790E+03  0.12509637199E+03 0.  0.
         23    2    1    2    0    0  0.52837404124E+02  0.26004462388E+03  0.63901383882E+02  0.29272272089E+03  0.10577432003E+03 0.  0.
          5    1    3    3  502    0 -0.29703391862E+02 -0.23450330269E+03  0.36071568765E+03  0.43128571757E+03  0.41800000000E+01 0. -1.
         -5    1    3    3    0  502 -0.23134012262E+02 -0.25541321192E+02  0.13847504327E+01  0.34740920330E+02  0.41800000000E+01 0. -1.
        -11    1    4    4    0    0  0.20973103140E+02  0.42949830742E+02 -0.27366841196E+02  0.55077245875E+02  0.00000000000E+00 0.  1.
         11    1    4    4    0    0  0.31864300984E+02  0.21709479314E+03  0.91268225078E+02  0.23764547501E+03  0.00000000000E+00 0. -1.
</event>
<event>
 8    1  0.6840084E-009  0.1028301E+03  0.7561462E-02  0.1274455E+00
         -1   -1    0    0    0  501 -0.00000000000E+00  0.00000000000E+00  0.30911272101E+02  0.30911272101E+02  0.00000000000E+00 0. -1.
          1   -1    0    0  501    0  0.00000000000E+00 -0.00000000000E+00 -0.52333355456E+03  0.52333355456E+03  0.00000000000E+00 0.  1.
         25    2    1    2    0    0 -0.43516361484E+02 -0.21453417879E+02 -0.26866448670E+03  0.30030341666E+03  0.12509041846E+03 0.  0.
         23    2    1    2    0    0  0.43516361484E+02  0.21453417879E+02 -0.22375779576E+03  0.25394141000E+03  0.10983972730E+03 0.  0.
          5    1    3    3  502    0  0.20204258237E+02  0.39460880558E+02 -0.70636190237E+02  0.83500400696E+02  0.41800000000E+01 0.  1.
         -5    1    3    3    0  502 -0.63720619721E+02 -0.60914298437E+02 -0.19802829646E+03  0.21680301597E+03  0.41800000000E+01 0.  1.
        -11    1    4    4    0    0  0.47352269924E+02  0.34946630640E+02 -0.23084229928E+03  0.23822609344E+03  0.00000000000E+00 0.  1.
         11    1    4    4    0    0 -0.38359084400E+01 -0.13493212760E+02  0.70845035254E+01  0.15715316553E+02  0.00000000000E+00 0. -1.
</event>
<event>
 8    1  0.6840084E-009  0.8362347E+02  0.7561462E-02  0.1319072E+00
         -2   -1    0    0    0  501 -0.00000000000E+00  0.00000000000E+00  0.14778786366E+03  0.14778786366E+03  0.00000000000E+00 0.  1.
          2   -1    0    0  501    0  0.00000000000E+00 -0.00000000000E+00 -0.11412159216E+03  0.11412159216E+03  0.00000000000E+00 0. -1.
         25    2    1    2    0    0  0.34681351409E+02  0.39118729346E+02 -0.29655374388E+02  0.13878069134E+03  0.12509023918E+03 0.  0.
         23    2    1    2    0    0 -0.34681351409E+02 -0.39118729346E+02  0.63321645889E+02  0.12312876448E+03  0.91749608622E+02 0.  0.
          5    1    3    3  502    0  0.54197009679E+02  0.63091776235E+02 -0.53963525691E+02  0.99234180561E+02  0.41800000000E+01 0. -1.
         -5    1    3    3    0  502 -0.19515658270E+02 -0.23973046889E+02  0.24308151303E+02  0.39546510777E+02  0.41800000000E+01 0. -1.
        -11    1    4    4    0    0 -0.26220323399E+02 -0.24508124994E+02  0.86962604669E+02  0.94077883483E+02  0.00000000000E+00 0.  1.
         11    1    4    4    0    0 -0.84610280097E+01 -0.14610604351E+02 -0.23640958780E+02  0.29050880994E+02  0.00000000000E+00 0. -1.
</event>
<event>
 8    1  0.6840084E-009  0.2250400E+03  0.7561462E-02  0.1130180E+00
         -2   -1    0    0    0  501 -0.00000000000E+00  0.00000000000E+00  0.10649031785E+03  0.10649031785E+03  0.00000000000E+00 0.  1.
          2   -1    0    0  501    0  0.00000000000E+00 -0.00000000000E+00 -0.52488715848E+03  0.52488715848E+03  0.00000000000E+00 0. -1.
         25    2    1    2    0    0 -0.79761256678E+02  0.18706009879E+03 -0.26340382199E+03  0.35550383366E+03  0.12509222072E+03 0.  0.
         23    2    1    2    0    0  0.79761256678E+02 -0.18706009879E+03 -0.15499301864E+03  0.27587364267E+03  0.10358615864E+03 0.  0.
          5    1    3    3  502    0 -0.31612934267E+02  0.18275254524E+03 -0.17699017863E+03  0.25639981696E+03  0.41800000000E+01 0.  1.
         -5    1    3    3    0  502 -0.48148322411E+02  0.43075535514E+01 -0.86413643360E+02  0.99104016707E+02  0.41800000000E+01 0.  1.
        -11    1    4    4    0    0  0.91140974504E+02 -0.13588157533E+03 -0.74424039299E+02  0.17974820548E+03  0.00000000000E+00 0.  1.
         11    1    4    4    0    0 -0.11379717826E+02 -0.51178523460E+02 -0.80568979343E+02  0.96125437184E+02  0.00000000000E+00 0. -1.
</event>
<event>
 8    1  0.6840084E-009  0.1651314E+03  0.7561462E-02  0.1183022E+00
         -1   -1    0    0    0  501 -0.00000000000E+00  0.00000000000E+00  0.96195268638E+02  0.96195268638E+02  0.00000000000E+00 0.  1.
          1   -1    0    0  501    0  0.00000000000E+00 -0.00000000000E+00 -0.32369822275E+03  0.32369822275E+03  0.00000000000E+00 0. -1.
         25    2    1    2    0    0 -0.19583168658E+01 -0.12547207478E+03 -0.18792802080E+03  0.25828401088E+03  0.12508642100E+03 0.  0.
         23    2    1    2    0    0  0.19583168658E+01  0.12547207478E+03 -0.39574933307E+02  0.16160948051E+03  0.93831616688E+02 0.  0.
          5    1    3    3  502    0  0.39463455284E+02  0.32850714533E+01 -0.27433786003E+02  0.48355361770E+02  0.41800000000E+01 0.  1.
         -5    1    3    3    0  502 -0.41421772150E+02 -0.12875714623E+03 -0.16049423480E+03  0.20992864911E+03  0.41800000000E+01 0.  1.
        -11    1    4    4    0    0  0.38969483753E+02  0.10675989860E+03 -0.38927799488E+02  0.12013188663E+03  0.00000000000E+00 0.  1.
         11    1    4    4    0    0 -0.37011166887E+02  0.18712176178E+02 -0.64713381956E+00  0.41477593877E+02  0.00000000000E+00 0. -1.
</event>
<event>
 8    1  0.6840084E-009  0.1046668E+03  0.7561462E-02  0.1270777E+00
         -2   -1    0    0    0  501 -0.00000000000E+00  0.00000000000E+00  0.21921487240E+03  0.21921487240E+03  0.00000000000E+00 0.  1.
          2   -1    0    0  501    0  0.00000000000E+00 -0.00000000000E+00 -0.62129524661E+02  0.62129524661E+02  0.00000000000E+00 0. -1.
         25    2    1    2    0    0  0.35657563815E+02  0.23260663421E+02  0.10179413663E+03  0.16679947759E+03  0.12508996423E+03 0.  0.
         23    2    1    2    0    0 -0.35657563815E+02 -0.23260663421E+02  0.55291211103E+02  0.11454491947E+03  0.90834466091E+02 0.  0.
          5    1    3    3  502    0 -0.56097834969E+01  0.69244905830E+02  0.45837327824E+02  0.83335824688E+02  0.41800000000E+01 0.  1.
         -5    1    3    3    0  502  0.41267347312E+02 -0.45984242409E+02  0.55956808811E+02  0.83463652905E+02  0.41800000000E+01 0.  1.
        -11    1    4    4    0    0  0.25446115673E+00 -0.38712653722E+02  0.63713312637E+02  0.74552803541E+02  0.00000000000E+00 0.  1.
         11    1    4    4    0    0 -0.35912024971E+02  0.15451990301E+02 -0.84221015343E+01  0.39992115924E+02  0.00000000000E+00 0. -1.
</event>
<event>
 8    1  0.6840084E-009  0.1331712E+03  0.7561462E-02  0.1222825E+00
         -2   -1    0    0    0  501 -0.00000000000E+00  0.00000000000E+00  0.36787775771E+02  0.36787775771E+02  0.00000000000E+00 0.  1.
          2   -1    0    0  501    0  0.00000000000E+00 -0.00000000000E+00 -0.51917839093E+03  0.51917839093E+03  0.00000000000E+00 0. -1.
         25    2    1    2    0    0  0.78017941968E+01  0.79212872001E+02 -0.32961043495E+03  0.36142179177E+03  0.12508847131E+03 0.  0.
         23    2    1    2    0    0 -0.78017941968E+01 -0.79212872001E+02 -0.15278018021E+03  0.19454437494E+03  0.90389066095E+02 0.  0.
          5    1    3    3  502    0  0.45303496475E+02 -0.13963540553E+02 -0.98483646054E+02  0.10937956024E+03  0.41800000000E+01 0. -1.
         -5    1    3    3    0  502 -0.37501702278E+02  0.93176412554E+02 -0.23112678890E+03  0.25204223153E+03  0.41800000000E+01 0. -1.
        -11    1    4    4    0    0 -0.32491858792E+02  0.27652021843E+01 -0.60063052000E+02  0.68344256865E+02  0.00000000000E+00 0. -1.
         11    1    4    4    0    0  0.24690064595E+02 -0.81978074185E+02 -0.92717128213E+02  0.12620011807E+03  0.00000000000E+00 0.  1.
</event>
<event>
 8    1  0.6840084E-009  0.1210468E+03  0.7561462E-02  0.1241380E+00
         -1   -1    0    0    0  501 -0.00000000000E+00  0.00000000000E+00  0.36958004385E+02  0.36958004385E+02  0.00000000000E+00 0.  1.
          1   -1    0    0  501    0  0.00000000000E+00 -0.00000000000E+00 -0.48560442415E+03  0.48560442415E+03  0.00000000000E+00 0. -1.
         25    2    1    2    0    0 -0.53342345473E+02  0.48724626661E+02 -0.27554217836E+03  0.31111111777E+03  0.12508853057E+03 0.  0.
         23    2    1    2    0    0  0.53342345473E+02 -0.48724626661E+02 -0.17310424141E+03  0.21145131076E+03  0.97606779312E+02 0.  0.
          5    1    3    3  502    0 -0.50730993037E+01 -0.38184652360E+02 -0.41397029179E+02  0.56700885683E+02  0.41800000000E+01 0. -1.
         -5    1    3    3    0  502 -0.48269246169E+02  0.86909279021E+02 -0.23414514919E+03  0.25441023209E+03  0.41800000000E+01 0. -1.
        -11    1    4    4    0    0  0.72319820954E+02 -0.42447780701E+02 -0.78866007458E+02  0.11511653974E+03  0.00000000000E+00 0.  1.
         11    1    4    4    0    0 -0.18977475482E+02 -0.62768459602E+01 -0.94238233947E+02  0.96334771025E+02  0.00000000000E+00 0. -1.
</event>
<event>
 8    1  0.6840084E-009  0.8764646E+02  0.7561462E-02  0.1308653E+00
         -1   -1    0    0    0  501 -0.00000000000E+00  0.00000000000E+00  0.12592947580E+03  0.12592947580E+03  0.00000000000E+00 0.  1.
          1   -1    0    0  501    0  0.00000000000E+00 -0.00000000000E+00 -0.15717159318E+03  0.15717159318E+03  0.00000000000E+00 0. -1.
         25    2    1    2    0    0 -0.16583437409E+02  0.16720258220E+02 -0.10343987864E+03  0.16401612621E+03  0.12508758425E+03 0.  0.
         23    2    1    2    0    0  0.16583437409E+02 -0.16720258220E+02  0.72197761260E+02  0.11908494277E+03  0.91728563884E+02 0.  0.
          5    1    3    3  502    0 -0.51345978417E+02 -0.16735530390E+02 -0.51083010855E+01  0.54406383973E+02  0.41800000000E+01 0. -1.
         -5    1    3    3    0  502  0.34762541007E+02  0.33455788610E+02 -0.98331577555E+02  0.10960974224E+03  0.41800000000E+01 0. -1.
        -11    1    4    4    0    0 -0.14332942834E+02 -0.34272055157E+02 -0.15867348472E+01  0.37182317605E+02  0.00000000000E+00 0. -1.
         11    1    4    4    0    0  0.30916380243E+02  0.17551796937E+02  0.73784496107E+02  0.81902625165E+02  0.00000000000E+00 0.  1.
</event>
<event>
 8    1  0.6840084E-009  0.4468713E+02  0.7561462E-02  0.1476304E+00
         -3   -1    0    0    0  501 -0.00000000000E+00  0.00000000000E+00  0.17397975412E+03  0.17397975412E+03  0.00000000000E+00 0.  1.
          3   -1    0    0  501    0  0.00000000000E+00 -0.00000000000E+00 -0.78560598837E+02  0.78560598837E+02  0.00000000000E+00 0. -1.
         25    2    1    2    0    0  0.95361863773E+01  0.23774816374E+02  0.94203081094E+02  0.15867451696E+03  0.12508877287E+03 0.  0.
         23    2    1    2    0    0 -0.95361863773E+01 -0.23774816374E+02  0.12160741869E+01  0.93865836000E+02  0.90294715168E+02 0.  0.
          5    1    3    3  502    0  0.76471158571E+01 -0.72191250795E+01  0.11849182423E+03  0.11903099999E+03  0.41800000000E+01 0. -1.
         -5    1    3    3    0  502  0.18890705202E+01  0.30993941453E+02 -0.24288743140E+02  0.39643516968E+02  0.41800000000E+01 0. -1.
        -11    1    4    4    0    0 -0.13959198638E+02  0.70132427047E+01  0.40704029950E+02  0.43598885927E+02  0.00000000000E+00 0.  1.
         11    1    4    4    0    0  0.44230122606E+01 -0.30788059079E+02 -0.39487955763E+02  0.50266950073E+02  0.00000000000E+00 0. -1.
</event>
<event>
 8    1  0.6840084E-009  0.1080177E+03  0.7561462E-02  0.1264285E+00
         -3   -1    0    0    0  501 -0.00000000000E+00  0.00000000000E+00  0.44750255864E+02  0.44750255864E+02  0.00000000000E+00 0.  1.
          3   -1    0    0  501    0  0.00000000000E+00 -0.00000000000E+00 -0.28496303763E+03  0.28496303763E+03  0.00000000000E+00 0. -1.
         25    2    1    2    0    0 -0.95925647682E+01 -0.23163612552E+02 -0.16626423203E+03  0.20956967522E+03  0.12508830352E+03 0.  0.
         23    2    1    2    0    0  0.95925647682E+01  0.23163612552E+02 -0.73948549738E+02  0.12014361827E+03  0.91310080259E+02 0.  0.
          5    1    3    3  502    0  0.22685333485E+02 -0.66112543725E+02 -0.11808368379E+03  0.13728336232E+03  0.41800000000E+01 0.  1.
         -5    1    3    3    0  502 -0.32277898253E+02  0.42948931173E+02 -0.48180548235E+02  0.72286312901E+02  0.41800000000E+01 0.  1.
        -11    1    4    4    0    0 -0.30000140286E+02  0.39239732869E+02 -0.53354135050E+02  0.72707831626E+02  0.00000000000E+00 0. -1.
         11    1    4    4    0    0  0.39592705055E+02 -0.16076120317E+02 -0.20594414688E+02  0.47435786642E+02  0.00000000000E+00 0.  1.
</event>
<event>
 8    1  0.6840084E-009  0.1271924E+03  0.7561462E-02  0.1231682E+00
          1   -1    0    0  501    0  0.00000000000E+00  0.00000000000E+00  0.60159939979E+02  0.60159939979E+02  0.00000000000E+00 0. -1.
         -1   -1    0    0    0  501 -0.00000000000E+00 -0.00000000000E+00 -0.37303874872E+03  0.37303874872E+03  0.00000000000E+00 0.  1.
         25    2    1    2    0    0 -0.81155598700E+02  0.26713520797E+02 -0.85283878909E+02  0.17384171469E+03  0.12509100036E+03 0.  0.
         23    2    1    2    0    0  0.81155598700E+02 -0.26713520797E+02 -0.22759492983E+03  0.25935697401E+03  0.90370041989E+02 0.  0.
          5    1    3    3  502    0 -0.55957825708E+02  0.66382554969E+02 -0.13533764676E+02  0.87969068703E+02  0.41800000000E+01 0. -1.
         -5    1    3    3    0  502 -0.25197772992E+02 -0.39669034172E+02 -0.71750114234E+02  0.85872645985E+02  0.41800000000E+01 0. -1.
        -11    1    4    4    0    0 -0.18052141174E+02 -0.48826544133E+01 -0.15879397720E+02  0.24533148739E+02  0.00000000000E+00 0. -1.
         11    1    4    4    0    0  0.99207739874E+02 -0.21830866384E+02 -0.21171553211E+03  0.23482382527E+03  0.00000000000E+00 0.  1.
</event>
<event>
 8    1  0.6840084E-009  0.3251377E+03  0.7561462E-02  0.1073309E+00
          2   -1    0    0  501    0  0.00000000000E+00  0.00000000000E+00  0.14716205147E+04  0.14716205147E+04  0.00000000000E+00 0. -1.
         -2   -1    0    0    0  501 -0.00000000000E+00 -0.00000000000E+00 -0.86150859682E+02  0.86150859682E+02  0.00000000000E+00 0.  1.
         25    2    1    2    0    0  0.13137301842E+03  0.29344623875E+03  0.46718655975E+03  0.58075791604E+03  0.12508761100E+03 0.  0.
         23    2    1    2    0    0 -0.13137301842E+03 -0.29344623875E+03  0.91828309532E+03  0.97701345839E+03  0.89117280738E+02 0.  0.
          5    1    3    3  502    0  0.11907775782E+03  0.19329435766E+03  0.23113848149E+03  0.32401341197E+03  0.41800000000E+01 0.  1.
         -5    1    3    3    0  502  0.12295260601E+02  0.10015188108E+03  0.23604807826E+03  0.25674450407E+03  0.41800000000E+01 0.  1.
        -11    1    4    4    0    0 -0.77578893138E+02 -0.14721452039E+03  0.59985307829E+03  0.62250647804E+03  0.00000000000E+00 0. -1.
         11    1    4    4    0    0 -0.53794125287E+02 -0.14623171836E+03  0.31843001703E+03  0.35450698035E+03  0.00000000000E+00 0.  1.
</event>
<event>
 8    1  0.6840084E-009  0.1112112E+03  0.7561462E-02  0.1258343E+00
          2   -1    0    0  501    0  0.00000000000E+00  0.00000000000E+00  0.39252662500E+03  0.39252662500E+03  0.00000000000E+00 0. -1.
         -2   -1    0    0    0  501 -0.00000000000E+00 -0.00000000000E+00 -0.53743863277E+02  0.53743863277E+02  0.00000000000E+00 0.  1.
         25    2    1    2    0    0  0.95166862809E+02 -0.52682418592E+01  0.16065164905E+03  0.22480408804E+03  0.12507373628E+03 0.  0.
         23    2    1    2    0    0 -0.95166862809E+02  0.52682418592E+01  0.17813111267E+03  0.22146640023E+03  0.90731400202E+02 0.  0.
          5    1    3    3  502    0  0.67518764889E+02  0.16774109347E+02  0.17348080313E+03  0.18695779153E+03  0.41800000000E+01 0.  1.
         -5    1    3    3    0  502  0.27648097919E+02 -0.22042351207E+02 -0.12829154083E+02  0.37846296513E+02  0.41800000000E+01 0.  1.
        -11    1    4    4    0    0 -0.51526443619E+02 -0.31210294240E+02  0.14156067985E+03  0.15384564647E+03  0.00000000000E+00 0. -1.
         11    1    4    4    0    0 -0.43640419189E+02  0.36478536099E+02  0.36570432821E+02  0.67620753764E+02  0.00000000000E+00 0.  1.
</event>
<event>
 8    1  0.6840084E-009  0.1185125E+03  0.7561462E-02  0.1245571E+00
          2   -1    0    0  501    0  0.00000000000E+00  0.00000000000E+00  0.59445060064E+03  0.59445060064E+03  0.00000000000E+00 0.  1.
         -2   -1    0    0    0  501 -0.00000000000E+00 -0.00000000000E+00 -0.24024947437E+02  0.24024947437E+02  0.00000000000E+00 0. -1.
         25    2    1    2    0    0  0.31662550813E+02  0.29461052425E+02  0.28255244822E+03  0.31201803511E+03  0.12509555351E+03 0.  0.
         23    2    1    2    0    0 -0.31662550813E+02 -0.29461052425E+02  0.28787320498E+03  0.30645751296E+03  0.95784938117E+02 0.  0.
          5    1    3    3  502    0 -0.72177542053E+01  0.73006637068E+02  0.16850224365E+03  0.18382748311E+03  0.41800000000E+01 0. -1.
         -5    1    3    3    0  502  0.38880305018E+02 -0.43545584644E+02  0.11405020457E+03  0.12819055200E+03  0.41800000000E+01 0. -1.
        -11    1    4    4    0    0 -0.53926598680E+02  0.14410838645E+02  0.14705117267E+03  0.15728889884E+03  0.00000000000E+00 0.  1.
         11    1    4    4    0    0  0.22264047867E+02 -0.43871891070E+02  0.14082203231E+03  0.14916861412E+03  0.00000000000E+00 0. -1.
</event>
<event>
 8    1  0.6840084E-009  0.9607010E+02  0.7561462E-02  0.1288784E+00
         -1   -1    0    0    0  501 -0.00000000000E+00  0.00000000000E+00  0.23765281340E+03  0.23765281340E+03  0.00000000000E+00 0.  1.
          1   -1    0    0  501    0  0.00000000000E+00 -0.00000000000E+00 -0.63573774662E+02  0.63573774662E+02  0.00000000000E+00 0. -1.
         25    2    1    2    0    0 -0.20619728235E+02 -0.50079516769E+02  0.11912107438E+03  0.18102211929E+03  0.12508415614E+03 0.  0.
         23    2    1    2    0    0  0.20619728235E+02  0.50079516769E+02  0.54957964360E+02  0.12020446878E+03  0.92171607747E+02 0.  0.
          5    1    3    3  502    0  0.38300913516E+02 -0.64761305519E+02  0.69045467370E+02  0.10220438167E+03  0.41800000000E+01 0. -1.
         -5    1    3    3    0  502 -0.58920641751E+02  0.14681788750E+02  0.50075607008E+02  0.78817737614E+02  0.41800000000E+01 0. -1.
        -11    1    4    4    0    0  0.66711872131E+01  0.33928518026E+02  0.80089167779E+02  0.87234877599E+02  0.00000000000E+00 0.  1.
         11    1    4    4    0    0  0.13948541022E+02  0.16150998743E+02 -0.25131203419E+02  0.32969591176E+02  0.00000000000E+00 0. -1.
</event>
<event>
 8    1  0.6840084E-009  0.1958681E+03  0.7561462E-02  0.1153273E+00
         -1   -1    0    0    0  501 -0.00000000000E+00  0.00000000000E+00  0.63073085545E+02  0.63073085545E+02  0.00000000000E+00 0.  1.
          1   -1    0    0  501    0  0.00000000000E+00 -0.00000000000E+00 -0.88012323703E+03  0.88012323703E+03  0.00000000000E+00 0. -1.
         25    2    1    2    0    0  0.14511455808E+02  0.17439142509E+03 -0.65115453770E+03  0.68576337301E+03  0.12508485240E+03 0.  0.
         23    2    1    2    0    0 -0.14511455808E+02 -0.17439142509E+03 -0.16589561379E+03  0.25743294957E+03  0.90152189949E+02 0.  0.
          5    1    3    3  502    0 -0.27322353976E+02  0.14564792812E+03 -0.34650029513E+03  0.37688162189E+03  0.41800000000E+01 0. -1.
         -5    1    3    3    0  502  0.41833809785E+02  0.28743496972E+02 -0.30465424257E+03  0.30888175112E+03  0.41800000000E+01 0. -1.
        -11    1    4    4    0    0  0.31202823211E+02 -0.10439328324E+03 -0.11990416718E+03  0.16201414466E+03  0.00000000000E+00 0.  1.
         11    1    4    4    0    0 -0.45714279019E+02 -0.69998141850E+02 -0.45991446607E+02  0.95418804906E+02  0.00000000000E+00 0. -1.
</event>
<event>
 8    1  0.6840084E-009  0.7167003E+02  0.7561462E-02  0.1354504E+00
         -4   -1    0    0    0  501 -0.00000000000E+00  0.00000000000E+00  0.48113009846E+02  0.48113009846E+02  0.00000000000E+00 0.  1.
          4   -1    0    0  501    0  0.00000000000E+00 -0.00000000000E+00 -0.35222063126E+03  0.35222063126E+03  0.00000000000E+00 0. -1.
         25    2    1    2    0    0  0.14444990194E+02 -0.27463681435E+02 -0.68632771731E+02  0.14601561747E+03  0.12508873511E+03 0.  0.
         23    2    1    2    0    0 -0.14444990194E+02  0.27463681435E+02 -0.23547484969E+03  0.25431802364E+03  0.90919419112E+02 0.  0.
          5    1    3    3  502    0  0.33214575896E+02 -0.22159146098E+02  0.26963385989E+02  0.48360442427E+02  0.41800000000E+01 0. -1.
         -5    1    3    3    0  502 -0.18769585702E+02 -0.53045353363E+01 -0.95596157720E+02  0.97655175047E+02  0.41800000000E+01 0. -1.
        -11    1    4    4    0    0  0.13488019580E+02  0.47170744100E+02 -0.19623890113E+03  0.20227879792E+03  0.00000000000E+00 0. -1.
         11    1    4    4    0    0 -0.27933009774E+02 -0.19707062666E+02 -0.39235948551E+02  0.52039225712E+02  0.00000000000E+00 0.  1.
</event>
<event>
 8    1  0.6840084E-009  0.1898149E+03  0.7561462E-02  0.1158628E+00
          1   -1    0    0  501    0  0.00000000000E+00  0.00000000000E+00  0.56003899414E+03  0.56003899414E+03  0.00000000000E+00 0. -1.
         -1   -1    0    0    0  501 -0.00000000000E+00 -0.00000000000E+00 -0.76739508037E+02  0.76739508037E+02  0.00000000000E+00 0.  1.
         25    2    1    2    0    0 -0.60174491028E+01 -0.17263918159E+03  0.30235848006E+03  0.37001175446E+03  0.12509017252E+03 0.  0.
         23    2    1    2    0    0  0.60174491028E+01  0.17263918159E+03  0.18094100605E+03  0.26676674772E+03  0.92651785238E+02 0.  0.
          5    1    3    3  502    0 -0.34938621520E+02 -0.11280713230E+03  0.93166442318E+02  0.15047795435E+03  0.41800000000E+01 0.  1.
         -5    1    3    3    0  502  0.28921172417E+02 -0.59832049293E+02  0.20919203774E+03  0.21953380011E+03  0.41800000000E+01 0.  1.
        -11    1    4    4    0    0  0.32918372036E+02  0.17229811192E+02  0.46513318042E+02  0.59531288971E+02  0.00000000000E+00 0. -1.
         11    1    4    4    0    0 -0.26900922934E+02  0.15540937040E+03  0.13442768801E+03  0.20723545875E+03  0.00000000000E+00 0.  1.
</event>
<event>
 8    1  0.6840084E-009  0.1869602E+03  0.7561462E-02  0.1161232E+00
         -4   -1    0    0    0  501 -0.00000000000E+00  0.00000000000E+00  0.24523299205E+03  0.24523299205E+03  0.00000000000E+00 0.  1.
          4   -1    0    0  501    0  0.00000000000E+00 -0.00000000000E+00 -0.19952223481E+03  0.19952223481E+03  0.00000000000E+00 0. -1.
         25    2    1    2    0    0 -0.13282205016E+03 -0.12593656421E+03  0.97835801878E+02  0.24231456725E+03  0.12507114038E+03 0.  0.
         23    2    1    2    0    0  0.13282205016E+03  0.12593656421E+03 -0.52125044634E+02  0.20244065961E+03  0.69018006129E+02 0.  0.
          5    1    3    3  502    0 -0.31658360108E+02 -0.36038261666E+02 -0.29479849157E+02  0.56458320688E+02  0.41800000000E+01 0.  1.
         -5    1    3    3    0  502 -0.10116369006E+03 -0.89898302549E+02  0.12731565104E+03  0.18585624656E+03  0.41800000000E+01 0.  1.
        -11    1    4    4    0    0  0.97738102816E+02  0.57326619574E+02 -0.78827115520E+01  0.11358351639E+03  0.00000000000E+00 0.  1.
         11    1    4    4    0    0  0.35083947346E+02  0.68609944641E+02 -0.44242333082E+02  0.88857143222E+02  0.00000000000E+00 0. -1.
</event>
<event>
 8    1  0.6840084E-009  0.8282721E+02  0.7561462E-02  0.1321214E+00
          2   -1    0    0  501    0  0.00000000000E+00  0.00000000000E+00  0.16622498592E+04  0.16622498592E+04  0.00000000000E+00 0. -1.
         -2   -1    0    0    0  501 -0.00000000000E+00 -0.00000000000E+00 -0.80932714773E+01  0.80932714773E+01  0.00000000000E+00 0.  1.
         25    2    1    2    0    0  0.67462143957E+01 -0.33050196929E+02  0.11128372454E+04  0.11203534084E+04  0.12508876017E+03 0.  0.
         23    2    1    2    0    0 -0.67462143957E+01  0.33050196929E+02  0.54131934228E+03  0.54998972229E+03  0.91237258670E+02 0.  0.
          5    1    3    3  502    0  0.32820135434E+02 -0.13545106572E+02  0.87921757106E+02  0.94912269884E+02  0.41800000000E+01 0.  1.
         -5    1    3    3    0  502 -0.26073921038E+02 -0.19505090356E+02  0.10249154883E+04  0.10254411385E+04  0.41800000000E+01 0.  1.
        -11    1    4    4    0    0 -0.46625654551E+02  0.22396948906E+01  0.27789819759E+03  0.28179136984E+03  0.00000000000E+00 0. -1.
         11    1    4    4    0    0  0.39879440155E+02  0.30810502038E+02  0.26342114470E+03  0.26819835245E+03  0.00000000000E+00 0.  1.
</event>
<event>
 8    1  0.6840084E-009  0.9935501E+02  0.7561462E-02  0.1281658E+00
          4   -1    0    0  501    0  0.00000000000E+00  0.00000000000E+00  0.20301850609E+03  0.20301850609E+03  0.00000000000E+00 0. -1.
         -4   -1    0    0    0  501 -0.00000000000E+00 -0.00000000000E+00 -0.10361529907E+03  0.10361529907E+03  0.00000000000E+00 0.  1.
         25    2    1    2    0    0  0.14786188537E+02  0.22216468043E+02 -0.43988376187E+02  0.13526340425E+03  0.12509599700E+03 0.  0.
         23    2    1    2    0    0 -0.14786188537E+02 -0.22216468043E+02  0.14339158321E+03  0.17137040090E+03  0.89969246674E+02 0.  0.
          5    1    3    3  502    0  0.36332893800E+02  0.56211347167E+02  0.99902738990E+01  0.67801716016E+02  0.41800000000E+01 0.  1.
         -5    1    3    3    0  502 -0.21546705264E+02 -0.33994879123E+02 -0.53978650086E+02  0.67461688235E+02  0.41800000000E+01 0.  1.
        -11    1    4    4    0    0 -0.37607618146E+01 -0.55753852576E+02  0.67207394248E+02  0.87404057389E+02  0.00000000000E+00 0.  1.
         11    1    4    4    0    0 -0.11025426722E+02  0.33537384533E+02  0.76184188959E+02  0.83966343513E+02  0.00000000000E+00 0. -1.
</event>
<event>
 8    1  0.6840084E-009  0.8219123E+02  0.7561462E-02  0.1322946E+00
          2   -1    0    0  501    0  0.00000000000E+00  0.00000000000E+00  0.12174963676E+03  0.12174963676E+03  0.00000000000E+00 0. -1.
         -2   -1    0    0    0  501 -0.00000000000E+00 -0.00000000000E+00 -0.13173794317E+03  0.13173794317E+03  0.00000000000E+00 0.  1.
         25    2    1    2    0    0  0.17998522417E+02  0.45529832766E+02  0.37740707085E+02  0.13955178421E+03  0.12511365642E+03 0.  0.
         23    2    1    2    0    0 -0.17998522417E+02 -0.45529832766E+02 -0.47729013496E+02  0.11393579572E+03  0.91139422511E+02 0.  0.
          5    1    3    3  502    0 -0.25643375761E+02  0.17895142312E+02  0.71192024538E+02  0.77869092692E+02  0.41800000000E+01 0.  1.
         -5    1    3    3    0  502  0.43641898178E+02  0.27634690454E+02 -0.33451317454E+02  0.61682691515E+02  0.41800000000E+01 0.  1.
        -11    1    4    4    0    0  0.24320673481E+02 -0.20749268021E+02 -0.55728319392E+02  0.64246967744E+02  0.00000000000E+00 0.  1.
         11    1    4    4    0    0 -0.42319195899E+02 -0.24780564745E+02  0.79993058959E+01  0.49688827974E+02  0.00000000000E+00 0. -1.
</event>
<event>
 8    1  0.6840084E-009  0.1080548E+03  0.7561462E-02  0.1264215E+00
         -2   -1    0    0    0  501 -0.00000000000E+00  0.00000000000E+00  0.17163963004E+03  0.17163963004E+03  0.00000000000E+00 0.  1.
          2   -1    0    0  501    0  0.00000000000E+00 -0.00000000000E+00 -0.80774893824E+02  0.80774893824E+02  0.00000000000E+00 0. -1.
         25    2    1    2    0    0  0.80220254950E+01  0.26886976638E+02  0.12452698193E+02  0.12880120349E+03  0.12508963954E+03 0.  0.
         23    2    1    2    0    0 -0.80220254950E+01 -0.26886976638E+02  0.78412038018E+02  0.12361332037E+03  0.91348469402E+02 0.  0.
          5    1    3    3  502    0 -0.27973732339E+02  0.66809335836E+02  0.17556413975E+02  0.74643935637E+02  0.41800000000E+01 0.  1.
         -5    1    3    3    0  502  0.35995757834E+02 -0.39922359198E+02 -0.51037157822E+01  0.54157267848E+02  0.41800000000E+01 0.  1.
        -11    1    4    4    0    0 -0.46439445233E+02 -0.91639380843E+01  0.62521851938E+02  0.78419269344E+02  0.00000000000E+00 0.  1.
         11    1    4    4    0    0  0.38417419738E+02 -0.17723038553E+02  0.15890186080E+02  0.45194051030E+02  0.00000000000E+00 0. -1.
</event>
<event>
 8    1  0.6840084E-009  0.1169412E+03  0.7561462E-02  0.1248230E+00
          1   -1    0    0  501    0  0.00000000000E+00  0.00000000000E+00  0.94274235708E+03  0.94274235708E+03  0.00000000000E+00 0. -1.
         -1   -1    0    0    0  501 -0.00000000000E+00 -0.00000000000E+00 -0.20691387963E+02  0.20691387963E+02  0.00000000000E+00 0.  1.
         25    2    1    2    0    0 -0.83325981220E+02  0.15908748957E+02  0.57867727664E+03  0.59808755079E+03  0.12508005623E+03 0.  0.
         23    2    1    2    0    0  0.83325981220E+02 -0.15908748957E+02  0.34337369247E+03  0.36534619425E+03  0.91520716411E+02 0.  0.
          5    1    3    3  502    0 -0.71923428637E+02  0.46636341202E+02  0.19574276687E+03  0.21373027649E+03  0.41800000000E+01 0.  1.
         -5    1    3    3    0  502 -0.11402552583E+02 -0.30727592245E+02  0.38293450977E+03  0.38435727429E+03  0.41800000000E+01 0.  1.
        -11    1    4    4    0    0 -0.44162489839E+01 -0.26296765183E+02  0.31867301814E+02  0.41551751336E+02  0.00000000000E+00 0.  1.
         11    1    4    4    0    0  0.87742230204E+02  0.10388016226E+02  0.31150639066E+03  0.32379444292E+03  0.00000000000E+00 0. -1.
</event>
<event>
 8    1  0.6840084E-009  0.1453002E+03  0.7561462E-02  0.1206370E+00
          1   -1    0    0  501    0  0.00000000000E+00  0.00000000000E+00  0.93352815784E+03  0.93352815784E+03  0.00000000000E+00 0. -1.
         -1   -1    0    0    0  501 -0.00000000000E+00 -0.00000000000E+00 -0.28786994467E+02  0.28786994467E+02  0.00000000000E+00 0.  1.
         25    2    1    2    0    0  0.48714694551E+02  0.94159780641E+02  0.66727632769E+03  0.68712765790E+03  0.12509010753E+03 0.  0.
         23    2    1    2    0    0 -0.48714694551E+02 -0.94159780641E+02  0.23746483568E+03  0.27518749440E+03  0.89996795137E+02 0.  0.
          5    1    3    3  502    0 -0.39594423061E+02  0.53144822177E+02  0.25822516902E+03  0.26662670680E+03  0.41800000000E+01 0. -1.
         -5    1    3    3    0  502  0.88309117612E+02  0.41014958464E+02  0.40905115867E+03  0.42050095110E+03  0.41800000000E+01 0. -1.
        -11    1    4    4    0    0 -0.22853745685E+02 -0.97967065513E+02  0.22450196224E+03  0.24601010278E+03  0.00000000000E+00 0.  1.
         11    1    4    4    0    0 -0.25860948866E+02  0.38072848721E+01  0.12962873439E+02  0.29177391627E+02  0.00000000000E+00 0. -1.
</event>
<event>
 8    1  0.6840084E-009  0.9385487E+02  0.7561462E-02  0.1293776E+00
         -2   -1    0    0    0  501 -0.00000000000E+00  0.00000000000E+00  0.18343642430E+03  0.18343642430E+03  0.00000000000E+00 0. -1.
          2   -1    0    0  501    0  0.00000000000E+00 -0.00000000000E+00 -0.88038057654E+02  0.88038057654E+02  0.00000000000E+00 0.  1.
         25    2    1    2    0    0  0.30537364469E+02  0.16215587815E+02 -0.19990357971E+01  0.12980557594E+03  0.12510002192E+03 0.  0.
         23    2    1    2    0    0 -0.30537364469E+02 -0.16215587815E+02  0.97397402440E+02  0.14166890601E+03  0.96893493134E+02 0.  0.
          5    1    3    3  502    0  0.75442824354E+02  0.87116712549E+01 -0.23046276375E+02  0.79473997114E+02  0.41800000000E+01 0. -1.
         -5    1    3    3    0  502 -0.44905459885E+02  0.75039165596E+01  0.21047240578E+02  0.50331578826E+02  0.41800000000E+01 0. -1.
        -11    1    4    4    0    0 -0.34506584128E+02 -0.33561950482E+02  0.10986072162E+03  0.11994368271E+03  0.00000000000E+00 0. -1.
         11    1    4    4    0    0  0.39692196592E+01  0.17346362667E+02 -0.12463319178E+02  0.21725223300E+02  0.00000000000E+00 0.  1.
</event>
<event>
 8    1  0.6840084E-009  0.2012538E+03  0.7561462E-02  0.1148685E+00
          1   -1    0    0  501    0  0.00000000000E+00  0.00000000000E+00  0.98357070438E+03  0.98357070438E+03  0.00000000000E+00 0. -1.
         -1   -1    0    0    0  501 -0.00000000000E+00 -0.00000000000E+00 -0.10929762415E+03  0.10929762415E+03  0.00000000000E+00 0.  1.
         25    2    1    2    0    0 -0.11059402617E+03 -0.14880420995E+03  0.85740650081E+03  0.88609604048E+03  0.12508618553E+03 0.  0.
         23    2    1    2    0    0  0.11059402617E+03  0.14880420995E+03  0.16866579419E+02  0.20677228804E+03  0.89980920641E+02 0.  0.
          5    1    3    3  502    0 -0.47574270034E+02 -0.14196481355E+03  0.46352626392E+03  0.48712564006E+03  0.41800000000E+01 0. -1.
         -5    1    3    3    0  502 -0.63019756133E+02 -0.68393963935E+01  0.39388023689E+03  0.39897040043E+03  0.41800000000E+01 0. -1.
        -11    1    4    4    0    0  0.39578077030E+02  0.84859102465E+02 -0.32622880149E+02  0.99155149951E+02  0.00000000000E+00 0.  1.
         11    1    4    4    0    0  0.71015949136E+02  0.63945107481E+02  0.49489459568E+02  0.10761713809E+03  0.00000000000E+00 0. -1.
</event>
<event>
 8    1  0.6840084E-009  0.7733231E+02  0.7561462E-02  0.1336797E+00
         -1   -1    0    0    0  501 -0.00000000000E+00  0.00000000000E+00  0.42954757848E+02  0.42954757848E+02  0.00000000000E+00 0.  1.
          1   -1    0    0  501    0  0.00000000000E+00 -0.00000000000E+00 -0.32586267974E+03  0.32586267974E+03  0.00000000000E+00 0. -1.
         25    2    1    2    0    0 -0.30026620700E+02  0.34460803347E+02 -0.17051136480E+03  0.21635844462E+03  0.12509079149E+03 0.  0.
         23    2    1    2    0    0  0.30026620700E+02 -0.34460803347E+02 -0.11239655710E+03  0.15245899297E+03  0.92312586204E+02 0.  0.
          5    1    3    3  502    0 -0.34766807245E+00 -0.68510947987E+01 -0.16480580690E+03  0.16500146897E+03  0.41800000000E+01 0.  1.
         -5    1    3    3    0  502 -0.29678952628E+02  0.41311898146E+02 -0.57055578965E+01  0.51356975655E+02  0.41800000000E+01 0.  1.
        -11    1    4    4    0    0  0.52462078974E+02  0.23152313243E+01 -0.32693267082E+02  0.61858546207E+02  0.00000000000E+00 0.  1.
         11    1    4    4    0    0 -0.22435458274E+02 -0.36776034672E+02 -0.79703290018E+02  0.90600446764E+02  0.00000000000E+00 0. -1.
</event>
<event>
 8    1  0.6840084E-009  0.7969544E+02  0.7561462E-02  0.1329918E+00
         -1   -1    0    0    0  501 -0.00000000000E+00  0.00000000000E+00  0.54404321231E+02  0.54404321231E+02  0.00000000000E+00 0.  1.
          1   -1    0    0  501    0  0.00000000000E+00 -0.00000000000E+00 -0.32402777822E+03  0.32402777822E+03  0.00000000000E+00 0. -1.
         25    2    1    2    0    0 -0.28637081633E+02  0.45463758786E+02 -0.22661233484E+03  0.26435564927E+03  0.12507487035E+03 0.  0.
         23    2    1    2    0    0  0.28637081633E+02 -0.45463758786E+02 -0.43011122154E+02  0.11407645018E+03  0.90974963863E+02 0.  0.
          5    1    3    3  502    0 -0.36131748347E+02  0.37554291030E+02 -0.24055646211E+03  0.24617211840E+03  0.41800000000E+01 0.  1.
         -5    1    3    3    0  502  0.74946667140E+01  0.79094677562E+01  0.13944127277E+02  0.18183530869E+02  0.41800000000E+01 0.  1.
        -11    1    4    4    0    0 -0.22315223270E+02  0.59086549540E+01  0.92005856128E+01  0.24850194538E+02  0.00000000000E+00 0.  1.
         11    1    4    4    0    0  0.50952304903E+02 -0.51372413740E+02 -0.52211707767E+02  0.89226255645E+02  0.00000000000E+00 0. -1.
</event>
<event>
 8    1  0.6840084E-009  0.1717371E+03  0.7561462E-02  0.1176048E+00
         -2   -1    0    0    0  501 -0.00000000000E+00  0.00000000000E+00  0.49532162430E+02  0.49532162430E+02  0.00000000000E+00 0.  1.
          2   -1    0    0  501    0  0.00000000000E+00 -0.00000000000E+00 -0.92762253608E+03  0.92762253608E+03  0.00000000000E+00 0. -1.
         25    2    1    2    0    0 -0.60836841291E+02 -0.13074212740E+03 -0.71973530281E+03  0.74462156378E+03  0.12509093487E+03 0.  0.
         23    2    1    2    0    0  0.60836841291E+02  0.13074212740E+03 -0.15835507084E+03  0.23253313473E+03  0.90557744858E+02 0.  0.
          5    1    3    3  502    0  0.18864170898E+02 -0.10454151802E+03 -0.37285747384E+03  0.38771762164E+03  0.41800000000E+01 0.  1.
         -5    1    3    3    0  502 -0.79701012189E+02 -0.26200609383E+02 -0.34687782898E+03  0.35690394214E+03  0.41800000000E+01 0.  1.
        -11    1    4    4    0    0  0.45781047810E+02  0.38850010779E+02 -0.11518514592E+03  0.12989551769E+03  0.00000000000E+00 0. -1.
         11    1    4    4    0    0  0.15055793482E+02  0.91892116624E+02 -0.43169924919E+02  0.10263761704E+03  0.00000000000E+00 0.  1.
</event>
<event>
 8    1  0.6840084E-009  0.1085709E+03  0.7561462E-02  0.1263239E+00
          1   -1    0    0  501    0  0.00000000000E+00  0.00000000000E+00  0.26623752285E+02  0.26623752285E+02  0.00000000000E+00 0. -1.
         -1   -1    0    0    0  501 -0.00000000000E+00 -0.00000000000E+00 -0.89130029596E+03  0.89130029596E+03  0.00000000000E+00 0.  1.
         25    2    1    2    0    0 -0.17434273959E+02  0.82348257519E+02 -0.66773610184E+03  0.68454650941E+03  0.12508889807E+03 0.  0.
         23    2    1    2    0    0  0.17434273959E+02 -0.82348257519E+02 -0.19694044184E+03  0.23337753884E+03  0.92705709521E+02 0.  0.
          5    1    3    3  502    0  0.32379797597E+02 -0.38735975477E+01 -0.35012507990E+03  0.35166532389E+03  0.41800000000E+01 0.  1.
         -5    1    3    3    0  502 -0.49814071556E+02  0.86221855067E+02 -0.31761102193E+03  0.33288118551E+03  0.41800000000E+01 0.  1.
        -11    1    4    4    0    0  0.51638171267E+01 -0.10391729497E+02  0.91271268387E+01  0.14763383541E+02  0.00000000000E+00 0. -1.
         11    1    4    4    0    0  0.12270456832E+02 -0.71956528022E+02 -0.20606756868E+03  0.21861415530E+03  0.00000000000E+00 0.  1.
</event>
<event>
 8    1  0.6840084E-009  0.7171906E+02  0.7561462E-02  0.1354343E+00
         -1   -1    0    0    0  501 -0.00000000000E+00  0.00000000000E+00  0.67574807113E+03  0.67574807113E+03  0.00000000000E+00 0.  1.
          1   -1    0    0  501    0  0.00000000000E+00 -0.00000000000E+00 -0.30742627666E+02  0.30742627666E+02  0.00000000000E+00 0. -1.
         25    2    1    2    0    0  0.17865191294E+02  0.42284026977E+02  0.55232603452E+03  0.56817143815E+03  0.12509049016E+03 0.  0.
         23    2    1    2    0    0 -0.17865191294E+02 -0.42284026977E+02  0.92679408947E+02  0.13831926064E+03  0.91845745820E+02 0.  0.
          5    1    3    3  502    0 -0.32832781321E+02  0.30738552790E+02  0.45932028272E+03  0.46153596249E+03  0.41800000000E+01 0. -1.
         -5    1    3    3    0  502  0.50697972614E+02  0.11545474186E+02  0.93005751799E+02  0.10663547566E+03  0.41800000000E+01 0. -1.
        -11    1    4    4    0    0 -0.11579842241E+02 -0.32233395438E+02  0.11118593269E+03  0.11634172147E+03  0.00000000000E+00 0.  1.
         11    1    4    4    0    0 -0.62853490523E+01 -0.10050631539E+02 -0.18506523741E+02  0.21977539171E+02  0.00000000000E+00 0. -1.
</event>
<event>
 8    1  0.6840084E-009  0.1352572E+03  0.7561462E-02  0.1219857E+00
          2   -1    0    0  501    0  0.00000000000E+00  0.00000000000E+00  0.87219076659E+02  0.87219076659E+02  0.00000000000E+00 0.  1.
         -2   -1    0    0    0  501 -0.00000000000E+00 -0.00000000000E+00 -0.23985070508E+03  0.23985070508E+03  0.00000000000E+00 0. -1.
         25    2    1    2    0    0  0.25514556546E+02 -0.77069570403E+02 -0.13986454437E+03  0.20445074044E+03  0.12508918106E+03 0.  0.
         23    2    1    2    0    0 -0.25514556546E+02  0.77069570403E+02 -0.12767084052E+02  0.12261904129E+03  0.91003953622E+02 0.  0.
          5    1    3    3  502    0 -0.29345971829E+02  0.20857635157E+02 -0.26813720302E+02  0.45085197165E+02  0.41800000000E+01 0.  1.
         -5    1    3    3    0  502  0.54860528375E+02 -0.97927205561E+02 -0.11305082407E+03  0.15936554328E+03  0.41800000000E+01 0.  1.
        -11    1    4    4    0    0 -0.52247341815E+02  0.14992181068E+02 -0.63896666038E+01  0.54730047133E+02  0.00000000000E+00 0. -1.
         11    1    4    4    0    0  0.26732785269E+02  0.62077389335E+02 -0.63774174484E+01  0.67888994161E+02  0.00000000000E+00 0.  1.
</event>
<event>
 8    1  0.6840084E-009  0.1092323E+03  0.7561462E-02  0.1261998E+00
          2   -1    0    0  501    0  0.00000000000E+00  0.00000000000E+00  0.29244321206E+03  0.29244321206E+03  0.00000000000E+00 0. -1.
         -2   -1    0    0    0  501 -0.00000000000E+00 -0.00000000000E+00 -0.66750447183E+02  0.66750447183E+02  0.00000000000E+00 0.  1.
         25    2    1    2    0    0 -0.25798638432E+02 -0.64619458562E+02  0.14245407625E+03  0.20193249150E+03  0.12506927325E+03 0.  0.
         23    2    1    2    0    0  0.25798638432E+02  0.64619458562E+02  0.83238688624E+02  0.15726116774E+03  0.11384705278E+03 0.  0.
          5    1    3    3  502    0  0.12012407597E+02 -0.67217866049E+02  0.16553911972E+02  0.70384968949E+02  0.41800000000E+01 0.  1.
         -5    1    3    3    0  502 -0.37811046029E+02  0.25984074865E+01  0.12590016428E+03  0.13154752255E+03  0.41800000000E+01 0.  1.
        -11    1    4    4    0    0 -0.31955815944E+02  0.13123799757E+02  0.70949955058E+02  0.78913271479E+02  0.00000000000E+00 0. -1.
         11    1    4    4    0    0  0.57754454376E+02  0.51495658805E+02  0.12288733565E+02  0.78347896262E+02  0.00000000000E+00 0.  1.
</event>
<event>
 8    1  0.6840084E-009  0.1177106E+03  0.7561462E-02  0.1246922E+00
         -1   -1    0    0    0  501 -0.00000000000E+00  0.00000000000E+00  0.34550447829E+02  0.34550447829E+02  0.00000000000E+00 0.  1.
          1   -1    0    0  501    0  0.00000000000E+00 -0.00000000000E+00 -0.47001412675E+03  0.47001412675E+03  0.00000000000E+00 0. -1.
         25    2    1    2    0    0  0.10062060234E+02  0.43031039450E+02 -0.15050318468E+03  0.20062785665E+03  0.12508961929E+03 0.  0.
         23    2    1    2    0    0 -0.10062060234E+02 -0.43031039450E+02 -0.28496049424E+03  0.30393671793E+03  0.96031920801E+02 0.  0.
          5    1    3    3  502    0  0.16480299660E+02  0.86676746821E+02 -0.10205097676E+03  0.13496789609E+03  0.41800000000E+01 0.  1.
         -5    1    3    3    0  502 -0.64182394256E+01 -0.43645707371E+02 -0.48452207911E+02  0.65659960560E+02  0.41800000000E+01 0.  1.
        -11    1    4    4    0    0  0.39529031816E+02 -0.41154158824E+01 -0.14662422768E+03  0.15191492734E+03  0.00000000000E+00 0.  1.
         11    1    4    4    0    0 -0.49591092050E+02 -0.38915623568E+02 -0.13833626656E+03  0.15202179059E+03  0.00000000000E+00 0. -1.
</event>
<event>
 8    1  0.6840084E-009  0.8619791E+02  0.7561462E-02  0.1312329E+00
         -1   -1    0    0    0  501 -0.00000000000E+00  0.00000000000E+00  0.36304251306E+02  0.36304251306E+02  0.00000000000E+00 0.  1.
          1   -1    0    0  501    0  0.00000000000E+00 -0.00000000000E+00 -0.42162198777E+03  0.42162198777E+03  0.00000000000E+00 0. -1.
         25    2    1    2    0    0 -0.44258098561E+02  0.39072145715E+02 -0.31178507474E+03  0.34108945794E+03  0.12508666449E+03 0.  0.
         23    2    1    2    0    0  0.44258098561E+02 -0.39072145715E+02 -0.73532661725E+02  0.11683678113E+03  0.68980933783E+02 0.  0.
          5    1    3    3  502    0 -0.44740773478E+02  0.52014705963E+02 -0.31855689672E+03  0.32588837858E+03  0.41800000000E+01 0. -1.
         -5    1    3    3    0  502  0.48267491650E+00 -0.12942560247E+02  0.67718219811E+01  0.15201079362E+02  0.41800000000E+01 0. -1.
        -11    1    4    4    0    0  0.27732309745E+02 -0.58381897016E+02 -0.45778460339E+02  0.79203499506E+02  0.00000000000E+00 0.  1.
         11    1    4    4    0    0  0.16525788816E+02  0.19309751300E+02 -0.27754201386E+02  0.37633281625E+02  0.00000000000E+00 0. -1.
</event>
<event>
 8    1  0.6840084E-009  0.1706667E+03  0.7561462E-02  0.1177154E+00
          1   -1    0    0  501    0  0.00000000000E+00  0.00000000000E+00  0.37230445390E+02  0.37230445390E+02  0.00000000000E+00 0. -1.
         -1   -1    0    0    0  501 -0.00000000000E+00 -0.00000000000E+00 -0.89314769190E+03  0.89314769190E+03  0.00000000000E+00 0.  1.
         25    2    1    2    0    0  0.31121548148E+02 -0.13882152946E+03 -0.36645124415E+03  0.41253368296E+03  0.12513016198E+03 0.  0.
         23    2    1    2    0    0 -0.31121548148E+02  0.13882152946E+03 -0.48946600236E+03  0.51784445433E+03  0.91356136153E+02 0.  0.
          5    1    3    3  502    0  0.37422787776E+02  0.15145649882E+01 -0.14844046687E+03  0.15314961168E+03  0.41800000000E+01 0.  1.
         -5    1    3    3    0  502 -0.63012396278E+01 -0.14033609445E+03 -0.21801077727E+03  0.25938407128E+03  0.41800000000E+01 0.  1.
        -11    1    4    4    0    0 -0.37857868483E+01  0.13552051085E+03 -0.44804035287E+03  0.46810287207E+03  0.00000000000E+00 0.  1.
         11    1    4    4    0    0 -0.27335761300E+02  0.33010186091E+01 -0.41425649492E+02  0.49741582258E+02  0.00000000000E+00 0. -1.
</event>
<event>
 8    1  0.6840084E-009  0.1749949E+03  0.7561462E-02  0.1172737E+00
          3   -1    0    0  501    0  0.00000000000E+00  0.00000000000E+00  0.14760413597E+03  0.14760413597E+03  0.00000000000E+00 0. -1.
         -3   -1    0    0    0  501 -0.00000000000E+00 -0.00000000000E+00 -0.29309074736E+03  0.29309074736E+03  0.00000000000E+00 0.  1.
         25    2    1    2    0    0 -0.79614796753E+02  0.14903870031E+03 -0.13065946784E+03  0.24752808925E+03  0.12508880196E+03 0.  0.
         23    2    1    2    0    0  0.79614796753E+02 -0.14903870031E+03 -0.14827143547E+02  0.19316679408E+03  0.92425732872E+02 0.  0.
          5    1    3    3  502    0 -0.32977138432E+02  0.37044479523E+02 -0.11477777503E+03  0.12510473678E+03  0.41800000000E+01 0.  1.
         -5    1    3    3    0  502 -0.46637658321E+02  0.11199422079E+03 -0.15881692810E+02  0.12242335247E+03  0.41800000000E+01 0.  1.
        -11    1    4    4    0    0  0.48170519501E+02 -0.13689206682E+03  0.17856635319E+02  0.14621455582E+03  0.00000000000E+00 0. -1.
         11    1    4    4    0    0  0.31444277251E+02 -0.12146633490E+02 -0.32683778866E+02  0.46952238264E+02  0.00000000000E+00 0.  1.
</event>
<event>
 8    1  0.6840084E-009  0.2293156E+03  0.7561462E-02  0.1127122E+00
          1   -1    0    0  501    0  0.00000000000E+00  0.00000000000E+00  0.39336422410E+03  0.39336422410E+03  0.00000000000E+00 0. -1.
         -1   -1    0    0    0  501 -0.00000000000E+00 -0.00000000000E+00 -0.17100138437E+03  0.17100138437E+03  0.00000000000E+00 0.  1.
         25    2    1    2    0    0  0.21247906741E+03  0.54095251062E+02  0.20689664381E+03  0.32638853316E+03  0.12509837363E+03 0.  0.
         23    2    1    2    0    0 -0.21247906741E+03 -0.54095251062E+02  0.15466195915E+02  0.23797707532E+03  0.91215321557E+02 0.  0.
          5    1    3    3  502    0  0.51880150081E+02  0.78614603522E+00  0.13084899428E+03  0.14082293741E+03  0.41800000000E+01 0.  1.
         -5    1    3    3    0  502  0.16059891733E+03  0.53309105027E+02  0.76047649529E+02  0.18556559574E+03  0.41800000000E+01 0.  1.
        -11    1    4    4    0    0 -0.13385640753E+03  0.12276309250E+02  0.13142205916E+02  0.13505910996E+03  0.00000000000E+00 0.  1.
         11    1    4    4    0    0 -0.78622659872E+02 -0.66371560312E+02  0.23239899988E+01  0.10291796536E+03  0.00000000000E+00 0. -1.
</event>
<event>
 8    1  0.6840084E-009  0.7309855E+02  0.7561462E-02  0.1349862E+00
          2   -1    0    0  501    0  0.00000000000E+00  0.00000000000E+00  0.10189054355E+03  0.10189054355E+03  0.00000000000E+00 0.  1.
         -2   -1    0    0    0  501 -0.00000000000E+00 -0.00000000000E+00 -0.12382596138E+03  0.12382596138E+03  0.00000000000E+00 0. -1.
         25    2    1    2    0    0  0.92646394098E+01 -0.10779686567E+02 -0.39430318713E+02  0.13192202847E+03  0.12508651556E+03 0.  0.
         23    2    1    2    0    0 -0.92646394098E+01  0.10779686567E+02  0.17494900879E+02  0.93794476459E+02  0.91045576892E+02 0.  0.
          5    1    3    3  502    0 -0.39132813249E+02 -0.11145012526E+02  0.27450391016E+02  0.49260377018E+02  0.41800000000E+01 0. -1.
         -5    1    3    3    0  502  0.48397452659E+02  0.36532595965E+00 -0.66880709729E+02  0.82661651452E+02  0.41800000000E+01 0. -1.
        -11    1    4    4    0    0 -0.32050504223E+02  0.14206019334E+01 -0.27658743098E+02  0.42358694509E+02  0.00000000000E+00 0. -1.
         11    1    4    4    0    0  0.22785864813E+02  0.93590846333E+01  0.45153643976E+02  0.51435781950E+02  0.00000000000E+00 0.  1.
</event>
<event>
 8    1  0.6840084E-009  0.1181010E+03  0.7561462E-02  0.1246263E+00
         -1   -1    0    0    0  501 -0.00000000000E+00  0.00000000000E+00  0.22078576272E+03  0.22078576272E+03  0.00000000000E+00 0.  1.
          1   -1    0    0  501    0  0.00000000000E+00 -0.00000000000E+00 -0.10167513210E+03  0.10167513210E+03  0.00000000000E+00 0. -1.
         25    2    1    2    0    0  0.53211365513E+02 -0.86991751296E+02  0.79233810716E+02  0.17979213883E+03  0.12509277442E+03 0.  0.
         23    2    1    2    0    0 -0.53211365513E+02  0.86991751296E+02  0.39876819899E+02  0.14266875598E+03  0.91461461584E+02 0.  0.
          5    1    3    3  502    0  0.76034796368E+02 -0.70948637418E+02  0.10033275478E+03  0.14456532604E+03  0.41800000000E+01 0. -1.
         -5    1    3    3    0  502 -0.22823430854E+02 -0.16043113879E+02 -0.21098944068E+02  0.35226812794E+02  0.41800000000E+01 0. -1.
        -11    1    4    4    0    0 -0.36612911944E+02  0.40745148744E+02  0.67001336151E+02  0.86543928229E+02  0.00000000000E+00 0.  1.
         11    1    4    4    0    0 -0.16598453570E+02  0.46246602552E+02 -0.27124516252E+02  0.56124827754E+02  0.00000000000E+00 0. -1.
</event>
<event>
 8    1  0.6840084E-009  0.8373232E+02  0.7561462E-02  0.1318781E+00
          1   -1    0    0  501    0  0.00000000000E+00  0.00000000000E+00  0.94940743517E+02  0.94940743517E+02  0.00000000000E+00 0. -1.
         -1   -1    0    0    0  501 -0.00000000000E+00 -0.00000000000E+00 -0.15167455786E+03  0.15167455786E+03  0.00000000000E+00 0.  1.
         25    2    1    2    0    0 -0.31231377096E+02  0.25953274893E+02 -0.62538497897E+02  0.14562766178E+03  0.12508949102E+03 0.  0.
         23    2    1    2    0    0  0.31231377096E+02 -0.25953274893E+02  0.58046835520E+01  0.10098763960E+03  0.92281296087E+02 0.  0.
          5    1    3    3  502    0 -0.20921654593E+02  0.45801226587E+02  0.24151026923E+02  0.56001897193E+02  0.41800000000E+01 0. -1.
         -5    1    3    3    0  502 -0.10309722503E+02 -0.19847951694E+02 -0.86689524820E+02  0.89625764588E+02  0.41800000000E+01 0. -1.
        -11    1    4    4    0    0  0.87138939851E+01  0.31391024357E+02 -0.15131376735E+02  0.35920564034E+02  0.00000000000E+00 0.  1.
         11    1    4    4    0    0  0.22517483111E+02 -0.57344299250E+02  0.20936060287E+02  0.65067075564E+02  0.00000000000E+00 0. -1.
</event>
<event>
 8    1  0.6840084E-009  0.2634865E+03  0.7561462E-02  0.1105066E+00
          1   -1    0    0  501    0  0.00000000000E+00  0.00000000000E+00  0.87850896113E+02  0.87850896113E+02  0.00000000000E+00 0. -1.
         -1   -1    0    0    0  501 -0.00000000000E+00 -0.00000000000E+00 -0.91923946957E+03  0.91923946957E+03  0.00000000000E+00 0.  1.
         25    2    1    2    0    0 -0.24400426271E+03 -0.35592154820E+02 -0.25941888026E+03  0.37914435654E+03  0.12508959172E+03 0.  0.
         23    2    1    2    0    0  0.24400426271E+03  0.35592154820E+02 -0.57196969319E+03  0.62794600913E+03  0.79762013193E+02 0.  0.
          5    1    3    3  502    0 -0.23700582420E+03 -0.64313682253E+02 -0.24077765872E+03  0.34394674554E+03  0.41800000000E+01 0.  1.
         -5    1    3    3    0  502 -0.69984385108E+01  0.28721527433E+02 -0.18641221540E+02  0.35197611001E+02  0.41800000000E+01 0.  1.
        -11    1    4    4    0    0  0.50552310647E+02  0.28256879005E+02 -0.20525524918E+03  0.21326908974E+03  0.00000000000E+00 0.  1.
         11    1    4    4    0    0  0.19345195207E+03  0.73352758155E+01 -0.36671444401E+03  0.41467691939E+03  0.00000000000E+00 0. -1.
</event>
<event>
 8    1  0.6840084E-009  0.1231901E+03  0.7561462E-02  0.1237925E+00
          2   -1    0    0  501    0  0.00000000000E+00  0.00000000000E+00  0.13030757605E+04  0.13030757605E+04  0.00000000000E+00 0.  1.
         -2   -1    0    0    0  501 -0.00000000000E+00 -0.00000000000E+00 -0.15449109920E+02  0.15449109920E+02  0.00000000000E+00 0. -1.
         25    2    1    2    0    0 -0.12539708255E+02 -0.69783724062E+02  0.97889170255E+03  0.98939478968E+03  0.12508425993E+03 0.  0.
         23    2    1    2    0    0  0.12539708255E+02  0.69783724062E+02  0.30873494801E+03  0.32913008073E+03  0.89343883336E+02 0.  0.
          5    1    3    3  502    0  0.43425378254E+02 -0.65302366393E+02  0.73014506068E+03  0.73435648330E+03  0.41800000000E+01 0. -1.
         -5    1    3    3    0  502 -0.55965086509E+02 -0.44813576699E+01  0.24874664188E+03  0.25503830638E+03  0.41800000000E+01 0. -1.
        -11    1    4    4    0    0 -0.37213506063E+02  0.27903842161E+02  0.95961051180E+02  0.10663954606E+03  0.00000000000E+00 0.  1.
         11    1    4    4    0    0  0.49753214318E+02  0.41879881902E+02  0.21277389683E+03  0.22249053467E+03  0.00000000000E+00 0. -1.
</event>
<event>
 8    1  0.6840084E-009  0.1239991E+03  0.7561462E-02  0.1236642E+00
         -2   -1    0    0    0  501 -0.00000000000E+00  0.00000000000E+00  0.57884254578E+03  0.57884254578E+03  0.00000000000E+00 0.  1.
          2   -1    0    0  501    0  0.00000000000E+00 -0.00000000000E+00 -0.28130777868E+02  0.28130777868E+02  0.00000000000E+00 0. -1.
         25    2    1    2    0    0  0.52515512489E+02 -0.34395102468E+02  0.29835411521E+03  0.32955019577E+03  0.12508897372E+03 0.  0.
         23    2    1    2    0    0 -0.52515512489E+02  0.34395102468E+02  0.25235765270E+03  0.27742312787E+03  0.96634905065E+02 0.  0.
          5    1    3    3  502    0  0.15140948187E+02  0.43522384789E+02  0.15833564849E+03  0.16495786211E+03  0.41800000000E+01 0. -1.
         -5    1    3    3    0  502  0.37374564303E+02 -0.77917487257E+02  0.14001846672E+03  0.16459233366E+03  0.41800000000E+01 0. -1.
        -11    1    4    4    0    0 -0.80662642907E+02  0.32612838956E+02  0.18802433667E+03  0.20717917464E+03  0.00000000000E+00 0.  1.
         11    1    4    4    0    0  0.28147130418E+02  0.17822635121E+01  0.64333316032E+02  0.70243953232E+02  0.00000000000E+00 0. -1.
</event>
<event>
 8    1  0.6840084E-009  0.1090249E+03  0.7561462E-02  0.1262386E+00
         -2   -1    0    0    0  501 -0.00000000000E+00  0.00000000000E+00  0.32607650914E+02  0.32607650914E+02  0.00000000000E+00 0.  1.
          2   -1    0    0  501    0  0.00000000000E+00 -0.00000000000E+00 -0.65307973971E+03  0.65307973971E+03  0.00000000000E+00 0. -1.
         25    2    1    2    0    0  0.70496241148E+02  0.31874484927E+02 -0.48134520552E+03  0.50331555061E+03  0.12509050246E+03 0.  0.
         23    2    1    2    0    0 -0.70496241148E+02 -0.31874484927E+02 -0.13912688328E+03  0.18237184001E+03  0.88980310035E+02 0.  0.
          5    1    3    3  502    0  0.12118629151E+02 -0.40951113599E+02 -0.75378123925E+02  0.86736317907E+02  0.41800000000E+01 0. -1.
         -5    1    3    3    0  502  0.58377611997E+02  0.72825598526E+02 -0.40596708160E+03  0.41657923271E+03  0.41800000000E+01 0. -1.
        -11    1    4    4    0    0 -0.27815348234E+02 -0.26977915181E+02 -0.21420916650E+01  0.38808376178E+02  0.00000000000E+00 0.  1.
         11    1    4    4    0    0 -0.42680892915E+02 -0.48965697464E+01 -0.13698479161E+03  0.14356346384E+03  0.00000000000E+00 0. -1.
</event>
<event>
 8    1  0.6840084E-009  0.8782668E+02  0.7561462E-02  0.1308202E+00
         -1   -1    0    0    0  501 -0.00000000000E+00  0.00000000000E+00  0.33080577659E+03  0.33080577659E+03  0.00000000000E+00 0.  1.
          1   -1    0    0  501    0  0.00000000000E+00 -0.00000000000E+00 -0.44778507914E+02  0.44778507914E+02  0.00000000000E+00 0. -1.
         25    2    1    2    0    0 -0.25046896784E+02  0.35244941829E+01  0.80968101102E+02  0.15114321741E+03  0.12509464288E+03 0.  0.
         23    2    1    2    0    0  0.25046896784E+02 -0.35244941829E+01  0.20505916758E+03  0.22444106709E+03  0.87662770274E+02 0.  0.
          5    1    3    3  502    0  0.26904505539E+02  0.28817962750E+02 -0.12157780363E+02  0.41468197679E+02  0.41800000000E+01 0.  1.
         -5    1    3    3    0  502 -0.51951402323E+02 -0.25293468567E+02  0.93125881465E+02  0.10967501974E+03  0.41800000000E+01 0.  1.
        -11    1    4    4    0    0  0.24620712368E+02 -0.37083849273E+02  0.55412377226E+02  0.71076880237E+02  0.00000000000E+00 0. -1.
         11    1    4    4    0    0  0.42618441588E+00  0.33559355090E+02  0.14964679035E+03  0.15336418685E+03  0.00000000000E+00 0.  1.
</event>
<event>
 8    1  0.6840084E-009  0.1089487E+03  0.7561462E-02  0.1262529E+00
          1   -1    0    0  501    0  0.00000000000E+00  0.00000000000E+00  0.83564002116E+03  0.83564002116E+03  0.00000000000E+00 0. -1.
         -1   -1    0    0    0  501 -0.00000000000E+00 -0.00000000000E+00 -0.25550062732E+02  0.25550062732E+02  0.00000000000E+00 0.  1.
         25    2    1    2    0    0 -0.58852354439E+02  0.75807383738E+02  0.44980445822E+03  0.47663749427E+03  0.12509552851E+03 0.  0.
         23    2    1    2    0    0  0.58852354439E+02 -0.75807383738E+02  0.36028550021E+03  0.38455258963E+03  0.94152501167E+02 0.  0.
          5    1    3    3  502    0  0.20919183221E+01  0.40141640297E+02  0.36028010590E+03  0.36253959027E+03  0.41800000000E+01 0.  1.
         -5    1    3    3    0  502 -0.60944272761E+02  0.35665743441E+02  0.89524352327E+02  0.11409790400E+03  0.41800000000E+01 0.  1.
        -11    1    4    4    0    0  0.45601325979E+02 -0.20718539109E+02  0.56400338941E+02  0.75430345528E+02  0.00000000000E+00 0.  1.
         11    1    4    4    0    0  0.13251028460E+02 -0.55088844628E+02  0.30388516127E+03  0.30912224410E+03  0.00000000000E+00 0. -1.
</event>
<event>
 8    1  0.6840084E-009  0.1125018E+03  0.7561462E-02  0.1256006E+00
          2   -1    0    0  501    0  0.00000000000E+00  0.00000000000E+00  0.25295952604E+02  0.25295952604E+02  0.00000000000E+00 0. -1.
         -2   -1    0    0    0  501 -0.00000000000E+00 -0.00000000000E+00 -0.76961230941E+03  0.76961230941E+03  0.00000000000E+00 0.  1.
         25    2    1    2    0    0  0.23727360399E+00  0.74329095523E+02 -0.56665242993E+03  0.58503625012E+03  0.12509023491E+03 0.  0.
         23    2    1    2    0    0 -0.23727360399E+00 -0.74329095523E+02 -0.17766392687E+03  0.20987201189E+03  0.83408151420E+02 0.  0.
          5    1    3    3  502    0 -0.31577174915E+02 -0.11682485913E+02 -0.50858098351E+02  0.61136053361E+02  0.41800000000E+01 0.  1.
         -5    1    3    3    0  502  0.31814448519E+02  0.86011581436E+02 -0.51579433158E+03  0.52390019676E+03  0.41800000000E+01 0.  1.
        -11    1    4    4    0    0 -0.15812742666E+02 -0.80854922718E+02 -0.17410479219E+03  0.19261370674E+03  0.00000000000E+00 0.  1.
         11    1    4    4    0    0  0.15575469062E+02  0.65258271954E+01 -0.35591346791E+01  0.17258305153E+02  0.00000000000E+00 0. -1.
</event>
<event>
 8    1  0.6840084E-009  0.1048488E+03  0.7561462E-02  0.1270418E+00
         -1   -1    0    0    0  501 -0.00000000000E+00  0.00000000000E+00  0.29854039915E+02  0.29854039915E+02  0.00000000000E+00 0.  1.
          1   -1    0    0  501    0  0.00000000000E+00 -0.00000000000E+00 -0.47327267830E+03  0.47327267830E+03  0.00000000000E+00 0. -1.
         25    2    1    2    0    0  0.11202738957E+02  0.10949286347E+01 -0.35155829322E+03  0.37332024492E+03  0.12509225197E+03 0.  0.
         23    2    1    2    0    0 -0.11202738957E+02 -0.10949286347E+01 -0.91860345163E+02  0.12980647330E+03  0.91020312393E+02 0.  0.
          5    1    3    3  502    0 -0.54353920846E+02  0.67065890796E+01 -0.11034330727E+03  0.12325763631E+03  0.41800000000E+01 0. -1.
         -5    1    3    3    0  502  0.65556659802E+02 -0.56116604450E+01 -0.24121498595E+03  0.25006260861E+03  0.41800000000E+01 0. -1.
        -11    1    4    4    0    0 -0.38026442973E+01 -0.44575507462E+02 -0.62346905030E+02  0.76737034970E+02  0.00000000000E+00 0.  1.
         11    1    4    4    0    0 -0.74000946594E+01  0.43480578827E+02 -0.29513440132E+02  0.53069438329E+02  0.00000000000E+00 0. -1.
</event>
<event>
 8    1  0.6840084E-009  0.6922343E+02  0.7561462E-02  0.1362754E+00
          2   -1    0    0  501    0  0.00000000000E+00  0.00000000000E+00  0.12261096575E+04  0.12261096575E+04  0.00000000000E+00 0. -1.
         -2   -1    0    0    0  501 -0.00000000000E+00 -0.00000000000E+00 -0.12497153661E+02  0.12497153661E+02  0.00000000000E+00 0.  1.
         25    2    1    2    0    0  0.28501617975E+02 -0.32990042011E+02  0.87814029236E+03  0.88807837403E+03  0.12510851392E+03 0.  0.
         23    2    1    2    0    0 -0.28501617975E+02  0.32990042011E+02  0.33547221152E+03  0.35052843717E+03  0.91803569999E+02 0.  0.
          5    1    3    3  502    0  0.23022054562E+02 -0.52513854600E+01  0.84037207530E+03  0.84071415439E+03  0.41800000000E+01 0. -1.
         -5    1    3    3    0  502  0.54795634132E+01 -0.27738656551E+02  0.37768217064E+02  0.47364219645E+02  0.41800000000E+01 0. -1.
        -11    1    4    4    0    0 -0.46458758256E+02  0.44680240919E+02  0.31264466025E+03  0.31922002401E+03  0.00000000000E+00 0. -1.
         11    1    4    4    0    0  0.17957140281E+02 -0.11690198908E+02  0.22827551269E+02  0.31308413158E+02  0.00000000000E+00 0.  1.
</event>
<event>
 8    1  0.6840084E-009  0.9267061E+02  0.7561462E-02  0.1296510E+00
         -4   -1    0    0    0  501 -0.00000000000E+00  0.00000000000E+00  0.15300525337E+03  0.15300525337E+03  0.00000000000E+00 0. -1.
          4   -1    0    0  501    0  0.00000000000E+00 -0.00000000000E+00 -0.14147163099E+03  0.14147163099E+03  0.00000000000E+00 0.  1.
         25    2    1    2    0    0 -0.75169492342E+02  0.43046619995E+02  0.56045232712E+02  0.16214369409E+03  0.12508415308E+03 0.  0.
         23    2    1    2    0    0  0.75169492342E+02 -0.43046619995E+02 -0.44511610324E+02  0.13233319027E+03  0.89595344310E+02 0.  0.
          5    1    3    3  502    0  0.45770410280E+01  0.97384709931E+01 -0.34813597062E+02  0.36677596190E+02  0.41800000000E+01 0.  1.
         -5    1    3    3    0  502 -0.79746533370E+02  0.33308149002E+02  0.90858829774E+02  0.12546609790E+03  0.41800000000E+01 0.  1.
        -11    1    4    4    0    0  0.11663616956E+02 -0.11437766642E+02 -0.57885204111E+02  0.60146149679E+02  0.00000000000E+00 0.  1.
         11    1    4    4    0    0  0.63505875386E+02 -0.31608853353E+02  0.13373593787E+02  0.72187040593E+02  0.00000000000E+00 0. -1.
</event>
<event>
 8    1  0.6840084E-009  0.1099826E+03  0.7561462E-02  0.1260602E+00
          1   -1    0    0  501    0  0.00000000000E+00  0.00000000000E+00  0.11239639816E+04  0.11239639816E+04  0.00000000000E+00 0. -1.
         -1   -1    0    0    0  501 -0.00000000000E+00 -0.00000000000E+00 -0.45832479762E+02  0.45832479762E+02  0.00000000000E+00 0.  1.
         25    2    1    2    0    0  0.82375202824E+02  0.97286002402E+01  0.10239924727E+04  0.10349342524E+04  0.12509197770E+03 0.  0.
         23    2    1    2    0    0 -0.82375202824E+02 -0.97286002402E+01  0.54139029063E+02  0.13486220891E+03  0.91523009252E+02 0.  0.
          5    1    3    3  502    0 -0.11183487575E+02 -0.92855122653E+01  0.14579213247E+02  0.21007546055E+02  0.41800000000E+01 0.  1.
         -5    1    3    3    0  502  0.93558690398E+02  0.19014112505E+02  0.10094132595E+04  0.10139267063E+04  0.41800000000E+01 0.  1.
        -11    1    4    4    0    0 -0.21578048971E+02  0.29776370221E+02 -0.99472415074E+01  0.38094514494E+02  0.00000000000E+00 0.  1.
         11    1    4    4    0    0 -0.60797153853E+02 -0.39504970461E+02  0.64086270571E+02  0.96767694421E+02  0.00000000000E+00 0. -1.
</event>
<event>
 8    1  0.6840084E-009  0.1519918E+03  0.7561462E-02  0.1198047E+00
          1   -1    0    0  501    0  0.00000000000E+00  0.00000000000E+00  0.40989096828E+03  0.40989096828E+03  0.00000000000E+00 0. -1.
         -1   -1    0    0    0  501 -0.00000000000E+00 -0.00000000000E+00 -0.59757181445E+02  0.59757181445E+02  0.00000000000E+00 0.  1.
         25    2    1    2    0    0  0.94144491672E+02 -0.53181381821E+02  0.23378220898E+03  0.28634414086E+03  0.12508957224E+03 0.  0.
         23    2    1    2    0    0 -0.94144491672E+02  0.53181381821E+02  0.11635157786E+03  0.18330400887E+03  0.91494400445E+02 0.  0.
          5    1    3    3  502    0  0.12363491009E+03 -0.42828974692E+02  0.20725667587E+03  0.24513815321E+03  0.41800000000E+01 0. -1.
         -5    1    3    3    0  502 -0.29490418413E+02 -0.10352407130E+02  0.26525533105E+02  0.41205987648E+02  0.41800000000E+01 0. -1.
        -11    1    4    4    0    0  0.17904091042E+02  0.14380448920E+02  0.21500047431E+02  0.31458000997E+02  0.00000000000E+00 0.  1.
         11    1    4    4    0    0 -0.11204858271E+03  0.38800932901E+02  0.94851530427E+02  0.15184600787E+03  0.00000000000E+00 0. -1.
</event>
<event>
 8    1  0.6840084E-009  0.1870144E+03  0.7561462E-02  0.1161182E+00
         -1   -1    0    0    0  501 -0.00000000000E+00  0.00000000000E+00  0.42755661511E+03  0.42755661511E+03  0.00000000000E+00 0. -1.
          1   -1    0    0  501    0  0.00000000000E+00 -0.00000000000E+00 -0.89241067962E+02  0.89241067962E+02  0.00000000000E+00 0.  1.
         25    2    1    2    0    0 -0.43111438451E+02 -0.15775161235E+03  0.17688258128E+03  0.27144033031E+03  0.12509291760E+03 0.  0.
         23    2    1    2    0    0  0.43111438451E+02  0.15775161235E+03  0.16143296587E+03  0.24535735276E+03  0.85996864839E+02 0.  0.
          5    1    3    3  502    0  0.31393514539E+02 -0.39884903575E+02  0.66700222704E+01  0.51364578120E+02  0.41800000000E+01 0. -1.
         -5    1    3    3    0  502 -0.74504952991E+02 -0.11786670877E+03  0.17021255901E+03  0.22007575219E+03  0.41800000000E+01 0. -1.
        -11    1    4    4    0    0  0.39459846491E+02  0.17280437956E+02  0.26694542208E+02  0.50678314935E+02  0.00000000000E+00 0.  1.
         11    1    4    4    0    0  0.36515919609E+01  0.14047117439E+03  0.13473842366E+03  0.19467903783E+03  0.00000000000E+00 0. -1.
</event>
<event>
 8    1  0.6840084E-009  0.9883400E+02  0.7561462E-02  0.1282767E+00
         -1   -1    0    0    0  501 -0.00000000000E+00  0.00000000000E+00  0.38082477824E+03  0.38082477824E+03  0.00000000000E+00 0.  1.
          1   -1    0    0  501    0  0.00000000000E+00 -0.00000000000E+00 -0.36947344032E+02  0.36947344032E+02  0.00000000000E+00 0. -1.
         25    2    1    2    0    0  0.37658304719E+02  0.28340850675E+02  0.16588329442E+03  0.21304128054E+03  0.12509183872E+03 0.  0.
         23    2    1    2    0    0 -0.37658304719E+02 -0.28340850675E+02  0.17799413978E+03  0.20473084173E+03  0.89506714987E+02 0.  0.
          5    1    3    3  502    0  0.60576151072E+02 -0.30597308115E+01  0.16284594606E+03  0.17382493083E+03  0.41800000000E+01 0. -1.
         -5    1    3    3    0  502 -0.22917846353E+02  0.31400581486E+02  0.30373483647E+01  0.39216349706E+02  0.41800000000E+01 0. -1.
        -11    1    4    4    0    0  0.26154796743E+02 -0.20992468333E+02  0.87915130215E+02  0.94094777964E+02  0.00000000000E+00 0. -1.
         11    1    4    4    0    0 -0.63813101462E+02 -0.73483823420E+01  0.90079009568E+02  0.11063606377E+03  0.00000000000E+00 0.  1.
</event>
<event>
 8    1  0.6840084E-009  0.1626019E+03  0.7561462E-02  0.1185790E+00
         -1   -1    0    0    0  501 -0.00000000000E+00  0.00000000000E+00  0.54998854648E+02  0.54998854648E+02  0.00000000000E+00 0.  1.
          1   -1    0    0  501    0  0.00000000000E+00 -0.00000000000E+00 -0.62111896860E+03  0.62111896860E+03  0.00000000000E+00 0. -1.
         25    2    1    2    0    0 -0.14156591155E+03 -0.45099641855E+02 -0.31105768526E+03  0.36671243287E+03  0.12508493057E+03 0.  0.
         23    2    1    2    0    0  0.14156591155E+03  0.45099641855E+02 -0.25506242869E+03  0.30940539037E+03  0.92736012714E+02 0.  0.
          5    1    3    3  502    0 -0.12239181893E+03 -0.20317389301E+02 -0.31125916959E+03  0.33510042779E+03  0.41800000000E+01 0. -1.
         -5    1    3    3    0  502 -0.19174092620E+02 -0.24782252555E+02  0.20148433291E+00  0.31612005084E+02  0.41800000000E+01 0. -1.
        -11    1    4    4    0    0  0.27510381829E+02 -0.23652680899E+02 -0.26694173911E+02  0.45042750170E+02  0.00000000000E+00 0. -1.
         11    1    4    4    0    0  0.11405552972E+03  0.68752322755E+02 -0.22836825478E+03  0.26436264020E+03  0.00000000000E+00 0.  1.
</event>
<event>
 8    1  0.6840084E-009  0.1281743E+03  0.7561462E-02  0.1230190E+00
          2   -1    0    0  501    0  0.00000000000E+00  0.00000000000E+00  0.50768463031E+03  0.50768463031E+03  0.00000000000E+00 0. -1.
         -2   -1    0    0    0  501 -0.00000000000E+00 -0.00000000000E+00 -0.62979218304E+02  0.62979218304E+02  0.00000000000E+00 0.  1.
         25    2    1    2    0    0  0.12917976432E+02  0.81273009717E+02  0.41898101291E+03  0.44493246399E+03  0.12509049567E+03 0.  0.
         23    2    1    2    0    0 -0.12917976432E+02 -0.81273009717E+02  0.25724399096E+02  0.12573138463E+03  0.91512076512E+02 0.  0.
          5    1    3    3  502    0  0.50530020543E+02  0.92609556018E+02  0.24972069406E+03  0.27112305376E+03  0.41800000000E+01 0.  1.
         -5    1    3    3    0  502 -0.37612044110E+02 -0.11336546301E+02  0.16926031886E+03  0.17380941023E+03  0.41800000000E+01 0.  1.
        -11    1    4    4    0    0  0.27993754649E+02 -0.57482966204E+02 -0.12193030178E+02  0.65089259389E+02  0.00000000000E+00 0.  1.
         11    1    4    4    0    0 -0.40911731081E+02 -0.23790043513E+02  0.37917429274E+02  0.60642125236E+02  0.00000000000E+00 0. -1.
</event>
<event>
 8    1  0.6840084E-009  0.1381711E+03  0.7561462E-02  0.1215811E+00
          1   -1    0    0  501    0  0.00000000000E+00  0.00000000000E+00  0.10321067861E+04  0.10321067861E+04  0.00000000000E+00 0. -1.
         -1   -1    0    0    0  501 -0.00000000000E+00 -0.00000000000E+00 -0.21186717295E+02  0.21186717295E+02  0.00000000000E+00 0.  1.
         25    2    1    2    0    0 -0.98419685818E+02  0.34137271367E+01  0.59730137957E+03  0.61815401825E+03  0.12508942462E+03 0.  0.
         23    2    1    2    0    0  0.98419685818E+02 -0.34137271367E+01  0.41361868925E+03  0.43513948516E+03  0.92562753624E+02 0.  0.
          5    1    3    3  502    0  0.54510642287E+01 -0.41260335463E+02  0.23166429682E+03  0.23541017014E+03  0.41800000000E+01 0. -1.
         -5    1    3    3    0  502 -0.10387075005E+03  0.44674062600E+02  0.36563708275E+03  0.38274384811E+03  0.41800000000E+01 0. -1.
        -11    1    4    4    0    0  0.53420979457E+02  0.33592710324E+02  0.11779838179E+03  0.13363655932E+03  0.00000000000E+00 0.  1.
         11    1    4    4    0    0  0.44998706361E+02 -0.37006437460E+02  0.29582030746E+03  0.30150292584E+03  0.00000000000E+00 0. -1.
</event>
<event>
 8    1  0.6840084E-009  0.1376579E+03  0.7561462E-02  0.1216516E+00
         -1   -1    0    0    0  501 -0.00000000000E+00  0.00000000000E+00  0.15270675825E+03  0.15270675825E+03  0.00000000000E+00 0.  1.
          1   -1    0    0  501    0  0.00000000000E+00 -0.00000000000E+00 -0.20818893307E+03  0.20818893307E+03  0.00000000000E+00 0. -1.
         25    2    1    2    0    0  0.72084335230E+02 -0.82896446087E+02 -0.11736257869E+03  0.20368769842E+03  0.12508689560E+03 0.  0.
         23    2    1    2    0    0 -0.72084335230E+02  0.82896446087E+02  0.61880403865E+02  0.15720799289E+03  0.93899928048E+02 0.  0.
          5    1    3    3  502    0  0.47961927896E+02  0.25014985765E+02 -0.25864153665E+02  0.60104266780E+02  0.41800000000E+01 0.  1.
         -5    1    3    3    0  502  0.24122407333E+02 -0.10791143185E+03 -0.91498425021E+02  0.14358343164E+03  0.41800000000E+01 0.  1.
        -11    1    4    4    0    0 -0.17094618705E+02  0.13018927600E+02  0.64769948118E+02  0.68241223932E+02  0.00000000000E+00 0.  1.
         11    1    4    4    0    0 -0.54989716524E+02  0.69877518487E+02 -0.28895442523E+01  0.88966768961E+02  0.00000000000E+00 0. -1.
</event>
<event>
 8    1  0.6840084E-009  0.1273419E+03  0.7561462E-02  0.1231454E+00
         -4   -1    0    0    0  501 -0.00000000000E+00  0.00000000000E+00  0.24901417186E+02  0.24901417186E+02  0.00000000000E+00 0.  1.
          4   -1    0    0  501    0  0.00000000000E+00 -0.00000000000E+00 -0.92324321884E+03  0.92324321884E+03  0.00000000000E+00 0. -1.
         25    2    1    2    0    0  0.10417268214E+03 -0.11951318162E+02 -0.44636890799E+03  0.47527685611E+03  0.12509239076E+03 0.  0.
         23    2    1    2    0    0 -0.10417268214E+03  0.11951318162E+02 -0.45197289367E+03  0.47286777992E+03  0.91266965333E+02 0.  0.
          5    1    3    3  502    0  0.72480757469E+02  0.17121986657E+02 -0.92731435298E+02  0.11900930267E+03  0.41800000000E+01 0. -1.
         -5    1    3    3    0  502  0.31691924675E+02 -0.29073304818E+02 -0.35363747269E+03  0.35626755344E+03  0.41800000000E+01 0. -1.
        -11    1    4    4    0    0 -0.66336529859E+02  0.50116205714E+02 -0.23273227060E+03  0.24713655951E+03  0.00000000000E+00 0. -1.
         11    1    4    4    0    0 -0.37836152285E+02 -0.38164887553E+02 -0.21924062307E+03  0.22573122041E+03  0.00000000000E+00 0.  1.
</event>
<event>
 8    1  0.6840084E-009  0.1002952E+03  0.7561462E-02  0.1279677E+00
         -1   -1    0    0    0  501 -0.00000000000E+00  0.00000000000E+00  0.16788398661E+02  0.16788398661E+02  0.00000000000E+00 0.  1.
          1   -1    0    0  501    0  0.00000000000E+00 -0.00000000000E+00 -0.86645676036E+03  0.86645676036E+03  0.00000000000E+00 0. -1.
         25    2    1    2    0    0  0.21895846114E+01 -0.10001306273E+02 -0.67686046876E+03  0.68840162346E+03  0.12510747622E+03 0.  0.
         23    2    1    2    0    0 -0.21895846114E+01  0.10001306273E+02 -0.17280789294E+03  0.19484353556E+03  0.89423794816E+02 0.  0.
          5    1    3    3  502    0 -0.32423593066E+02  0.40820471969E+02 -0.17149520484E+03  0.17929215823E+03  0.41800000000E+01 0.  1.
         -5    1    3    3    0  502  0.34613177678E+02 -0.50821778242E+02 -0.50536526392E+03  0.50910946523E+03  0.41800000000E+01 0.  1.
        -11    1    4    4    0    0 -0.14927225280E+02  0.46060240464E+02 -0.69659316811E+02  0.84833886065E+02  0.00000000000E+00 0.  1.
         11    1    4    4    0    0  0.12737640669E+02 -0.36058934191E+02 -0.10314857613E+03  0.11000964950E+03  0.00000000000E+00 0. -1.
</event>
<event>
 8    1  0.6840084E-009  0.1078768E+03  0.7561462E-02  0.1264553E+00
          2   -1    0    0  501    0  0.00000000000E+00  0.00000000000E+00  0.16059064757E+03  0.16059064757E+03  0.00000000000E+00 0.  1.
         -2   -1    0    0    0  501 -0.00000000000E+00 -0.00000000000E+00 -0.10862918575E+03  0.10862918575E+03  0.00000000000E+00 0. -1.
         25    2    1    2    0    0  0.55594278113E+02 -0.36844457348E+02  0.64964669163E+02  0.15593749740E+03  0.12509139483E+03 0.  0.
         23    2    1    2    0    0 -0.55594278113E+02  0.36844457348E+02 -0.13003207341E+02  0.11328233592E+03  0.90639761886E+02 0.  0.
          5    1    3    3  502    0  0.76244432813E+02 -0.20256719903E+02  0.89649172143E+02  0.11949056323E+03  0.41800000000E+01 0.  1.
         -5    1    3    3    0  502 -0.20650154700E+02 -0.16587737445E+02 -0.24684502981E+02  0.36446934166E+02  0.41800000000E+01 0.  1.
        -11    1    4    4    0    0 -0.79569075189E+02  0.29540593458E+02  0.36670876559E+00  0.84876491819E+02  0.00000000000E+00 0.  1.
         11    1    4    4    0    0  0.23974797075E+02  0.73038638896E+01 -0.13369916107E+02  0.28405844103E+02  0.00000000000E+00 0. -1.
</event>
<event>
 8    1  0.6840084E-009  0.6650141E+02  0.7561462E-02  0.1372411E+00
          2   -1    0    0  501    0  0.00000000000E+00  0.00000000000E+00  0.65304721347E+03  0.65304721347E+03  0.00000000000E+00 0. -1.
         -2   -1    0    0    0  501 -0.00000000000E+00 -0.00000000000E+00 -0.28907766844E+02  0.28907766844E+02  0.00000000000E+00 0.  1.
         25    2    1    2    0    0  0.78200928642E+01 -0.12480504997E+02  0.54767015558E+03  0.56196556291E+03  0.12508308331E+03 0.  0.
         23    2    1    2    0    0 -0.78200928642E+01  0.12480504997E+02  0.76469291045E+02  0.11998941740E+03  0.91285217631E+02 0.  0.
          5    1    3    3  502    0  0.14305954106E+02 -0.24822598151E+02  0.22693283680E+02  0.36786943690E+02  0.41800000000E+01 0.  1.
         -5    1    3    3    0  502 -0.64858612416E+01  0.12342093154E+02  0.52497687190E+03  0.52517861922E+03  0.41800000000E+01 0.  1.
        -11    1    4    4    0    0 -0.38187183577E+02  0.34911627350E+02  0.28918094495E+02  0.59273424930E+02  0.00000000000E+00 0. -1.
         11    1    4    4    0    0  0.30367090713E+02 -0.22431122353E+02  0.47551196550E+02  0.60715992471E+02  0.00000000000E+00 0.  1.
</event>
<event>
 8    1  0.6840084E-009  0.1242096E+03  0.7561462E-02  0.1236310E+00
          2   -1    0    0  501    0  0.00000000000E+00  0.00000000000E+00  0.31721502837E+03  0.31721502837E+03  0.00000000000E+00 0.  1.
         -2   -1    0    0    0  501 -0.00000000000E+00 -0.00000000000E+00 -0.58845651712E+02  0.58845651712E+02  0.00000000000E+00 0. -1.
         25    2    1    2    0    0 -0.72469109050E+02  0.36702424311E+02  0.12403779120E+03  0.19398926303E+03  0.12509045051E+03 0.  0.
         23    2    1    2    0    0  0.72469109050E+02 -0.36702424311E+02  0.13433158546E+03  0.18207141705E+03  0.92228988607E+02 0.  0.
          5    1    3    3  502    0 -0.85621441631E+02  0.71518906572E+02  0.95255346245E+02  0.14675502939E+03  0.41800000000E+01 0.  1.
         -5    1    3    3    0  502  0.13152332582E+02 -0.34816482262E+02  0.28782444954E+02  0.47234233633E+02  0.41800000000E+01 0.  1.
        -11    1    4    4    0    0  0.20510644832E+01  0.12983934270E+02  0.78027171323E+02  0.79126663517E+02  0.00000000000E+00 0.  1.
         11    1    4    4    0    0  0.70418044566E+02 -0.49686358581E+02  0.56304414137E+02  0.10294475354E+03  0.00000000000E+00 0. -1.
</event>
<event>
 8    1  0.6840084E-009  0.5905503E+02  0.7561462E-02  0.1401841E+00
         -2   -1    0    0    0  501 -0.00000000000E+00  0.00000000000E+00  0.24985727692E+03  0.24985727692E+03  0.00000000000E+00 0.  1.
          2   -1    0    0  501    0  0.00000000000E+00 -0.00000000000E+00 -0.68554944568E+02  0.68554944568E+02  0.00000000000E+00 0. -1.
         25    2    1    2    0    0  0.19240867942E+02  0.17905034121E+02  0.16835401611E+02  0.12891788610E+03  0.12508233034E+03 0.  0.
         23    2    1    2    0    0 -0.19240867942E+02 -0.17905034121E+02  0.16446693074E+03  0.18949433538E+03  0.90376604218E+02 0.  0.
          5    1    3    3  502    0  0.19705173869E+02  0.14292721629E+02 -0.53204947714E+02  0.58658457446E+02  0.41800000000E+01 0.  1.
         -5    1    3    3    0  502 -0.46430592687E+00  0.36123124920E+01  0.70040349324E+02  0.70259428656E+02  0.41800000000E+01 0.  1.
        -11    1    4    4    0    0 -0.16283902370E+02  0.33040624948E+02  0.37082047675E+02  0.52267835550E+02  0.00000000000E+00 0. -1.
         11    1    4    4    0    0 -0.29569655719E+01 -0.50945659069E+02  0.12738488306E+03  0.13722649983E+03  0.00000000000E+00 0.  1.
</event>
<event>
 8    1  0.6840084E-009  0.1170271E+03  0.7561462E-02  0.1248084E+00
         -1   -1    0    0    0  501 -0.00000000000E+00  0.00000000000E+00  0.95992775053E+01  0.95992775053E+01  0.00000000000E+00 0.  1.
          1   -1    0    0  501    0  0.00000000000E+00 -0.00000000000E+00 -0.26809564758E+04  0.26809564758E+04  0.00000000000E+00 0. -1.
         25    2    1    2    0    0 -0.38561370638E+02  0.61065184651E+02 -0.22095123195E+04  0.22142285971E+04  0.12509058282E+03 0.  0.
         23    2    1    2    0    0  0.38561370638E+02 -0.61065184651E+02 -0.46184487878E+03  0.47632715624E+03  0.91492795512E+02 0.  0.
          5    1    3    3  502    0 -0.82806380528E+02  0.31421239887E+02 -0.11768487259E+04  0.11801841327E+04  0.41800000000E+01 0.  1.
         -5    1    3    3    0  502  0.44245009890E+02  0.29643944764E+02 -0.10326635936E+04  0.10340444643E+04  0.41800000000E+01 0.  1.
        -11    1    4    4    0    0  0.53353320967E+02 -0.52607130179E+02 -0.44841406722E+03  0.45463090819E+03  0.00000000000E+00 0. -1.
         11    1    4    4    0    0 -0.14791950329E+02 -0.84580544717E+01 -0.13430811561E+02  0.21696248043E+02  0.00000000000E+00 0.  1.
</event>
<event>
 8    1  0.6840084E-009  0.1103827E+03  0.7561462E-02  0.1259863E+00
          3   -1    0    0  501    0  0.00000000000E+00  0.00000000000E+00  0.33505897667E+03  0.33505897667E+03  0.00000000000E+00 0. -1.
         -3   -1    0    0    0  501 -0.00000000000E+00 -0.00000000000E+00 -0.50662125186E+02  0.50662125186E+02  0.00000000000E+00 0.  1.
         25    2    1    2    0    0  0.23052743726E+02  0.58589921348E+02  0.20928223742E+03  0.25181362783E+03  0.12508733102E+03 0.  0.
         23    2    1    2    0    0 -0.23052743726E+02 -0.58589921348E+02  0.75114614065E+02  0.13390747403E+03  0.91240333620E+02 0.  0.
          5    1    3    3  502    0  0.58952339011E+02  0.59045227931E+02  0.19642069675E+03  0.21344854117E+03  0.41800000000E+01 0.  1.
         -5    1    3    3    0  502 -0.35899595285E+02 -0.45530658305E+00  0.12861540676E+02  0.38365086658E+02  0.41800000000E+01 0.  1.
        -11    1    4    4    0    0 -0.21364948870E+02  0.15860992469E+02 -0.20260365297E+01  0.26685894145E+02  0.00000000000E+00 0. -1.
         11    1    4    4    0    0 -0.16877948566E+01 -0.74450913817E+02  0.77140650595E+02  0.10722157989E+03  0.00000000000E+00 0.  1.
</event>
<event>
 7    1  0.6840084E-009  0.1086461E+03  0.7561462E-02  0.1263098E+00
         -2   -1    0    0    0  501 -0.00000000000E+00  0.00000000000E+00  0.86090110993E+02  0.86090110993E+02  0.00000000000E+00 0.  1.
          2   -1    0    0  501    0  0.00000000000E+00 -0.00000000000E+00 -0.17638643405E+03  0.17638643405E+03  0.00000000000E+00 0. -1.
         23    2    1    2    0    0  0.43389442268E+02  0.56382366203E+01 -0.88684562292E+02  0.13001790111E+03  0.84411312076E+02 0.  0.
          5    1    1    2  502    0 -0.32325570236E+02 -0.60361994465E+02 -0.23253499708E+02  0.72434180575E+02  0.41800000000E+01 0. -1.
         -5    1    1    2    0  502 -0.11063872031E+02  0.54723757845E+02  0.21641738946E+02  0.60024463359E+02  0.41800000000E+01 0. -1.
        -11    1    3    3    0    0  0.58242321579E+02  0.28967691792E+02 -0.48076644197E+02  0.80886704148E+02  0.00000000000E+00 0.  1.
         11    1    3    3    0    0 -0.14852879311E+02 -0.23329455172E+02 -0.40607918096E+02  0.49131196958E+02  0.00000000000E+00 0. -1.
</event>
<event>
 8    1  0.6840084E-009  0.1056046E+03  0.7561462E-02  0.1268933E+00
         -1   -1    0    0    0  501 -0.00000000000E+00  0.00000000000E+00  0.82836334193E+02  0.82836334193E+02  0.00000000000E+00 0.  1.
          1   -1    0    0  501    0  0.00000000000E+00 -0.00000000000E+00 -0.19291923312E+03  0.19291923312E+03  0.00000000000E+00 0. -1.
         25    2    1    2    0    0  0.32740125846E+02 -0.20805014483E+02 -0.18459037339E+01  0.13097776694E+03  0.12508798345E+03 0.  0.
         23    2    1    2    0    0 -0.32740125846E+02  0.20805014483E+02 -0.10823699519E+03  0.14477780037E+03  0.87980679036E+02 0.  0.
          5    1    3    3  502    0 -0.12119045240E+02 -0.63737923758E+02  0.14545257424E+02  0.66621551288E+02  0.41800000000E+01 0. -1.
         -5    1    3    3    0  502  0.44859171086E+02  0.42932909275E+02 -0.16391161158E+02  0.64356215655E+02  0.41800000000E+01 0. -1.
        -11    1    4    4    0    0 -0.14872492270E+02 -0.28155470575E+02 -0.96673236111E+01  0.33277300002E+02  0.00000000000E+00 0.  1.
         11    1    4    4    0    0 -0.17867633576E+02  0.48960485058E+02 -0.98569671582E+02  0.11150050037E+03  0.00000000000E+00 0. -1.
</event>
<event>
 8    1  0.6840084E-009  0.9694006E+02  0.7561462E-02  0.1286865E+00
          2   -1    0    0  501    0  0.00000000000E+00  0.00000000000E+00  0.19485841000E+03  0.19485841000E+03  0.00000000000E+00 0. -1.
         -2   -1    0    0    0  501 -0.00000000000E+00 -0.00000000000E+00 -0.82129115238E+02  0.82129115238E+02  0.00000000000E+00 0.  1.
         25    2    1    2    0    0 -0.34555790805E+02 -0.35778123404E+02  0.13781126135E+02  0.13531948340E+03  0.12508903372E+03 0.  0.
         23    2    1    2    0    0  0.34555790805E+02  0.35778123404E+02  0.98948168623E+02  0.14166804184E+03  0.88345442504E+02 0.  0.
          5    1    3    3  502    0  0.26727782341E+02  0.14853177125E+02 -0.31201200404E+02  0.43885971862E+02  0.41800000000E+01 0. -1.
         -5    1    3    3    0  502 -0.61283573146E+02 -0.50631300529E+02  0.44982326540E+02  0.91433511536E+02  0.41800000000E+01 0. -1.
        -11    1    4    4    0    0  0.52119722303E+02  0.39579021511E+02  0.32958047283E+02  0.73274806567E+02  0.00000000000E+00 0.  1.
         11    1    4    4    0    0 -0.17563931498E+02 -0.38008981069E+01  0.65990121341E+02  0.68393235269E+02  0.00000000000E+00 0. -1.
</event>
<event>
 8    1  0.6840084E-009  0.1192836E+03  0.7561462E-02  0.1244284E+00
         -1   -1    0    0    0  501 -0.00000000000E+00  0.00000000000E+00  0.37094063400E+02  0.37094063400E+02  0.00000000000E+00 0.  1.
          1   -1    0    0  501    0  0.00000000000E+00 -0.00000000000E+00 -0.46837477176E+03  0.46837477176E+03  0.00000000000E+00 0. -1.
         25    2    1    2    0    0  0.60948138547E+02  0.36655868831E+02 -0.18766264971E+03  0.23648042333E+03  0.12508953676E+03 0.  0.
         23    2    1    2    0    0 -0.60948138547E+02 -0.36655868831E+02 -0.24361805864E+03  0.26898841183E+03  0.89144146695E+02 0.  0.
          5    1    3    3  502    0 -0.19138032566E+02  0.43200280761E+02 -0.21950380043E+02  0.52266816742E+02  0.41800000000E+01 0.  1.
         -5    1    3    3    0  502  0.80086171114E+02 -0.65444119294E+01 -0.16571226967E+03  0.18421360658E+03  0.41800000000E+01 0.  1.
        -11    1    4    4    0    0  0.20639693382E+02 -0.17023974527E+02 -0.34480191389E+02  0.43642825869E+02  0.00000000000E+00 0.  1.
         11    1    4    4    0    0 -0.81587831930E+02 -0.19631894305E+02 -0.20913786726E+03  0.22534558596E+03  0.00000000000E+00 0. -1.
</event>
<event>
 8    1  0.6840084E-009  0.1470919E+03  0.7561462E-02  0.1204093E+00
          1   -1    0    0  501    0  0.00000000000E+00  0.00000000000E+00  0.15021385072E+04  0.15021385072E+04  0.00000000000E+00 0. -1.
         -1   -1    0    0    0  501 -0.00000000000E+00 -0.00000000000E+00 -0.23296541297E+02  0.23296541297E+02  0.00000000000E+00 0.  1.
         25    2    1    2    0    0  0.11068001240E+03  0.45913151495E+02  0.11598120204E+04  0.11726714452E+04  0.12504524450E+03 0.  0.
         23    2    1    2    0    0 -0.11068001240E+03 -0.45913151495E+02  0.31902994551E+03  0.35276360327E+03  0.91126127083E+02 0.  0.
          5    1    3    3  502    0  0.10123068292E+01  0.40302102130E+02  0.11191622552E+03  0.11902940030E+03  0.41800000000E+01 0.  1.
         -5    1    3    3    0  502  0.10966770557E+03  0.56110493649E+01  0.10478957949E+04  0.10536420449E+04  0.41800000000E+01 0.  1.
        -11    1    4    4    0    0 -0.12225287932E+02  0.21295377279E+02  0.10442407223E+03  0.10727225932E+03  0.00000000000E+00 0. -1.
         11    1    4    4    0    0 -0.98454724466E+02 -0.67208528774E+02  0.21460587328E+03  0.24549134396E+03  0.00000000000E+00 0.  1.
</event>
<event>
 8    1  0.6840084E-009  0.1075582E+03  0.7561462E-02  0.1265160E+00
          2   -1    0    0  501    0  0.00000000000E+00  0.00000000000E+00  0.52397232241E+02  0.52397232241E+02  0.00000000000E+00 0. -1.
         -2   -1    0    0    0  501 -0.00000000000E+00 -0.00000000000E+00 -0.36644510601E+03  0.36644510601E+03  0.00000000000E+00 0.  1.
         25    2    1    2    0    0  0.74268607252E+02  0.20866970535E+02 -0.13960977860E+03  0.20270755282E+03  0.12509278639E+03 0.  0.
         23    2    1    2    0    0 -0.74268607252E+02 -0.20866970535E+02 -0.17443809518E+03  0.21613478543E+03  0.10165795564E+03 0.  0.
          5    1    3    3  502    0  0.41986959389E+02 -0.92194863547E+01 -0.15090607790E+03  0.15696502933E+03  0.41800000000E+01 0.  1.
         -5    1    3    3    0  502  0.32281647864E+02  0.30086456890E+02  0.11296299300E+02  0.45742523486E+02  0.41800000000E+01 0.  1.
        -11    1    4    4    0    0 -0.85579109908E+02 -0.48058966245E+02 -0.13553482042E+03  0.16734137515E+03  0.00000000000E+00 0.  1.
         11    1    4    4    0    0  0.11310502656E+02  0.27191995710E+02 -0.38903274752E+02  0.48793410287E+02  0.00000000000E+00 0. -1.
</event>
<event>
 8    1  0.6840084E-009  0.8133481E+02  0.7561462E-02  0.1325306E+00
         -1   -1    0    0    0  501 -0.00000000000E+00  0.00000000000E+00  0.31970716116E+02  0.31970716116E+02  0.00000000000E+00 0.  1.
          1   -1    0    0  501    0  0.00000000000E+00 -0.00000000000E+00 -0.41689131637E+03  0.41689131637E+03  0.00000000000E+00 0. -1.
         25    2    1    2    0    0  0.12049638780E+02 -0.36983962706E+02 -0.23194534439E+03  0.26639248773E+03  0.12511317854E+03 0.  0.
         23    2    1    2    0    0 -0.12049638780E+02  0.36983962706E+02 -0.15297525587E+03  0.18246954476E+03  0.91546155373E+02 0.  0.
          5    1    3    3  502    0  0.15014815541E+02 -0.55431514775E+02 -0.32677937474E+02  0.66207382621E+02  0.41800000000E+01 0. -1.
         -5    1    3    3    0  502 -0.29651767609E+01  0.18447552069E+02 -0.19926740691E+03  0.20018510511E+03  0.41800000000E+01 0. -1.
        -11    1    4    4    0    0 -0.38399394203E+02 -0.24920722710E+01 -0.11626358320E+03  0.12246609604E+03  0.00000000000E+00 0. -1.
         11    1    4    4    0    0  0.26349755423E+02  0.39476034977E+02 -0.36711672667E+02  0.60003448720E+02  0.00000000000E+00 0.  1.
</event>
<event>
 8    1  0.6840084E-009  0.1170613E+03  0.7561462E-02  0.1248025E+00
         -2   -1    0    0    0  501 -0.00000000000E+00  0.00000000000E+00  0.17916796781E+02  0.17916796781E+02  0.00000000000E+00 0.  1.
          2   -1    0    0  501    0  0.00000000000E+00 -0.00000000000E+00 -0.85183140890E+03  0.85183140890E+03  0.00000000000E+00 0. -1.
         25    2    1    2    0    0 -0.53644327787E+02 -0.90936678394E+01 -0.38893200432E+03  0.41216001053E+03  0.12508941439E+03 0.  0.
         23    2    1    2    0    0  0.53644327787E+02  0.90936678394E+01 -0.44498260780E+03  0.45758819516E+03  0.91744353532E+02 0.  0.
          5    1    3    3  502    0  0.17900687087E+02 -0.44935166135E+02 -0.21853006975E+03  0.22385814155E+03  0.41800000000E+01 0.  1.
         -5    1    3    3    0  502 -0.71545014875E+02  0.35841498296E+02 -0.17040193457E+03  0.18830186898E+03  0.41800000000E+01 0.  1.
        -11    1    4    4    0    0  0.68066610629E+02 -0.21697844276E+02 -0.26735527196E+03  0.27673579706E+03  0.00000000000E+00 0. -1.
         11    1    4    4    0    0 -0.14422282842E+02  0.30791512116E+02 -0.17762733584E+03  0.18085239810E+03  0.00000000000E+00 0.  1.
</event>
<event>
 8    1  0.6840084E-009  0.9690767E+02  0.7561462E-02  0.1286936E+00
          3   -1    0    0  501    0  0.00000000000E+00  0.00000000000E+00  0.29441840939E+03  0.29441840939E+03  0.00000000000E+00 0. -1.
         -3   -1    0    0    0  501 -0.00000000000E+00 -0.00000000000E+00 -0.51458622362E+02  0.51458622362E+02  0.00000000000E+00 0.  1.
         25    2    1    2    0    0  0.52452053965E+02  0.30060284129E+01  0.17817000140E+03  0.22394155468E+03  0.12508003975E+03 0.  0.
         23    2    1    2    0    0 -0.52452053965E+02 -0.30060284129E+01  0.64789785635E+02  0.12193547707E+03  0.88939811529E+02 0.  0.
          5    1    3    3  502    0  0.52805773966E+02  0.31559296304E+02  0.22527488897E+02  0.65646013614E+02  0.41800000000E+01 0. -1.
         -5    1    3    3    0  502 -0.35372000107E+00 -0.28553267891E+02  0.15564251250E+03  0.15829554107E+03  0.41800000000E+01 0. -1.
        -11    1    4    4    0    0 -0.77437691059E+02  0.33651481431E+01  0.48256069702E+02  0.91304810835E+02  0.00000000000E+00 0.  1.
         11    1    4    4    0    0  0.24985637094E+02 -0.63711765560E+01  0.16533715933E+02  0.30630666239E+02  0.00000000000E+00 0. -1.
</event>
<event>
 8    1  0.6840084E-009  0.8361862E+02  0.7561462E-02  0.1319085E+00
          2   -1    0    0  501    0  0.00000000000E+00  0.00000000000E+00  0.82315900846E+02  0.82315900846E+02  0.00000000000E+00 0. -1.
         -2   -1    0    0    0  501 -0.00000000000E+00 -0.00000000000E+00 -0.20815505590E+03  0.20815505590E+03  0.00000000000E+00 0.  1.
         25    2    1    2    0    0 -0.22174403996E+02  0.63883984176E+02 -0.99859284408E+02  0.17375855175E+03  0.12508912821E+03 0.  0.
         23    2    1    2    0    0  0.22174403996E+02 -0.63883984176E+02 -0.25979870652E+02  0.11671240500E+03  0.91509366602E+02 0.  0.
          5    1    3    3  502    0 -0.27257634307E+02  0.14307036116E+02 -0.11687329309E+03  0.12093183596E+03  0.41800000000E+01 0. -1.
         -5    1    3    3    0  502  0.50832303117E+01  0.49576948060E+02  0.17014008685E+02  0.52826715787E+02  0.41800000000E+01 0. -1.
        -11    1    4    4    0    0 -0.16593014766E+02 -0.31670799502E+02 -0.49522753844E+02  0.61080854843E+02  0.00000000000E+00 0.  1.
         11    1    4    4    0    0  0.38767418762E+02 -0.32213184674E+02  0.23542883192E+02  0.55631550160E+02  0.00000000000E+00 0. -1.
</event>
<event>
 8    1  0.6840084E-009  0.1436588E+03  0.7561462E-02  0.1208489E+00
          2   -1    0    0  501    0  0.00000000000E+00  0.00000000000E+00  0.58137246115E+02  0.58137246115E+02  0.00000000000E+00 0. -1.
         -2   -1    0    0    0  501 -0.00000000000E+00 -0.00000000000E+00 -0.45080401513E+03  0.45080401513E+03  0.00000000000E+00 0.  1.
         25    2    1    2    0    0  0.60216254812E+02 -0.10381102566E+03 -0.21713913917E+03  0.27784743843E+03  0.12508823642E+03 0.  0.
         23    2    1    2    0    0 -0.60216254812E+02  0.10381102566E+03 -0.17552762984E+03  0.23109382282E+03  0.90507898621E+02 0.  0.
          5    1    3    3  502    0  0.43293478262E+02 -0.13979591327E+02 -0.39588162519E+01  0.45857375196E+02  0.41800000000E+01 0.  1.
         -5    1    3    3    0  502  0.16922776550E+02 -0.89831434331E+02 -0.21318032291E+03  0.23199006323E+03  0.41800000000E+01 0.  1.
        -11    1    4    4    0    0 -0.67171113775E+02  0.26038383098E+02 -0.78437404156E+02  0.10650062108E+03  0.00000000000E+00 0. -1.
         11    1    4    4    0    0  0.69548589626E+01  0.77772642560E+02 -0.97090225689E+02  0.12459320173E+03  0.00000000000E+00 0.  1.
</event>
<event>
 7    1  0.6840084E-009  0.2248837E+03  0.7561462E-02  0.1130294E+00
          1   -1    0    0  501    0  0.00000000000E+00  0.00000000000E+00  0.35068578951E+03  0.35068578951E+03  0.00000000000E+00 0. -1.
         -1   -1    0    0    0  501 -0.00000000000E+00 -0.00000000000E+00 -0.17394749318E+03  0.17394749318E+03  0.00000000000E+00 0.  1.
         23    2    1    2    0    0 -0.11759427102E+03  0.18576528725E+03  0.53547505477E+02  0.24333133568E+03  0.89474292715E+02 0.  0.
          5    1    1    2  502    0 -0.28319145388E+01 -0.21632931890E+02 -0.21967194867E+02  0.31241535373E+02  0.41800000000E+01 0.  1.
         -5    1    1    2    0  502  0.12042618556E+03 -0.16413235536E+03  0.14515798573E+03  0.25006041163E+03  0.41800000000E+01 0. -1.
        -11    1    3    3    0    0 -0.10032413639E+03  0.12240365118E+03 -0.52006380197E+00  0.15826514661E+03  0.00000000000E+00 0.  1.
         11    1    3    3    0    0 -0.17270134634E+02  0.63361636072E+02  0.54067569279E+02  0.85066189075E+02  0.00000000000E+00 0. -1.
</event>
<event>
 8    1  0.6840084E-009  0.1512810E+03  0.7561462E-02  0.1198908E+00
          2   -1    0    0  501    0  0.00000000000E+00  0.00000000000E+00  0.55174905391E+03  0.55174905391E+03  0.00000000000E+00 0. -1.
         -2   -1    0    0    0  501 -0.00000000000E+00 -0.00000000000E+00 -0.58326457036E+02  0.58326457036E+02  0.00000000000E+00 0.  1.
         25    2    1    2    0    0 -0.25876581023E+02  0.13525458616E+03  0.32330336188E+03  0.37301006922E+03  0.12509215568E+03 0.  0.
         23    2    1    2    0    0  0.25876581023E+02 -0.13525458616E+03  0.17011923500E+03  0.23706544173E+03  0.91082759204E+02 0.  0.
          5    1    3    3  502    0 -0.22718717027E+02  0.11831640306E+03  0.12407441111E+03  0.17299376645E+03  0.41800000000E+01 0. -1.
         -5    1    3    3    0  502 -0.31578639957E+01  0.16938183103E+02  0.19922895076E+03  0.20001630277E+03  0.41800000000E+01 0. -1.
        -11    1    4    4    0    0 -0.32885804524E+02 -0.34636972537E+02  0.60556133146E+02  0.77124842090E+02  0.00000000000E+00 0.  1.
         11    1    4    4    0    0  0.58762385547E+02 -0.10061761362E+03  0.10956310185E+03  0.15994059964E+03  0.00000000000E+00 0. -1.
</event>
<event>
 7    1  0.6840084E-009  0.1194271E+03  0.7561462E-02  0.1244045E+00
          4   -1    0    0  501    0  0.00000000000E+00  0.00000000000E+00  0.33799841343E+02  0.33799841343E+02  0.00000000000E+00 0. -1.
         -4   -1    0    0    0  501 -0.00000000000E+00 -0.00000000000E+00 -0.74760683671E+03  0.74760683671E+03  0.00000000000E+00 0.  1.
         23    2    1    2    0    0 -0.15693364594E+02 -0.10698067988E+03 -0.23581727094E+03  0.27573510024E+03  0.93428650145E+02 0.  0.
          5    1    1    2  502    0 -0.13081511502E+02  0.99849816418E+02 -0.45963171250E+03  0.47055275509E+03  0.41800000000E+01 0. -1.
         -5    1    1    2    0  502  0.28774876095E+02  0.71308634659E+01 -0.18358011924E+02  0.35118822729E+02  0.41800000000E+01 0. -1.
        -11    1    3    3    0    0 -0.55850021247E+01 -0.37418576155E+02 -0.18542564435E+03  0.18924590266E+03  0.00000000000E+00 0.  1.
         11    1    3    3    0    0 -0.10108362469E+02 -0.69562103729E+02 -0.50391626585E+02  0.86489197573E+02  0.00000000000E+00 0. -1.
</event>
<event>
 8    1  0.6840084E-009  0.9367372E+02  0.7561462E-02  0.1294191E+00
         -2   -1    0    0    0  501 -0.00000000000E+00  0.00000000000E+00  0.46846920038E+02  0.46846920038E+02  0.00000000000E+00 0.  1.
          2   -1    0    0  501    0  0.00000000000E+00 -0.00000000000E+00 -0.43845090633E+03  0.43845090633E+03  0.00000000000E+00 0. -1.
         25    2    1    2    0    0  0.56198548003E+02 -0.35217354233E+02 -0.32266866458E+03  0.35236637736E+03  0.12509379663E+03 0.  0.
         23    2    1    2    0    0 -0.56198548003E+02  0.35217354233E+02 -0.68935321705E+02  0.13293144900E+03  0.92304673326E+02 0.  0.
          5    1    3    3  502    0 -0.93623170596E+01 -0.21716938748E+02 -0.25827964461E+03  0.25939376560E+03  0.41800000000E+01 0. -1.
         -5    1    3    3    0  502  0.65560865063E+02 -0.13500415486E+02 -0.64389019969E+02  0.92972611766E+02  0.41800000000E+01 0. -1.
        -11    1    4    4    0    0  0.11738108803E+02  0.24928222999E+02  0.90428198221E+01  0.28999518798E+02  0.00000000000E+00 0.  1.
         11    1    4    4    0    0 -0.67936656806E+02  0.10289131234E+02 -0.77978141527E+02  0.10393193020E+03  0.00000000000E+00 0. -1.
</event>
<event>
 8    1  0.6840084E-009  0.7714843E+02  0.7561462E-02  0.1337344E+00
         -1   -1    0    0    0  501 -0.00000000000E+00  0.00000000000E+00  0.59652185090E+02  0.59652185090E+02  0.00000000000E+00 0.  1.
          1   -1    0    0  501    0  0.00000000000E+00 -0.00000000000E+00 -0.33015896484E+03  0.33015896484E+03  0.00000000000E+00 0. -1.
         25    2    1    2    0    0 -0.39050858593E+02 -0.17884848008E+02 -0.25711452139E+03  0.28913742186E+03  0.12509090401E+03 0.  0.
         23    2    1    2    0    0  0.39050858593E+02  0.17884848008E+02 -0.13392258359E+02  0.10067372807E+03  0.90061143643E+02 0.  0.
          5    1    3    3  502    0  0.21786485280E+02 -0.33578228018E+02 -0.22264991088E+02  0.45992940391E+02  0.41800000000E+01 0.  1.
         -5    1    3    3    0  502 -0.60837343873E+02  0.15693380010E+02 -0.23484953031E+03  0.24314448147E+03  0.41800000000E+01 0.  1.
        -11    1    4    4    0    0  0.65744379855E+01  0.17404274974E+02  0.36599796739E+02  0.41056998715E+02  0.00000000000E+00 0.  1.
         11    1    4    4    0    0  0.32476420607E+02  0.48057303435E+00 -0.49992055098E+02  0.59616729354E+02  0.00000000000E+00 0. -1.
</event>
<event>
 8    1  0.6840084E-009  0.1038240E+03  0.7561462E-02  0.1272454E+00
         -2   -1    0    0    0  501 -0.00000000000E+00  0.00000000000E+00  0.66043461419E+02  0.66043461419E+02  0.00000000000E+00 0.  1.
          2   -1    0    0  501    0  0.00000000000E+00 -0.00000000000E+00 -0.29765333266E+03  0.29765333266E+03  0.00000000000E+00 0. -1.
         25    2    1    2    0    0 -0.38201633015E+02 -0.18057015207E+02 -0.22913345282E+03  0.26444908576E+03  0.12508300920E+03 0.  0.
         23    2    1    2    0    0  0.38201633015E+02  0.18057015207E+02 -0.24764184198E+01  0.99247708323E+02  0.89769451352E+02 0.  0.
          5    1    3    3  502    0  0.71640401724E+01 -0.63321555394E+02 -0.14633863172E+03  0.15966656001E+03  0.41800000000E+01 0. -1.
         -5    1    3    3    0  502 -0.45365673187E+02  0.45264540186E+02 -0.82794821099E+02  0.10478252575E+03  0.41800000000E+01 0. -1.
        -11    1    4    4    0    0 -0.19397623922E+02  0.84962836326E+01  0.26616942196E+02  0.34013471761E+02  0.00000000000E+00 0.  1.
         11    1    4    4    0    0  0.57599256937E+02  0.95607315748E+01 -0.29093360616E+02  0.65234236562E+02  0.00000000000E+00 0. -1.
</event>
<event>
 8    1  0.6840084E-009  0.9949134E+02  0.7561462E-02  0.1281369E+00
         -4   -1    0    0    0  501 -0.00000000000E+00  0.00000000000E+00  0.38400771797E+03  0.38400771797E+03  0.00000000000E+00 0.  1.
          4   -1    0    0  501    0  0.00000000000E+00 -0.00000000000E+00 -0.33949527892E+02  0.33949527892E+02  0.00000000000E+00 0. -1.
         25    2    1    2    0    0  0.34216933821E+02  0.12598129504E+02  0.21253459086E+03  0.24929477374E+03  0.12508964975E+03 0.  0.
         23    2    1    2    0    0 -0.34216933821E+02 -0.12598129504E+02  0.13752359922E+03  0.16866247212E+03  0.90580228161E+02 0.  0.
          5    1    3    3  502    0 -0.29425378438E+01 -0.48276302810E+02  0.41237759890E+02  0.63696822391E+02  0.41800000000E+01 0. -1.
         -5    1    3    3    0  502  0.37159471664E+02  0.60874432314E+02  0.17129683097E+03  0.18559795135E+03  0.41800000000E+01 0. -1.
        -11    1    4    4    0    0 -0.44991383709E+02 -0.33085189689E+02  0.40683008565E+02  0.69093860586E+02  0.00000000000E+00 0. -1.
         11    1    4    4    0    0  0.10774449888E+02  0.20487060185E+02  0.96840590652E+02  0.99568611536E+02  0.00000000000E+00 0.  1.
</event>
<event>
 8    1  0.6840084E-009  0.1207095E+03  0.7561462E-02  0.1241931E+00
          1   -1    0    0  501    0  0.00000000000E+00  0.00000000000E+00  0.53910592812E+03  0.53910592812E+03  0.00000000000E+00 0. -1.
         -1   -1    0    0    0  501 -0.00000000000E+00 -0.00000000000E+00 -0.35461084322E+02  0.35461084322E+02  0.00000000000E+00 0.  1.
         25    2    1    2    0    0 -0.32866354809E+02 -0.78145563097E+02  0.29260182935E+03  0.32931628440E+03  0.12508580383E+03 0.  0.
         23    2    1    2    0    0  0.32866354809E+02  0.78145563097E+02  0.21104301445E+03  0.24525072804E+03  0.91770579971E+02 0.  0.
          5    1    3    3  502    0 -0.57861357046E+02 -0.98184782018E+02  0.18846834787E+03  0.22028612895E+03  0.41800000000E+01 0. -1.
         -5    1    3    3    0  502  0.24995002236E+02  0.20039218921E+02  0.10413348148E+03  0.10903015545E+03  0.41800000000E+01 0. -1.
        -11    1    4    4    0    0  0.30738096469E+02  0.19536791447E+02  0.16952890417E+03  0.17339713419E+03  0.00000000000E+00 0. -1.
         11    1    4    4    0    0  0.21282583406E+01  0.58608771650E+02  0.41514110273E+02  0.71853593853E+02  0.00000000000E+00 0.  1.
</event>
<event>
 8    1  0.6840084E-009  0.2357842E+03  0.7561462E-02  0.1122634E+00
         -2   -1    0    0    0  501 -0.00000000000E+00  0.00000000000E+00  0.80861327327E+02  0.80861327327E+02  0.00000000000E+00 0.  1.
          2   -1    0    0  501    0  0.00000000000E+00 -0.00000000000E+00 -0.79007195226E+03  0.79007195226E+03  0.00000000000E+00 0. -1.
         25    2    1    2    0    0 -0.51675086477E+02  0.21588955590E+03 -0.45134054095E+03  0.51829992753E+03  0.12509163065E+03 0.  0.
         23    2    1    2    0    0  0.51675086477E+02 -0.21588955590E+03 -0.25787008398E+03  0.35263335205E+03  0.92599599672E+02 0.  0.
          5    1    3    3  502    0  0.34768995852E+02  0.73039594230E+02 -0.20743037970E+03  0.22268475525E+03  0.41800000000E+01 0. -1.
         -5    1    3    3    0  502 -0.86444082329E+02  0.14284996167E+03 -0.24391016125E+03  0.29561517228E+03  0.41800000000E+01 0. -1.
        -11    1    4    4    0    0  0.22011761628E+02 -0.44931059357E+02 -0.11572540456E+02  0.51354079074E+02  0.00000000000E+00 0. -1.
         11    1    4    4    0    0  0.29663324849E+02 -0.17095849655E+03 -0.24629754352E+03  0.30127927298E+03  0.00000000000E+00 0.  1.
</event>
<event>
 8    1  0.6840084E-009  0.4062807E+02  0.7561462E-02  0.1503640E+00
          2   -1    0    0  501    0  0.00000000000E+00  0.00000000000E+00  0.10841124399E+03  0.10841124399E+03  0.00000000000E+00 0. -1.
         -2   -1    0    0    0  501 -0.00000000000E+00 -0.00000000000E+00 -0.11997284046E+03  0.11997284046E+03  0.00000000000E+00 0.  1.
         25    2    1    2    0    0 -0.17511945171E+01 -0.79797576922E+01 -0.41387113078E+02  0.13201450220E+03  0.12509273538E+03 0.  0.
         23    2    1    2    0    0  0.17511945171E+01  0.79797576922E+01  0.29825516608E+02  0.96369582246E+02  0.91273170901E+02 0.  0.
          5    1    3    3  502    0  0.21999254731E+02  0.23915241520E+01  0.40326031989E+02  0.46188178709E+02  0.41800000000E+01 0.  1.
         -5    1    3    3    0  502 -0.23750449248E+02 -0.10371281844E+02 -0.81713145067E+02  0.85826323487E+02  0.41800000000E+01 0.  1.
        -11    1    4    4    0    0 -0.32576030998E+01 -0.11716901656E+02 -0.30434669145E+02  0.32774484715E+02  0.00000000000E+00 0.  1.
         11    1    4    4    0    0  0.50087976169E+01  0.19696659349E+02  0.60260185753E+02  0.63595097531E+02  0.00000000000E+00 0. -1.
</event>
<event>
 8    1  0.6840084E-009  0.4200222E+03  0.7561462E-02  0.1037059E+00
          2   -1    0    0  501    0  0.00000000000E+00  0.00000000000E+00  0.21092048723E+03  0.21092048723E+03  0.00000000000E+00 0.  1.
         -2   -1    0    0    0  501 -0.00000000000E+00 -0.00000000000E+00 -0.87957211956E+03  0.87957211956E+03  0.00000000000E+00 0. -1.
         25    2    1    2    0    0  0.18854356503E+02  0.41538066521E+03 -0.30234941382E+03  0.52911262218E+03  0.12509362541E+03 0.  0.
         23    2    1    2    0    0 -0.18854356503E+02 -0.41538066521E+03 -0.36630221852E+03  0.56137998462E+03  0.89853147141E+02 0.  0.
          5    1    3    3  502    0  0.20335067803E+02  0.21101379184E+03 -0.22861598316E+03  0.31180615050E+03  0.41800000000E+01 0. -1.
         -5    1    3    3    0  502 -0.14807112998E+01  0.20436687337E+03 -0.73733430656E+02  0.21730647168E+03  0.41800000000E+01 0. -1.
        -11    1    4    4    0    0 -0.50433435262E+02 -0.22216665805E+03 -0.17110190423E+03  0.28491650878E+03  0.00000000000E+00 0.  1.
         11    1    4    4    0    0  0.31579078759E+02 -0.19321400716E+03 -0.19520031429E+03  0.27646347584E+03  0.00000000000E+00 0. -1.
</event>
<event>
 8    1  0.6840084E-009  0.1834756E+03  0.7561462E-02  0.1164481E+00
         -1   -1    0    0    0  501 -0.00000000000E+00  0.00000000000E+00  0.75454803953E+02  0.75454803953E+02  0.00000000000E+00 0.  1.
          1   -1    0    0  501    0  0.00000000000E+00 -0.00000000000E+00 -0.56684551043E+03  0.56684551043E+03  0.00000000000E+00 0. -1.
         25    2    1    2    0    0  0.15885850823E+03  0.57124937632E+02 -0.33131020526E+03  0.39231790343E+03  0.12509037175E+03 0.  0.
         23    2    1    2    0    0 -0.15885850823E+03 -0.57124937632E+02 -0.16008050122E+03  0.24998241096E+03  0.91466686732E+02 0.  0.
          5    1    3    3  502    0  0.46004335542E+02 -0.54364493275E+01 -0.21025448816E+03  0.21533781847E+03  0.41800000000E+01 0. -1.
         -5    1    3    3    0  502  0.11285417268E+03  0.62561386959E+02 -0.12105571710E+03  0.17698008496E+03  0.41800000000E+01 0. -1.
        -11    1    4    4    0    0 -0.12552284213E+03 -0.81832973535E+02 -0.11645152853E+03  0.18977243728E+03  0.00000000000E+00 0.  1.
         11    1    4    4    0    0 -0.33335666099E+02  0.24708035903E+02 -0.43628972694E+02  0.60209973682E+02  0.00000000000E+00 0. -1.
</event>
<event>
 8    1  0.6840084E-009  0.1125837E+03  0.7561462E-02  0.1255859E+00
          2   -1    0    0  501    0  0.00000000000E+00  0.00000000000E+00  0.62621980992E+02  0.62621980992E+02  0.00000000000E+00 0. -1.
         -2   -1    0    0    0  501 -0.00000000000E+00 -0.00000000000E+00 -0.24747835083E+03  0.24747835083E+03  0.00000000000E+00 0.  1.
         25    2    1    2    0    0 -0.26683321936E+02 -0.46108690880E+02 -0.14538887046E+03  0.19904915986E+03  0.12507850873E+03 0.  0.
         23    2    1    2    0    0  0.26683321936E+02  0.46108690880E+02 -0.39467499383E+02  0.11105117196E+03  0.89087980341E+02 0.  0.
          5    1    3    3  502    0  0.41065795406E+02 -0.44020431374E+02 -0.10183529632E+03  0.11837270761E+03  0.41800000000E+01 0. -1.
         -5    1    3    3    0  502 -0.67749117342E+02 -0.20882595069E+01 -0.43553574139E+02  0.80676452257E+02  0.41800000000E+01 0. -1.
        -11    1    4    4    0    0  0.46425053614E+02 -0.35593873715E+00 -0.38890806781E+02  0.60563249149E+02  0.00000000000E+00 0.  1.
         11    1    4    4    0    0 -0.19741731678E+02  0.46464629618E+02 -0.57669260283E+00  0.50487922808E+02  0.00000000000E+00 0. -1.
</event>
<event>
 8    1  0.6840084E-009  0.1138616E+03  0.7561462E-02  0.1253581E+00
          2   -1    0    0  501    0  0.00000000000E+00  0.00000000000E+00  0.34909444441E+03  0.34909444441E+03  0.00000000000E+00 0. -1.
         -2   -1    0    0    0  501 -0.00000000000E+00 -0.00000000000E+00 -0.51780641072E+02  0.51780641072E+02  0.00000000000E+00 0.  1.
         25    2    1    2    0    0 -0.68889070526E+02 -0.34384221416E+02  0.15839870561E+03  0.21602200377E+03  0.12508947780E+03 0.  0.
         23    2    1    2    0    0  0.68889070526E+02  0.34384221416E+02  0.13891509773E+03  0.18485308171E+03  0.94579483607E+02 0.  0.
          5    1    3    3  502    0  0.61935487451E+01 -0.64790341579E+02  0.79963839636E+02  0.10318835427E+03  0.41800000000E+01 0.  1.
         -5    1    3    3    0  502 -0.75082619271E+02  0.30406120163E+02  0.78434865969E+02  0.11283364950E+03  0.41800000000E+01 0.  1.
        -11    1    4    4    0    0  0.33553354032E+02  0.31356951952E+02  0.14201185358E+03  0.14925298175E+03  0.00000000000E+00 0. -1.
         11    1    4    4    0    0  0.35335716494E+02  0.30272694636E+01 -0.30967558506E+01  0.35600099962E+02  0.00000000000E+00 0.  1.
</event>
<event>
 8    1  0.6840084E-009  0.9869733E+02  0.7561462E-02  0.1283059E+00
         -1   -1    0    0    0  501 -0.00000000000E+00  0.00000000000E+00  0.15090319571E+03  0.15090319571E+03  0.00000000000E+00 0.  1.
          1   -1    0    0  501    0  0.00000000000E+00 -0.00000000000E+00 -0.84060746167E+02  0.84060746167E+02  0.00000000000E+00 0. -1.
         25    2    1    2    0    0  0.23285671298E+02  0.57284491155E+01  0.24224093739E+02  0.12965010132E+03  0.12508918593E+03 0.  0.
         23    2    1    2    0    0 -0.23285671298E+02 -0.57284491155E+01  0.42618355805E+02  0.10531384056E+03  0.93271877569E+02 0.  0.
          5    1    3    3  502    0  0.26090750471E+02  0.50316503964E+02 -0.25830565485E+02  0.62427304480E+02  0.41800000000E+01 0. -1.
         -5    1    3    3    0  502 -0.28050791726E+01 -0.44588054849E+02  0.50054659224E+02  0.67222796836E+02  0.41800000000E+01 0. -1.
        -11    1    4    4    0    0 -0.50438408974E+02 -0.30494159529E+02  0.20408672556E+02  0.62373398021E+02  0.00000000000E+00 0. -1.
         11    1    4    4    0    0  0.27152737676E+02  0.24765710413E+02  0.22209683249E+02  0.42940442541E+02  0.00000000000E+00 0.  1.
</event>
<event>
 8    1  0.6840084E-009  0.9264195E+02  0.7561462E-02  0.1296577E+00
          2   -1    0    0  501    0  0.00000000000E+00  0.00000000000E+00  0.38084354818E+03  0.38084354818E+03  0.00000000000E+00 0. -1.
         -2   -1    0    0    0  501 -0.00000000000E+00 -0.00000000000E+00 -0.36738124274E+02  0.36738124274E+02  0.00000000000E+00 0.  1.
         25    2    1    2    0    0  0.30631242121E+02  0.35261357149E+02  0.21933576531E+03  0.25678299884E+03  0.12509074405E+03 0.  0.
         23    2    1    2    0    0 -0.30631242121E+02 -0.35261357149E+02  0.12476965860E+03  0.16079867362E+03  0.90039488160E+02 0.  0.
          5    1    3    3  502    0 -0.40577703188E+02  0.16695434728E+02  0.29229732691E+02  0.52887968480E+02  0.41800000000E+01 0.  1.
         -5    1    3    3    0  502  0.71208945308E+02  0.18565922421E+02  0.19010603261E+03  0.20389503036E+03  0.41800000000E+01 0.  1.
        -11    1    4    4    0    0  0.90501751465E+01 -0.24890587958E+02 -0.29561540312E+01  0.26649313044E+02  0.00000000000E+00 0.  1.
         11    1    4    4    0    0 -0.39681417267E+02 -0.10370769191E+02  0.12772581263E+03  0.13414936057E+03  0.00000000000E+00 0. -1.
</event>
<event>
 8    1  0.6840084E-009  0.1159026E+03  0.7561462E-02  0.1250014E+00
         -1   -1    0    0    0  501 -0.00000000000E+00  0.00000000000E+00  0.57491575793E+02  0.57491575793E+02  0.00000000000E+00 0.  1.
          1   -1    0    0  501    0  0.00000000000E+00 -0.00000000000E+00 -0.38119803673E+03  0.38119803673E+03  0.00000000000E+00 0. -1.
         25    2    1    2    0    0  0.77698269483E+02  0.48151463923E+02 -0.11164132768E+03  0.19096418422E+03  0.12509176251E+03 0.  0.
         23    2    1    2    0    0 -0.77698269483E+02 -0.48151463923E+02 -0.21206513326E+03  0.24772542831E+03  0.89669852946E+02 0.  0.
          5    1    3    3  502    0  0.82822987477E+02  0.36729978458E+02 -0.13587755534E+03  0.16336744173E+03  0.41800000000E+01 0. -1.
         -5    1    3    3    0  502 -0.51247179941E+01  0.11421485465E+02  0.24236227660E+02  0.27596742488E+02  0.41800000000E+01 0. -1.
        -11    1    4    4    0    0 -0.72198733364E+01 -0.56480411879E+02 -0.88691761307E+02  0.10539635677E+03  0.00000000000E+00 0.  1.
         11    1    4    4    0    0 -0.70478396147E+02  0.83289479555E+01 -0.12337337195E+03  0.14232907154E+03  0.00000000000E+00 0. -1.
</event>
<event>
 8    1  0.6840084E-009  0.1067344E+03  0.7561462E-02  0.1266740E+00
         -2   -1    0    0    0  501 -0.00000000000E+00  0.00000000000E+00  0.60363807440E+03  0.60363807440E+03  0.00000000000E+00 0.  1.
          2   -1    0    0  501    0  0.00000000000E+00 -0.00000000000E+00 -0.25655968044E+02  0.25655968044E+02  0.00000000000E+00 0. -1.
         25    2    1    2    0    0 -0.15219419762E+02  0.59668706815E+02  0.30090881675E+03  0.33164073226E+03  0.12508986363E+03 0.  0.
         23    2    1    2    0    0  0.15219419762E+02 -0.59668706815E+02  0.27707328960E+03  0.29765331019E+03  0.89643181233E+02 0.  0.
          5    1    3    3  502    0 -0.46119851803E+02  0.57667833736E+02  0.28881727767E+03  0.29813673383E+03  0.41800000000E+01 0.  1.
         -5    1    3    3    0  502  0.30900432041E+02  0.20008730784E+01  0.12091539083E+02  0.33503998430E+02  0.41800000000E+01 0.  1.
        -11    1    4    4    0    0 -0.34188441190E+02 -0.45404891949E+02  0.15954141925E+03  0.16936327282E+03  0.00000000000E+00 0.  1.
         11    1    4    4    0    0  0.49407860952E+02 -0.14263814866E+02  0.11753187036E+03  0.12829003737E+03  0.00000000000E+00 0. -1.
</event>
<event>
 8    1  0.6840084E-009  0.9597872E+02  0.7561462E-02  0.1288987E+00
         -1   -1    0    0    0  501 -0.00000000000E+00  0.00000000000E+00  0.21803134353E+02  0.21803134353E+02  0.00000000000E+00 0.  1.
          1   -1    0    0  501    0  0.00000000000E+00 -0.00000000000E+00 -0.56408007423E+03  0.56408007423E+03  0.00000000000E+00 0. -1.
         25    2    1    2    0    0  0.58250403199E+01 -0.12529544822E+02 -0.26480436070E+03  0.29318878201E+03  0.12508953539E+03 0.  0.
         23    2    1    2    0    0 -0.58250403199E+01  0.12529544822E+02 -0.27747257918E+03  0.29269442658E+03  0.92130747111E+02 0.  0.
          5    1    3    3  502    0  0.27866359261E+02 -0.50839171120E+02 -0.22868524354E+03  0.23595670855E+03  0.41800000000E+01 0. -1.
         -5    1    3    3    0  502 -0.22041318941E+02  0.38309626298E+02 -0.36119117160E+02  0.57232073457E+02  0.41800000000E+01 0. -1.
        -11    1    4    4    0    0 -0.40555506954E+02 -0.16878672209E+02 -0.95513908245E+02  0.10513108669E+03  0.00000000000E+00 0.  1.
         11    1    4    4    0    0  0.34730466634E+02  0.29408217031E+02 -0.18195867094E+03  0.18756333989E+03  0.00000000000E+00 0. -1.
</event>
<event>
 8    1  0.6840084E-009  0.9122005E+02  0.7561462E-02  0.1299924E+00
          2   -1    0    0  501    0  0.00000000000E+00  0.00000000000E+00  0.58045882573E+02  0.58045882573E+02  0.00000000000E+00 0. -1.
         -2   -1    0    0    0  501 -0.00000000000E+00 -0.00000000000E+00 -0.36754177181E+03  0.36754177181E+03  0.00000000000E+00 0.  1.
         25    2    1    2    0    0 -0.80895234044E+02  0.10119436275E+02 -0.83725645276E+02  0.17118440574E+03  0.12509066795E+03 0.  0.
         23    2    1    2    0    0  0.80895234044E+02 -0.10119436275E+02 -0.22577024396E+03  0.25440324865E+03  0.84275547953E+02 0.  0.
          5    1    3    3  502    0 -0.75598443108E+00 -0.15369656127E+02 -0.85492527856E+02  0.86966904976E+02  0.41800000000E+01 0.  1.
         -5    1    3    3    0  502 -0.80139249613E+02  0.25489092403E+02  0.17668825793E+01  0.84217500759E+02  0.41800000000E+01 0.  1.
        -11    1    4    4    0    0  0.22171369996E+02 -0.78755314047E+01 -0.26543666803E+01  0.23677823060E+02  0.00000000000E+00 0.  1.
         11    1    4    4    0    0  0.58723864049E+02 -0.22439048704E+01 -0.22311587728E+03  0.23072542559E+03  0.00000000000E+00 0. -1.
</event>
<event>
 8    1  0.6840084E-009  0.1089397E+03  0.7561462E-02  0.1262546E+00
         -1   -1    0    0    0  501 -0.00000000000E+00  0.00000000000E+00  0.45099814711E+02  0.45099814711E+02  0.00000000000E+00 0.  1.
          1   -1    0    0  501    0  0.00000000000E+00 -0.00000000000E+00 -0.38773388885E+03  0.38773388885E+03  0.00000000000E+00 0. -1.
         25    2    1    2    0    0 -0.65127380449E+02  0.27601808508E+02 -0.23073419862E+03  0.27182857325E+03  0.12509623217E+03 0.  0.
         23    2    1    2    0    0  0.65127380449E+02 -0.27601808508E+02 -0.11189987552E+03  0.16100513031E+03  0.91638607200E+02 0.  0.
          5    1    3    3  502    0  0.18595824128E+02  0.42390426888E+02 -0.13955524802E+03  0.14709144305E+03  0.41800000000E+01 0.  1.
         -5    1    3    3    0  502 -0.83723204577E+02 -0.14788618380E+02 -0.91178950595E+02  0.12473713020E+03  0.41800000000E+01 0.  1.
        -11    1    4    4    0    0  0.23787203256E+02 -0.36903419771E+02 -0.28338204889E+01  0.43996863162E+02  0.00000000000E+00 0.  1.
         11    1    4    4    0    0  0.41340177193E+02  0.93016112633E+01 -0.10906605503E+03  0.11700826715E+03  0.00000000000E+00 0. -1.
</event>
<event>
 8    1  0.6840084E-009  0.2845391E+03  0.7561462E-02  0.1093235E+00
          2   -1    0    0  501    0  0.00000000000E+00  0.00000000000E+00  0.73589526034E+03  0.73589526034E+03  0.00000000000E+00 0. -1.
         -2   -1    0    0    0  501 -0.00000000000E+00 -0.00000000000E+00 -0.11804773412E+03  0.11804773412E+03  0.00000000000E+00 0.  1.
         25    2    1    2    0    0 -0.24639213650E+03 -0.11441233508E+03  0.26484321521E+03  0.39949734332E+03  0.12512766013E+03 0.  0.
         23    2    1    2    0    0  0.24639213650E+03  0.11441233508E+03  0.35300431102E+03  0.45444565114E+03  0.90052978243E+02 0.  0.
          5    1    3    3  502    0 -0.60269472957E+02 -0.91746518966E+02  0.77701525863E+02  0.13455419962E+03  0.41800000000E+01 0.  1.
         -5    1    3    3    0  502 -0.18612266355E+03 -0.22665816117E+02  0.18714168934E+03  0.26494314370E+03  0.41800000000E+01 0.  1.
        -11    1    4    4    0    0  0.62816129464E+02  0.30851838054E+02  0.35963856540E+02  0.78683549801E+02  0.00000000000E+00 0.  1.
         11    1    4    4    0    0  0.18357600704E+03  0.83560497029E+02  0.31704045448E+03  0.37576210134E+03  0.00000000000E+00 0. -1.
</event>
<event>
 8    1  0.6840084E-009  0.1012122E+03  0.7561462E-02  0.1277767E+00
         -2   -1    0    0    0  501 -0.00000000000E+00  0.00000000000E+00  0.60885000517E+02  0.60885000517E+02  0.00000000000E+00 0.  1.
          2   -1    0    0  501    0  0.00000000000E+00 -0.00000000000E+00 -0.25846481781E+03  0.25846481781E+03  0.00000000000E+00 0. -1.
         25    2    1    2    0    0  0.54555674556E+02  0.36407978147E+02 -0.11085148773E+03  0.17954525423E+03  0.12508630415E+03 0.  0.
         23    2    1    2    0    0 -0.54555674556E+02 -0.36407978147E+02 -0.86728329570E+02  0.13980456410E+03  0.87872922424E+02 0.  0.
          5    1    3    3  502    0  0.79400247359E+02 -0.13801551852E+01 -0.10789302743E+03  0.13403239115E+03  0.41800000000E+01 0. -1.
         -5    1    3    3    0  502 -0.24844572802E+02  0.37788133332E+02 -0.29584603016E+01  0.45512863081E+02  0.41800000000E+01 0. -1.
        -11    1    4    4    0    0 -0.23753093050E+02 -0.39952002019E+02 -0.96653754686E+02  0.10724887034E+03  0.00000000000E+00 0. -1.
         11    1    4    4    0    0 -0.30802581506E+02  0.35440238726E+01  0.99254251153E+01  0.32555693763E+02  0.00000000000E+00 0.  1.
</event>
<event>
 8    1  0.6840084E-009  0.1012789E+03  0.7561462E-02  0.1277629E+00
         -1   -1    0    0    0  501 -0.00000000000E+00  0.00000000000E+00  0.20423525206E+03  0.20423525206E+03  0.00000000000E+00 0.  1.
          1   -1    0    0  501    0  0.00000000000E+00 -0.00000000000E+00 -0.76186915051E+02  0.76186915051E+02  0.00000000000E+00 0. -1.
         25    2    1    2    0    0  0.22648213639E+02  0.56695910043E+02  0.73074279918E+02  0.15720428251E+03  0.12508384491E+03 0.  0.
         23    2    1    2    0    0 -0.22648213639E+02 -0.56695910043E+02  0.54974057089E+02  0.12321788459E+03  0.91832087717E+02 0.  0.
          5    1    3    3  502    0 -0.47839425694E+02  0.10322416611E+02  0.62961077385E+01  0.49520463528E+02  0.41800000000E+01 0.  1.
         -5    1    3    3    0  502  0.70487639333E+02  0.46373493432E+02  0.66778172179E+02  0.10768381899E+03  0.41800000000E+01 0.  1.
        -11    1    4    4    0    0 -0.31546663463E+01 -0.47151465066E+02 -0.15297130132E+02  0.49671065701E+02  0.00000000000E+00 0. -1.
         11    1    4    4    0    0 -0.19493547292E+02 -0.95444449775E+01  0.70271187221E+02  0.73546818894E+02  0.00000000000E+00 0.  1.
</event>
<event>
 8    1  0.6840084E-009  0.1206923E+03  0.7561462E-02  0.1241959E+00
         -2   -1    0    0    0  501 -0.00000000000E+00  0.00000000000E+00  0.24471134825E+03  0.24471134825E+03  0.00000000000E+00 0.  1.
          2   -1    0    0  501    0  0.00000000000E+00 -0.00000000000E+00 -0.66615204837E+02  0.66615204837E+02  0.00000000000E+00 0. -1.
         25    2    1    2    0    0 -0.15906100327E+02 -0.58567650947E+02  0.13801874291E+03  0.19590456362E+03  0.12508497467E+03 0.  0.
         23    2    1    2    0    0  0.15906100327E+02  0.58567650947E+02  0.40077400499E+02  0.11542198947E+03  0.89626245355E+02 0.  0.
          5    1    3    3  502    0 -0.67667725638E+02 -0.13987013460E+02  0.55703464074E+02  0.88853283273E+02  0.41800000000E+01 0.  1.
         -5    1    3    3    0  502  0.51761625311E+02 -0.44580637488E+02  0.82315278841E+02  0.10705128035E+03  0.41800000000E+01 0.  1.
        -11    1    4    4    0    0 -0.10375749786E+02  0.73001061281E+02  0.42897462585E+02  0.85305354040E+02  0.00000000000E+00 0.  1.
         11    1    4    4    0    0  0.26281850113E+02 -0.14433410333E+02 -0.28200620852E+01  0.30116635426E+02  0.00000000000E+00 0. -1.
</event>
<event>
 8    1  0.6840084E-009  0.8910690E+02  0.7561462E-02  0.1305029E+00
          1   -1    0    0  501    0  0.00000000000E+00  0.00000000000E+00  0.24720312581E+03  0.24720312581E+03  0.00000000000E+00 0. -1.
         -1   -1    0    0    0  501 -0.00000000000E+00 -0.00000000000E+00 -0.48007971264E+02  0.48007971264E+02  0.00000000000E+00 0.  1.
         25    2    1    2    0    0 -0.39693993866E+01  0.14029759774E+02  0.12940512375E+03  0.18057257521E+03  0.12509267994E+03 0.  0.
         23    2    1    2    0    0  0.39693993866E+01 -0.14029759774E+02  0.69790030793E+02  0.11463852186E+03  0.89770551992E+02 0.  0.
          5    1    3    3  502    0  0.52840428190E+02 -0.22604656056E+02  0.68227106832E+02  0.89305609193E+02  0.41800000000E+01 0.  1.
         -5    1    3    3    0  502 -0.56809827576E+02  0.36634415830E+02  0.61178016919E+02  0.91266966020E+02  0.41800000000E+01 0.  1.
        -11    1    4    4    0    0 -0.21500821740E+02  0.37168418638E+01  0.79239721430E+02  0.82189012046E+02  0.00000000000E+00 0. -1.
         11    1    4    4    0    0  0.25470221127E+02 -0.17746601638E+02 -0.94496906364E+01  0.32449509812E+02  0.00000000000E+00 0.  1.
</event>
<event>
 8    1  0.6840084E-009  0.2449203E+03  0.7561462E-02  0.1116558E+00
         -2   -1    0    0    0  501 -0.00000000000E+00  0.00000000000E+00  0.11659611116E+03  0.11659611116E+03  0.00000000000E+00 0.  1.
          2   -1    0    0  501    0  0.00000000000E+00 -0.00000000000E+00 -0.59779235147E+03  0.59779235147E+03  0.00000000000E+00 0. -1.
         25    2    1    2    0    0  0.23843380255E+03 -0.25711480595E+02 -0.20388899234E+03  0.33872048322E+03  0.12509630739E+03 0.  0.
         23    2    1    2    0    0 -0.23843380255E+03  0.25711480595E+02 -0.27730724796E+03  0.37566797941E+03  0.81947315677E+02 0.  0.
          5    1    3    3  502    0  0.20941002866E+03 -0.16752071821E+00 -0.10888143444E+03  0.23606191419E+03  0.41800000000E+01 0.  1.
         -5    1    3    3    0  502  0.29023773894E+02 -0.25543959877E+02 -0.95007557905E+02  0.10265856903E+03  0.41800000000E+01 0.  1.
        -11    1    4    4    0    0 -0.45162776140E+02  0.16250338583E+02 -0.10942578378E+03  0.11948954770E+03  0.00000000000E+00 0.  1.
         11    1    4    4    0    0 -0.19327102641E+03  0.94611420121E+01 -0.16788146418E+03  0.25617843171E+03  0.00000000000E+00 0. -1.
</event>
<event>
 8    1  0.6840084E-009  0.6732044E+02  0.7561462E-02  0.1369450E+00
         -1   -1    0    0    0  501 -0.00000000000E+00  0.00000000000E+00  0.20715214053E+03  0.20715214053E+03  0.00000000000E+00 0.  1.
          1   -1    0    0  501    0  0.00000000000E+00 -0.00000000000E+00 -0.99210590699E+02  0.99210590699E+02  0.00000000000E+00 0. -1.
         25    2    1    2    0    0  0.41004802574E+02  0.42082258348E+02 -0.18668776240E+02  0.13945691614E+03  0.12508955972E+03 0.  0.
         23    2    1    2    0    0 -0.41004802574E+02 -0.42082258348E+02  0.12661032607E+03  0.16690581509E+03  0.91515387459E+02 0.  0.
          5    1    3    3  502    0  0.26909361345E+02  0.37480546970E+02 -0.71070578678E+02  0.84837519311E+02  0.41800000000E+01 0. -1.
         -5    1    3    3    0  502  0.14095441229E+02  0.46017113780E+01  0.52401802439E+02  0.54619396828E+02  0.41800000000E+01 0. -1.
        -11    1    4    4    0    0 -0.45566936306E+02 -0.18986415020E+02  0.13353433878E+03  0.14236660167E+03  0.00000000000E+00 0.  1.
         11    1    4    4    0    0  0.45621337324E+01 -0.23095843328E+02 -0.69240127048E+01  0.24539213418E+02  0.00000000000E+00 0. -1.
</event>
<event>
 8    1  0.6840084E-009  0.8723123E+02  0.7561462E-02  0.1309699E+00
          1   -1    0    0  501    0  0.00000000000E+00  0.00000000000E+00  0.36959092538E+03  0.36959092538E+03  0.00000000000E+00 0. -1.
         -1   -1    0    0    0  501 -0.00000000000E+00 -0.00000000000E+00 -0.37577334654E+02  0.37577334654E+02  0.00000000000E+00 0.  1.
         25    2    1    2    0    0 -0.91117757933E+01 -0.10852236937E+01  0.26466468788E+03  0.29288067011E+03  0.12508991864E+03 0.  0.
         23    2    1    2    0    0  0.91117757933E+01  0.10852236937E+01  0.67348902850E+02  0.11428758993E+03  0.91878051393E+02 0.  0.
          5    1    3    3  502    0  0.12538752492E+02  0.39415355109E+02  0.23362063025E+03  0.23729066946E+03  0.41800000000E+01 0.  1.
         -5    1    3    3    0  502 -0.21650528286E+02 -0.40500578803E+02  0.31044057625E+02  0.55590000650E+02  0.41800000000E+01 0.  1.
        -11    1    4    4    0    0 -0.30389540273E+02  0.26067229290E+02  0.11900918307E+02  0.41769084948E+02  0.00000000000E+00 0.  1.
         11    1    4    4    0    0  0.39501316066E+02 -0.24982005596E+02  0.55447984543E+02  0.72518504980E+02  0.00000000000E+00 0. -1.
</event>
<event>
 8    1  0.6840084E-009  0.1179643E+03  0.7561462E-02  0.1246494E+00
         -2   -1    0    0    0  501 -0.00000000000E+00  0.00000000000E+00  0.23577970764E+02  0.23577970764E+02  0.00000000000E+00 0.  1.
          2   -1    0    0  501    0  0.00000000000E+00 -0.00000000000E+00 -0.82854842794E+03  0.82854842794E+03  0.00000000000E+00 0. -1.
         25    2    1    2    0    0 -0.58586330780E+02 -0.66712041980E+02 -0.42983697527E+03  0.45638897496E+03  0.12509283135E+03 0.  0.
         23    2    1    2    0    0  0.58586330780E+02  0.66712041980E+02 -0.37513348191E+03  0.39573742375E+03  0.89443415669E+02 0.  0.
          5    1    3    3  502    0  0.21901809918E+02 -0.23072890186E+02 -0.23312834858E+02  0.39661167511E+02  0.41800000000E+01 0. -1.
         -5    1    3    3    0  502 -0.80488140698E+02 -0.43639151794E+02 -0.40652414041E+03  0.41672780745E+03  0.41800000000E+01 0. -1.
        -11    1    4    4    0    0 -0.33677386857E+01  0.47079233956E+02 -0.74755847567E+02  0.88409460349E+02  0.00000000000E+00 0.  1.
         11    1    4    4    0    0  0.61954069466E+02  0.19632808024E+02 -0.30037763434E+03  0.30732796340E+03  0.00000000000E+00 0. -1.
</event>
<event>
 8    1  0.6840084E-009  0.1732831E+03  0.7561462E-02  0.1174467E+00
         -4   -1    0    0    0  501 -0.00000000000E+00  0.00000000000E+00  0.14016503760E+03  0.14016503760E+03  0.00000000000E+00 0.  1.
          4   -1    0    0  501    0  0.00000000000E+00 -0.00000000000E+00 -0.27517977299E+03  0.27517977299E+03  0.00000000000E+00 0. -1.
         25    2    1    2    0    0  0.69575013329E+02  0.13551637478E+03 -0.13453399607E+03  0.23864607057E+03  0.12508869089E+03 0.  0.
         23    2    1    2    0    0 -0.69575013329E+02 -0.13551637478E+03 -0.48073931916E+00  0.17669874001E+03  0.89536826492E+02 0.  0.
          5    1    3    3  502    0  0.65857432613E+02  0.15754205093E+03 -0.10193941718E+03  0.19891157939E+03  0.41800000000E+01 0.  1.
         -5    1    3    3    0  502  0.37175807161E+01 -0.22025676153E+02 -0.32594578890E+02  0.39734491181E+02  0.41800000000E+01 0.  1.
        -11    1    4    4    0    0 -0.18750763180E+02 -0.51928722284E+02  0.42670671353E+02  0.69778001631E+02  0.00000000000E+00 0.  1.
         11    1    4    4    0    0 -0.50824250149E+02 -0.83587652492E+02 -0.43151410672E+02  0.10692073838E+03  0.00000000000E+00 0. -1.
</event>
<event>
 8    1  0.6840084E-009  0.8976847E+02  0.7561462E-02  0.1303413E+00
         -3   -1    0    0    0  501 -0.00000000000E+00  0.00000000000E+00  0.33440769706E+03  0.33440769706E+03  0.00000000000E+00 0.  1.
          3   -1    0    0  501    0  0.00000000000E+00 -0.00000000000E+00 -0.38193058499E+02  0.38193058499E+02  0.00000000000E+00 0. -1.
         25    2    1    2    0    0 -0.28960565712E+02  0.26290339659E+01  0.17642262424E+03  0.21822566750E+03  0.12510744753E+03 0.  0.
         23    2    1    2    0    0  0.28960565712E+02 -0.26290339659E+01  0.11979201432E+03  0.15437508806E+03  0.92929623539E+02 0.  0.
          5    1    3    3  502    0 -0.67813480483E+01  0.58188350378E+02  0.12910949210E+03  0.14184006539E+03  0.41800000000E+01 0. -1.
         -5    1    3    3    0  502 -0.22179217664E+02 -0.55559316413E+02  0.47313132140E+02  0.76385602107E+02  0.41800000000E+01 0. -1.
        -11    1    4    4    0    0  0.36927643905E+02  0.16250804643E+02  0.85240802781E+01  0.41235900384E+02  0.00000000000E+00 0. -1.
         11    1    4    4    0    0 -0.79670781925E+01 -0.18879838608E+02  0.11126793404E+03  0.11313918767E+03  0.00000000000E+00 0.  1.
</event>
<event>
 8    1  0.6840084E-009  0.1155925E+03  0.7561462E-02  0.1250550E+00
         -2   -1    0    0    0  501 -0.00000000000E+00  0.00000000000E+00  0.15831003339E+02  0.15831003339E+02  0.00000000000E+00 0. -1.
          2   -1    0    0  501    0  0.00000000000E+00 -0.00000000000E+00 -0.12594923769E+04  0.12594923769E+04  0.00000000000E+00 0.  1.
         25    2    1    2    0    0  0.20212681545E+02 -0.47652658203E+02 -0.10072771726E+04  0.10163329177E+04  0.12508384717E+03 0.  0.
         23    2    1    2    0    0 -0.20212681545E+02  0.47652658203E+02 -0.23638420098E+03  0.25899046257E+03  0.92299733999E+02 0.  0.
          5    1    3    3  502    0  0.46413752693E+02 -0.78465956334E+02 -0.79278596616E+03  0.79802143034E+03  0.41800000000E+01 0. -1.
         -5    1    3    3    0  502 -0.26201071147E+02  0.30813298131E+02 -0.21449120639E+03  0.21831148731E+03  0.41800000000E+01 0. -1.
        -11    1    4    4    0    0 -0.29859474580E+02 -0.16684721328E+02 -0.12881134508E+03  0.13327539446E+03  0.00000000000E+00 0.  1.
         11    1    4    4    0    0  0.96467930346E+01  0.64337379532E+02 -0.10757285590E+03  0.12571506810E+03  0.00000000000E+00 0. -1.
</event>
<event>
 8    1  0.6840084E-009  0.1492820E+03  0.7561462E-02  0.1201358E+00
          1   -1    0    0  501    0  0.00000000000E+00  0.00000000000E+00  0.13316811864E+03  0.13316811864E+03  0.00000000000E+00 0. -1.
         -1   -1    0    0    0  501 -0.00000000000E+00 -0.00000000000E+00 -0.20524958034E+03  0.20524958034E+03  0.00000000000E+00 0.  1.
         25    2    1    2    0    0 -0.18285754236E+02 -0.12074544290E+03 -0.15694162841E+02  0.17552096371E+03  0.12508985237E+03 0.  0.
         23    2    1    2    0    0  0.18285754236E+02  0.12074544290E+03 -0.56387298850E+02  0.16289673527E+03  0.91880292240E+02 0.  0.
          5    1    3    3  502    0  0.50853577208E+02 -0.77657984797E+02 -0.30320163549E+01  0.92970503068E+02  0.41800000000E+01 0. -1.
         -5    1    3    3    0  502 -0.69139331444E+02 -0.43087458101E+02 -0.12662146486E+02  0.82550460639E+02  0.41800000000E+01 0. -1.
        -11    1    4    4    0    0  0.22480179623E+02  0.79687373396E+02 -0.80180485831E+02  0.11525773841E+03  0.00000000000E+00 0. -1.
         11    1    4    4    0    0 -0.41944253872E+01  0.41058069502E+02  0.23793186981E+02  0.47638996865E+02  0.00000000000E+00 0.  1.
</event>
<event>
 8    1  0.6840084E-009  0.9624640E+02  0.7561462E-02  0.1288393E+00
          2   -1    0    0  501    0  0.00000000000E+00  0.00000000000E+00  0.55043710908E+03  0.55043710908E+03  0.00000000000E+00 0. -1.
         -2   -1    0    0    0  501 -0.00000000000E+00 -0.00000000000E+00 -0.23674024838E+02  0.23674024838E+02  0.00000000000E+00 0.  1.
         25    2    1    2    0    0 -0.28121972945E+02 -0.13809425120E+02  0.30091482912E+03  0.32738381095E+03  0.12509548235E+03 0.  0.
         23    2    1    2    0    0  0.28121972945E+02  0.13809425120E+02  0.22584825513E+03  0.24672732297E+03  0.94262357134E+02 0.  0.
          5    1    3    3  502    0 -0.33599133573E+02  0.35856565301E+02  0.25391066973E+03  0.25865555408E+03  0.41800000000E+01 0.  1.
         -5    1    3    3    0  502  0.54771606275E+01 -0.49665990420E+02  0.47004159387E+02  0.68728256872E+02  0.41800000000E+01 0.  1.
        -11    1    4    4    0    0  0.55702117288E+02  0.27638602891E+02  0.10526296005E+03  0.12225755191E+03  0.00000000000E+00 0.  1.
         11    1    4    4    0    0 -0.27580144342E+02 -0.13829177772E+02  0.12058529508E+03  0.12446977106E+03  0.00000000000E+00 0. -1.
</event>
<event>
 8    1  0.6840084E-009  0.2037212E+03  0.7561462E-02  0.1146637E+00
         -1   -1    0    0    0  501 -0.00000000000E+00  0.00000000000E+00  0.52875802902E+02  0.52875802902E+02  0.00000000000E+00 0.  1.
          1   -1    0    0  501    0  0.00000000000E+00 -0.00000000000E+00 -0.11303712768E+04  0.11303712768E+04  0.00000000000E+00 0. -1.
         25    2    1    2    0    0 -0.83112064920E+02 -0.16055261530E+03 -0.25638897485E+03  0.33773897912E+03  0.12509018338E+03 0.  0.
         23    2    1    2    0    0  0.83112064920E+02  0.16055261530E+03 -0.82110649905E+03  0.84550810059E+03  0.89349357883E+02 0.  0.
          5    1    3    3  502    0 -0.10623421993E+03 -0.13610121775E+03 -0.15950902431E+03  0.23509541083E+03  0.41800000000E+01 0.  1.
         -5    1    3    3    0  502  0.23122155013E+02 -0.24451397552E+02 -0.96879950541E+02  0.10264356829E+03  0.41800000000E+01 0.  1.
        -11    1    4    4    0    0  0.90821354447E+02  0.83446149170E+02 -0.54095335773E+03  0.55483539313E+03  0.00000000000E+00 0.  1.
         11    1    4    4    0    0 -0.77092895273E+01  0.77106466131E+02 -0.28015314132E+03  0.29067270745E+03  0.00000000000E+00 0. -1.
</event>
<event>
 8    1  0.6840084E-009  0.2061658E+03  0.7561462E-02  0.1144639E+00
         -2   -1    0    0    0  501 -0.00000000000E+00  0.00000000000E+00  0.89665166508E+02  0.89665166508E+02  0.00000000000E+00 0.  1.
          2   -1    0    0  501    0  0.00000000000E+00 -0.00000000000E+00 -0.54260691751E+03  0.54260691751E+03  0.00000000000E+00 0. -1.
         25    2    1    2    0    0  0.18440918352E+03 -0.20879524829E+02 -0.31142898788E+03  0.38350732823E+03  0.12508858776E+03 0.  0.
         23    2    1    2    0    0 -0.18440918352E+03  0.20879524829E+02 -0.14151276312E+03  0.24876475579E+03  0.86112368880E+02 0.  0.
          5    1    3    3  502    0 -0.15110319109E+02  0.13146669078E+02 -0.39632656199E+02  0.44602426938E+02  0.41800000000E+01 0. -1.
         -5    1    3    3    0  502  0.19951950263E+03 -0.34026193908E+02 -0.27179633168E+03  0.33890490129E+03  0.41800000000E+01 0. -1.
        -11    1    4    4    0    0 -0.15694834204E+03  0.31331679796E+02 -0.76433547078E+02  0.17735992599E+03  0.00000000000E+00 0.  1.
         11    1    4    4    0    0 -0.27460841480E+02 -0.10452154967E+02 -0.65079216044E+02  0.71404829803E+02  0.00000000000E+00 0. -1.
</event>
<event>
 8    1  0.6840084E-009  0.1281745E+03  0.7561462E-02  0.1230190E+00
         -1   -1    0    0    0  501 -0.00000000000E+00  0.00000000000E+00  0.77660414462E+02  0.77660414462E+02  0.00000000000E+00 0.  1.
          1   -1    0    0  501    0  0.00000000000E+00 -0.00000000000E+00 -0.27634323458E+03  0.27634323458E+03  0.00000000000E+00 0. -1.
         25    2    1    2    0    0 -0.49119036241E+02  0.86633871249E+02 -0.12923905962E+03  0.20558883915E+03  0.12508368753E+03 0.  0.
         23    2    1    2    0    0  0.49119036241E+02 -0.86633871249E+02 -0.69443760497E+02  0.14841480988E+03  0.85360485894E+02 0.  0.
          5    1    3    3  502    0  0.32237196530E+02 -0.51208691884E+01 -0.48848316501E+02  0.58898986123E+02  0.41800000000E+01 0.  1.
         -5    1    3    3    0  502 -0.81356232771E+02  0.91754740437E+02 -0.80390743115E+02  0.14668985303E+03  0.41800000000E+01 0.  1.
        -11    1    4    4    0    0  0.13675565905E+01 -0.12401029998E+02 -0.58099233279E+02  0.59423704560E+02  0.00000000000E+00 0. -1.
         11    1    4    4    0    0  0.47751479651E+02 -0.74232841250E+02 -0.11344527219E+02  0.88991105324E+02  0.00000000000E+00 0.  1.
</event>
<event>
 8    1  0.6840084E-009  0.9711613E+02  0.7561462E-02  0.1286480E+00
          2   -1    0    0  501    0  0.00000000000E+00  0.00000000000E+00  0.30348941150E+03  0.30348941150E+03  0.00000000000E+00 0. -1.
         -2   -1    0    0    0  501 -0.00000000000E+00 -0.00000000000E+00 -0.66004546395E+02  0.66004546395E+02  0.00000000000E+00 0.  1.
         25    2    1    2    0    0 -0.19736736279E+02  0.12187682497E+02  0.24439460905E+03  0.27552577602E+03  0.12509056701E+03 0.  0.
         23    2    1    2    0    0  0.19736736279E+02 -0.12187682497E+02 -0.69097439543E+01  0.93968181869E+02  0.90797556568E+02 0.  0.
          5    1    3    3  502    0 -0.22619510240E+02 -0.47288843024E+02  0.18085368122E+03  0.18834384335E+03  0.41800000000E+01 0. -1.
         -5    1    3    3    0  502  0.28827739611E+01  0.59476525521E+02  0.63540927835E+02  0.87181932669E+02  0.41800000000E+01 0. -1.
        -11    1    4    4    0    0  0.50121357146E+02 -0.30069348580E+01  0.18291076918E+02  0.53439270151E+02  0.00000000000E+00 0. -1.
         11    1    4    4    0    0 -0.30384620867E+02 -0.91807476386E+01 -0.25200820873E+02  0.40528911718E+02  0.00000000000E+00 0.  1.
</event>
<event>
 8    1  0.6840084E-009  0.8987269E+02  0.7561462E-02  0.1303160E+00
         -1   -1    0    0    0  501 -0.00000000000E+00  0.00000000000E+00  0.14717084204E+03  0.14717084204E+03  0.00000000000E+00 0.  1.
          1   -1    0    0  501    0  0.00000000000E+00 -0.00000000000E+00 -0.12474851662E+03  0.12474851662E+03  0.00000000000E+00 0. -1.
         25    2    1    2    0    0 -0.92445834433E+01 -0.23006422230E+02  0.86772046864E+02  0.15424085559E+03  0.12508435406E+03 0.  0.
         23    2    1    2    0    0  0.92445834433E+01  0.23006422230E+02 -0.64349721452E+02  0.11767850306E+03  0.95355050447E+02 0.  0.
          5    1    3    3  502    0 -0.37349908037E+02 -0.65874669001E+02  0.46974731189E+02  0.89210904135E+02  0.41800000000E+01 0. -1.
         -5    1    3    3    0  502  0.28105324594E+02  0.42868246771E+02  0.39797315675E+02  0.65029951459E+02  0.41800000000E+01 0. -1.
        -11    1    4    4    0    0 -0.11347941973E+02 -0.89528844054E+01  0.20278353689E+02  0.24902641518E+02  0.00000000000E+00 0.  1.
         11    1    4    4    0    0  0.20592525416E+02  0.31959306635E+02 -0.84628075141E+02  0.92775861547E+02  0.00000000000E+00 0. -1.
</event>
<event>
 8    1  0.6840084E-009  0.1409602E+03  0.7561462E-02  0.1212043E+00
          2   -1    0    0  501    0  0.00000000000E+00  0.00000000000E+00  0.80469491770E+03  0.80469491770E+03  0.00000000000E+00 0. -1.
         -2   -1    0    0    0  501 -0.00000000000E+00 -0.00000000000E+00 -0.27239459313E+02  0.27239459313E+02  0.00000000000E+00 0.  1.
         25    2    1    2    0    0 -0.65764997228E+02  0.76362974606E+02  0.41883892215E+03  0.44858619025E+03  0.12508872300E+03 0.  0.
         23    2    1    2    0    0  0.65764997228E+02 -0.76362974606E+02  0.35861653623E+03  0.38334818676E+03  0.90518912290E+02 0.  0.
          5    1    3    3  502    0 -0.82541343831E+02  0.92098048119E+02  0.25895527586E+03  0.28700249338E+03  0.41800000000E+01 0. -1.
         -5    1    3    3    0  502  0.16776346603E+02 -0.15735073514E+02  0.15988364629E+03  0.16158369687E+03  0.41800000000E+01 0. -1.
        -11    1    4    4    0    0  0.28891023080E+02 -0.90734513073E+02  0.26988141915E+03  0.28618774167E+03  0.00000000000E+00 0.  1.
         11    1    4    4    0    0  0.36873974148E+02  0.14371538468E+02  0.88735117079E+02  0.97160445092E+02  0.00000000000E+00 0. -1.
</event>
<event>
 8    1  0.6840084E-009  0.1702406E+03  0.7561462E-02  0.1177597E+00
         -2   -1    0    0    0  501 -0.00000000000E+00  0.00000000000E+00  0.96746740463E+02  0.96746740463E+02  0.00000000000E+00 0.  1.
          2   -1    0    0  501    0  0.00000000000E+00 -0.00000000000E+00 -0.41014066640E+03  0.41014066640E+03  0.00000000000E+00 0. -1.
         25    2    1    2    0    0  0.54386119039E+02  0.13395997644E+03 -0.26074482066E+03  0.32332456030E+03  0.12509110503E+03 0.  0.
         23    2    1    2    0    0 -0.54386119039E+02 -0.13395997644E+03 -0.52649105274E+02  0.18356284656E+03  0.10010127431E+03 0.  0.
          5    1    3    3  502    0  0.79805281034E+02  0.12005491057E+03 -0.14723680395E+03  0.20610243393E+03  0.41800000000E+01 0.  1.
         -5    1    3    3    0  502 -0.25419161995E+02  0.13905065875E+02 -0.11350801671E+03  0.11722212637E+03  0.41800000000E+01 0.  1.
        -11    1    4    4    0    0 -0.63093375514E+02 -0.44747786595E+02 -0.53279249787E+02  0.93924527664E+02  0.00000000000E+00 0.  1.
         11    1    4    4    0    0  0.87072564759E+01 -0.89212189849E+02  0.63014451302E+00  0.89638318899E+02  0.00000000000E+00 0. -1.
</event>
<event>
 8    1  0.6840084E-009  0.9577563E+02  0.7561462E-02  0.1289439E+00
          4   -1    0    0  501    0  0.00000000000E+00  0.00000000000E+00  0.18483663600E+03  0.18483663600E+03  0.00000000000E+00 0. -1.
         -4   -1    0    0    0  501 -0.00000000000E+00 -0.00000000000E+00 -0.74963579411E+02  0.74963579411E+02  0.00000000000E+00 0.  1.
         25    2    1    2    0    0  0.29001376414E+02 -0.29024030416E+02  0.88564365974E+02  0.15866443074E+03  0.12508909020E+03 0.  0.
         23    2    1    2    0    0 -0.29001376414E+02  0.29024030416E+02  0.21308690617E+02  0.10113578467E+03  0.89949499555E+02 0.  0.
          5    1    3    3  502    0  0.78193551143E+02 -0.11837457027E+02  0.49310732344E+02  0.93291894361E+02  0.41800000000E+01 0. -1.
         -5    1    3    3    0  502 -0.49192174729E+02 -0.17186573390E+02  0.39253633630E+02  0.65372536379E+02  0.41800000000E+01 0. -1.
        -11    1    4    4    0    0 -0.40487503450E+02  0.18543863746E+02  0.50947193097E+02  0.67666308476E+02  0.00000000000E+00 0. -1.
         11    1    4    4    0    0  0.11486127036E+02  0.10480166670E+02 -0.29638502480E+02  0.33469476198E+02  0.00000000000E+00 0.  1.
</event>
<event>
 8    1  0.6840084E-009  0.8825375E+02  0.7561462E-02  0.1307136E+00
          1   -1    0    0  501    0  0.00000000000E+00  0.00000000000E+00  0.48508641048E+03  0.48508641048E+03  0.00000000000E+00 0. -1.
         -1   -1    0    0    0  501 -0.00000000000E+00 -0.00000000000E+00 -0.29872380018E+02  0.29872380018E+02  0.00000000000E+00 0.  1.
         25    2    1    2    0    0 -0.12879708249E+02  0.50209718816E+02  0.24743767141E+03  0.28206412338E+03  0.12509142943E+03 0.  0.
         23    2    1    2    0    0  0.12879708249E+02 -0.50209718816E+02  0.20777635906E+03  0.23289466712E+03  0.91553306024E+02 0.  0.
          5    1    3    3  502    0  0.19067035031E+02  0.32098063040E+02  0.24177003527E+03  0.24467133021E+03  0.41800000000E+01 0. -1.
         -5    1    3    3    0  502 -0.31946743280E+02  0.18111655775E+02  0.56676361433E+01  0.37392793164E+02  0.41800000000E+01 0. -1.
        -11    1    4    4    0    0 -0.32590223912E+02  0.21145354505E+01  0.95633979557E+02  0.10105667717E+03  0.00000000000E+00 0. -1.
         11    1    4    4    0    0  0.45469932161E+02 -0.52324254266E+02  0.11214237950E+03  0.13183798995E+03  0.00000000000E+00 0.  1.
</event>
<event>
 8    1  0.6840084E-009  0.1042081E+03  0.7561462E-02  0.1271688E+00
          1   -1    0    0  501    0  0.00000000000E+00  0.00000000000E+00  0.89710059818E+03  0.89710059818E+03  0.00000000000E+00 0. -1.
         -1   -1    0    0    0  501 -0.00000000000E+00 -0.00000000000E+00 -0.15702813788E+02  0.15702813788E+02  0.00000000000E+00 0.  1.
         25    2    1    2    0    0 -0.30607736824E+02  0.12621347311E+01  0.62879842382E+03  0.64185262082E+03  0.12509557350E+03 0.  0.
         23    2    1    2    0    0  0.30607736824E+02 -0.12621347311E+01  0.25259936057E+03  0.27095079115E+03  0.93109976524E+02 0.  0.
          5    1    3    3  502    0  0.44907963409E+02  0.48583716526E+01  0.13843394598E+03  0.14567689849E+03  0.41800000000E+01 0. -1.
         -5    1    3    3    0  502 -0.75515700233E+02 -0.35962369215E+01  0.49036447784E+03  0.49617572233E+03  0.41800000000E+01 0. -1.
        -11    1    4    4    0    0  0.46597828649E+02 -0.29311053543E+02  0.92611170670E+02  0.10773729358E+03  0.00000000000E+00 0.  1.
         11    1    4    4    0    0 -0.15990091825E+02  0.28048918812E+02  0.15998818990E+03  0.16321349758E+03  0.00000000000E+00 0. -1.
</event>
<event>
 8    1  0.6840084E-009  0.1279545E+03  0.7561462E-02  0.1230523E+00
          2   -1    0    0  501    0  0.00000000000E+00  0.00000000000E+00  0.11119490485E+03  0.11119490485E+03  0.00000000000E+00 0. -1.
         -2   -1    0    0    0  501 -0.00000000000E+00 -0.00000000000E+00 -0.18069652501E+03  0.18069652501E+03  0.00000000000E+00 0.  1.
         25    2    1    2    0    0  0.25952145531E+02  0.90920503884E+02 -0.28046202272E+02  0.15929071085E+03  0.12508752623E+03 0.  0.
         23    2    1    2    0    0 -0.25952145531E+02 -0.90920503884E+02 -0.41455417890E+02  0.13260071900E+03  0.83212662039E+02 0.  0.
          5    1    3    3  502    0 -0.17681044796E+02  0.10809859476E+03 -0.16893430437E+02  0.11090890824E+03  0.41800000000E+01 0. -1.
         -5    1    3    3    0  502  0.43633190328E+02 -0.17178090878E+02 -0.11152771835E+02  0.48381802612E+02  0.41800000000E+01 0. -1.
        -11    1    4    4    0    0 -0.22730011177E+02 -0.27345595595E+02 -0.56900100492E+02  0.67097365392E+02  0.00000000000E+00 0.  1.
         11    1    4    4    0    0 -0.32221343550E+01 -0.63574908288E+02  0.15444682602E+02  0.65503353611E+02  0.00000000000E+00 0. -1.
</event>
<event>
 8    1  0.6840084E-009  0.1802871E+03  0.7561462E-02  0.1167525E+00
          1   -1    0    0  501    0  0.00000000000E+00  0.00000000000E+00  0.12923899103E+03  0.12923899103E+03  0.00000000000E+00 0. -1.
         -1   -1    0    0    0  501 -0.00000000000E+00 -0.00000000000E+00 -0.38073009354E+03  0.38073009354E+03  0.00000000000E+00 0.  1.
         25    2    1    2    0    0 -0.11036819068E+03  0.11391754465E+03 -0.35557435583E+01  0.20203870554E+03  0.12509456715E+03 0.  0.
         23    2    1    2    0    0  0.11036819068E+03 -0.11391754465E+03 -0.24793535895E+03  0.30793037904E+03  0.90503213338E+02 0.  0.
          5    1    3    3  502    0  0.23280200312E+02  0.13229821724E+01  0.11976269392E+02  0.26544706383E+02  0.41800000000E+01 0. -1.
         -5    1    3    3    0  502 -0.13364839099E+03  0.11259456247E+03 -0.15532012951E+02  0.17549399915E+03  0.41800000000E+01 0. -1.
        -11    1    4    4    0    0  0.50821731797E+02 -0.76198667300E+02 -0.66220273760E+02  0.11302305065E+03  0.00000000000E+00 0.  1.
         11    1    4    4    0    0  0.59546458879E+02 -0.37718877345E+02 -0.18171508519E+03  0.19490732839E+03  0.00000000000E+00 0. -1.
</event>
<event>
 8    1  0.6840084E-009  0.4477252E+03  0.7561462E-02  0.1028403E+00
          2   -1    0    0  501    0  0.00000000000E+00  0.00000000000E+00  0.45343821321E+03  0.45343821321E+03  0.00000000000E+00 0. -1.
         -2   -1    0    0    0  501 -0.00000000000E+00 -0.00000000000E+00 -0.44820815555E+03  0.44820815555E+03  0.00000000000E+00 0.  1.
         25    2    1    2    0    0  0.25028874314E+03  0.35657174922E+03 -0.27452229497E+02  0.45408104549E+03  0.12509238062E+03 0.  0.
         23    2    1    2    0    0 -0.25028874314E+03 -0.35657174922E+03  0.32682287161E+02  0.44756532326E+03  0.97255947940E+02 0.  0.
          5    1    3    3  502    0  0.25609616451E+03  0.31069794290E+03 -0.43392474010E+02  0.40499239055E+03  0.41800000000E+01 0.  1.
         -5    1    3    3    0  502 -0.58074213759E+01  0.45873806321E+02  0.15940244512E+02  0.49088654948E+02  0.41800000000E+01 0.  1.
        -11    1    4    4    0    0 -0.10850060760E+03 -0.23786148905E+03  0.17694650437E+02  0.26203734558E+03  0.00000000000E+00 0.  1.
         11    1    4    4    0    0 -0.14178813554E+03 -0.11871026017E+03  0.14987636724E+02  0.18552797768E+03  0.00000000000E+00 0. -1.
</event>
<event>
 8    1  0.6840084E-009  0.9946513E+02  0.7561462E-02  0.1281425E+00
         -1   -1    0    0    0  501 -0.00000000000E+00  0.00000000000E+00  0.17005728551E+03  0.17005728551E+03  0.00000000000E+00 0. -1.
          1   -1    0    0  501    0  0.00000000000E+00 -0.00000000000E+00 -0.94188108027E+02  0.94188108027E+02  0.00000000000E+00 0.  1.
         25    2    1    2    0    0 -0.62725192878E+02  0.71594125546E+01  0.22158260887E+02  0.14186366585E+03  0.12509438098E+03 0.  0.
         23    2    1    2    0    0  0.62725192878E+02 -0.71594125546E+01  0.53710916600E+02  0.12238172769E+03  0.90037312828E+02 0.  0.
          5    1    3    3  502    0 -0.54677298193E+02 -0.47734783321E+02 -0.15942431886E+02  0.74430168687E+02  0.41800000000E+01 0.  1.
         -5    1    3    3    0  502 -0.80478946852E+01  0.54894195876E+02  0.38100692773E+02  0.67433497162E+02  0.41800000000E+01 0.  1.
        -11    1    4    4    0    0  0.51673809037E+02 -0.18375093607E+02  0.76838316123E+02  0.94403143115E+02  0.00000000000E+00 0. -1.
         11    1    4    4    0    0  0.11051383841E+02  0.11215681053E+02 -0.23127399523E+02  0.27978584577E+02  0.00000000000E+00 0.  1.
</event>
<event>
 8    1  0.6840084E-009  0.1118978E+03  0.7561462E-02  0.1257095E+00
          2   -1    0    0  501    0  0.00000000000E+00  0.00000000000E+00  0.30486432603E+03  0.30486432603E+03  0.00000000000E+00 0.  1.
         -2   -1    0    0    0  501 -0.00000000000E+00 -0.00000000000E+00 -0.47006669555E+02  0.47006669555E+02  0.00000000000E+00 0. -1.
         25    2    1    2    0    0 -0.37365455967E+02 -0.49017347070E+01  0.13016027881E+03  0.18441643487E+03  0.12509004345E+03 0.  0.
         23    2    1    2    0    0  0.37365455967E+02  0.49017347070E+01  0.12769737766E+03  0.16745456071E+03  0.10155887621E+03 0.  0.
          5    1    3    3  502    0 -0.47391251221E+02 -0.50371687484E+02  0.11678393724E+03  0.13579100850E+03  0.41800000000E+01 0. -1.
         -5    1    3    3    0  502  0.10025795254E+02  0.45469952777E+02  0.13376341567E+02  0.48625426371E+02  0.41800000000E+01 0. -1.
        -11    1    4    4    0    0  0.26928983759E+02 -0.47351820419E+02  0.73095300097E+02  0.91160780819E+02  0.00000000000E+00 0. -1.
         11    1    4    4    0    0  0.10436472208E+02  0.52253555126E+02  0.54602077568E+02  0.76293779891E+02  0.00000000000E+00 0.  1.
</event>
<event>
 8    1  0.6840084E-009  0.2767401E+03  0.7561462E-02  0.1097483E+00
         -1   -1    0    0    0  501 -0.00000000000E+00  0.00000000000E+00  0.44856886638E+02  0.44856886638E+02  0.00000000000E+00 0.  1.
          1   -1    0    0  501    0  0.00000000000E+00 -0.00000000000E+00 -0.19095866629E+04  0.19095866629E+04  0.00000000000E+00 0. -1.
         25    2    1    2    0    0  0.23302784482E+03  0.13567271897E+03 -0.10627370580E+04  0.11035248729E+04  0.12509207571E+03 0.  0.
         23    2    1    2    0    0 -0.23302784482E+03 -0.13567271897E+03 -0.80199271819E+03  0.85091867662E+03  0.90339421429E+02 0.  0.
          5    1    3    3  502    0  0.78213360307E+02  0.12776388926E+02 -0.51748656885E+03  0.52353642393E+03  0.41800000000E+01 0.  1.
         -5    1    3    3    0  502  0.15481448451E+03  0.12289633004E+03 -0.54525048920E+03  0.57998844896E+03  0.41800000000E+01 0.  1.
        -11    1    4    4    0    0 -0.62330727082E+02 -0.69450734032E+02 -0.37283127387E+03  0.38433277608E+03  0.00000000000E+00 0.  1.
         11    1    4    4    0    0 -0.17069711774E+03 -0.66221984938E+02 -0.42916144432E+03  0.46658590054E+03  0.00000000000E+00 0. -1.
</event>
<event>
 8    1  0.6840084E-009  0.1102946E+03  0.7561462E-02  0.1260025E+00
         -1   -1    0    0    0  501 -0.00000000000E+00  0.00000000000E+00  0.40718406155E+02  0.40718406155E+02  0.00000000000E+00 0.  1.
          1   -1    0    0  501    0  0.00000000000E+00 -0.00000000000E+00 -0.62193949318E+03  0.62193949318E+03  0.00000000000E+00 0. -1.
         25    2    1    2    0    0  0.55965370750E+02 -0.71991219711E+02 -0.46056686895E+03  0.48588512606E+03  0.12509059324E+03 0.  0.
         23    2    1    2    0    0 -0.55965370750E+02  0.71991219711E+02 -0.12065421808E+03  0.17677277328E+03  0.91522208194E+02 0.  0.
          5    1    3    3  502    0  0.61425277925E+02 -0.52565567494E+02 -0.12034625221E+03  0.14504101652E+03  0.41800000000E+01 0.  1.
         -5    1    3    3    0  502 -0.54599071746E+01 -0.19425652217E+02 -0.34022061674E+03  0.34084410953E+03  0.41800000000E+01 0.  1.
        -11    1    4    4    0    0  0.14678952514E+02  0.37787810401E+02 -0.76852638960E+02  0.86889115411E+02  0.00000000000E+00 0. -1.
         11    1    4    4    0    0 -0.70644323264E+02  0.34203409310E+02 -0.43801579119E+02  0.89883657865E+02  0.00000000000E+00 0.  1.
</event>
<event>
 8    1  0.6840084E-009  0.6021210E+02  0.7561462E-02  0.1396944E+00
          1   -1    0    0  501    0  0.00000000000E+00  0.00000000000E+00  0.38349235800E+03  0.38349235800E+03  0.00000000000E+00 0. -1.
         -1   -1    0    0    0  501 -0.00000000000E+00 -0.00000000000E+00 -0.50910188236E+02  0.50910188236E+02  0.00000000000E+00 0.  1.
         25    2    1    2    0    0  0.36799599548E+02 -0.72067665137E+01  0.30184832079E+03  0.32888465266E+03  0.12508620221E+03 0.  0.
         23    2    1    2    0    0 -0.36799599548E+02  0.72067665137E+01  0.30733848971E+02  0.10551789357E+03  0.93719306336E+02 0.  0.
          5    1    3    3  502    0  0.33344466681E+02 -0.14152116403E+02  0.11259996418E+02  0.38162753783E+02  0.41800000000E+01 0.  1.
         -5    1    3    3    0  502  0.34551328665E+01  0.69453498892E+01  0.29058832437E+03  0.29072189888E+03  0.41800000000E+01 0.  1.
        -11    1    4    4    0    0 -0.27347265142E+02  0.35790465365E+02  0.51896972065E+02  0.68717727198E+02  0.00000000000E+00 0. -1.
         11    1    4    4    0    0 -0.94523344063E+01 -0.28583698851E+02 -0.21163123095E+02  0.36800166370E+02  0.00000000000E+00 0.  1.
</event>
<event>
 8    1  0.6840084E-009  0.9987467E+02  0.7561462E-02  0.1280560E+00
         -2   -1    0    0    0  501 -0.00000000000E+00  0.00000000000E+00  0.23346328059E+02  0.23346328059E+02  0.00000000000E+00 0.  1.
          2   -1    0    0  501    0  0.00000000000E+00 -0.00000000000E+00 -0.16092197015E+04  0.16092197015E+04  0.00000000000E+00 0. -1.
         25    2    1    2    0    0  0.37693692358E+02  0.60497998354E+02 -0.14361624907E+04  0.14433610305E+04  0.12509013780E+03 0.  0.
         23    2    1    2    0    0 -0.37693692358E+02 -0.60497998354E+02 -0.14971088274E+03  0.18920499901E+03  0.91128266690E+02 0.  0.
          5    1    3    3  502    0  0.59235579453E+02  0.62711453636E+02 -0.53480377616E+03  0.54173252781E+03  0.41800000000E+01 0. -1.
         -5    1    3    3    0  502 -0.21541887095E+02 -0.22134552825E+01 -0.90135871450E+03  0.90162850271E+03  0.41800000000E+01 0. -1.
        -11    1    4    4    0    0  0.13169535903E+02 -0.28074090214E+02 -0.37050876730E+01  0.31230095932E+02  0.00000000000E+00 0.  1.
         11    1    4    4    0    0 -0.50863228261E+02 -0.32423908140E+02 -0.14600579507E+03  0.15797490308E+03  0.00000000000E+00 0. -1.
</event>
<event>
 8    1  0.6840084E-009  0.1078823E+03  0.7561462E-02  0.1264543E+00
          2   -1    0    0  501    0  0.00000000000E+00  0.00000000000E+00  0.87804565332E+03  0.87804565332E+03  0.00000000000E+00 0. -1.
         -2   -1    0    0    0  501 -0.00000000000E+00 -0.00000000000E+00 -0.15483778341E+02  0.15483778341E+02  0.00000000000E+00 0.  1.
         25    2    1    2    0    0  0.19580489810E+02 -0.30047345861E+02  0.59044985698E+03  0.60461913394E+03  0.12508806875E+03 0.  0.
         23    2    1    2    0    0 -0.19580489810E+02  0.30047345861E+02  0.27211201799E+03  0.28891029772E+03  0.90210704549E+02 0.  0.
          5    1    3    3  502    0 -0.30292212367E+02  0.29994314434E+02  0.11363598426E+03  0.12144087593E+03  0.41800000000E+01 0.  1.
         -5    1    3    3    0  502  0.49872702176E+02 -0.60041660295E+02  0.47681387272E+03  0.48317825801E+03  0.41800000000E+01 0.  1.
        -11    1    4    4    0    0  0.25020283850E+02 -0.16757246884E+02  0.11809598395E+03  0.12187485939E+03  0.00000000000E+00 0. -1.
         11    1    4    4    0    0 -0.44600773659E+02  0.46804592745E+02  0.15401603405E+03  0.16703543832E+03  0.00000000000E+00 0.  1.
</event>
<event>
 8    1  0.6840084E-009  0.1478010E+03  0.7561462E-02  0.1203201E+00
         -2   -1    0    0    0  501 -0.00000000000E+00  0.00000000000E+00  0.12869566433E+03  0.12869566433E+03  0.00000000000E+00 0.  1.
          2   -1    0    0  501    0  0.00000000000E+00 -0.00000000000E+00 -0.23368810884E+03  0.23368810884E+03  0.00000000000E+00 0. -1.
         25    2    1    2    0    0 -0.15272737386E+02  0.13296665569E+03 -0.38568640357E+02  0.18722838999E+03  0.12511411578E+03 0.  0.
         23    2    1    2    0    0  0.15272737386E+02 -0.13296665569E+03 -0.66423804153E+02  0.17515538318E+03  0.91399663374E+02 0.  0.
          5    1    3    3  502    0 -0.45401925868E+02  0.48465778541E+02  0.31210597016E+02  0.73497213064E+02  0.41800000000E+01 0. -1.
         -5    1    3    3    0  502  0.30129188483E+02  0.84500877148E+02 -0.69779237373E+02  0.11373117693E+03  0.41800000000E+01 0. -1.
        -11    1    4    4    0    0  0.28217604533E+02 -0.97282436929E+02 -0.85608483752E+02  0.13262321905E+03  0.00000000000E+00 0. -1.
         11    1    4    4    0    0 -0.12944867147E+02 -0.35684218760E+02  0.19184679600E+02  0.42532164127E+02  0.00000000000E+00 0.  1.
</event>
<event>
 8    1  0.6840084E-009  0.1031843E+03  0.7561462E-02  0.1273739E+00
          2   -1    0    0  501    0  0.00000000000E+00  0.00000000000E+00  0.26932983436E+03  0.26932983436E+03  0.00000000000E+00 0. -1.
         -2   -1    0    0    0  501 -0.00000000000E+00 -0.00000000000E+00 -0.78077754273E+02  0.78077754273E+02  0.00000000000E+00 0.  1.
         25    2    1    2    0    0  0.64056045367E+02  0.38715257039E+01  0.19135166791E+03  0.23744951807E+03  0.12509455289E+03 0.  0.
         23    2    1    2    0    0 -0.64056045367E+02 -0.38715257039E+01 -0.99587819723E-01  0.10995807056E+03  0.89289426606E+02 0.  0.
          5    1    3    3  502    0  0.13655115145E+02 -0.31580017123E+02  0.16781199655E+03  0.17135372257E+03  0.41800000000E+01 0.  1.
         -5    1    3    3    0  502  0.50400930222E+02  0.35451542827E+02  0.23539671353E+02  0.66095795505E+02  0.41800000000E+01 0.  1.
        -11    1    4    4    0    0 -0.59325602827E+02 -0.41258988977E+02 -0.77808486785E+00  0.72266428847E+02  0.00000000000E+00 0. -1.
         11    1    4    4    0    0 -0.47304425395E+01  0.37387463273E+02  0.67849704812E+00  0.37691641711E+02  0.00000000000E+00 0.  1.
</event>
<event>
 8    1  0.6840084E-009  0.1713766E+03  0.7561462E-02  0.1176420E+00
          2   -1    0    0  501    0  0.00000000000E+00  0.00000000000E+00  0.48910176773E+03  0.48910176773E+03  0.00000000000E+00 0. -1.
         -2   -1    0    0    0  501 -0.00000000000E+00 -0.00000000000E+00 -0.65391913662E+02  0.65391913662E+02  0.00000000000E+00 0.  1.
         25    2    1    2    0    0  0.65281929261E+02  0.12071557610E+03  0.27880757298E+03  0.33498559473E+03  0.12509078832E+03 0.  0.
         23    2    1    2    0    0 -0.65281929261E+02 -0.12071557610E+03  0.14490228109E+03  0.21950808667E+03  0.91395560319E+02 0.  0.
          5    1    3    3  502    0 -0.19003772831E+02 -0.10345639536E+02  0.76375521203E+02  0.79491309451E+02  0.41800000000E+01 0. -1.
         -5    1    3    3    0  502  0.84285702092E+02  0.13106121564E+03  0.20243205178E+03  0.25549428528E+03  0.41800000000E+01 0. -1.
        -11    1    4    4    0    0  0.13621198841E+02 -0.69375498382E+02  0.64820374563E+02  0.95917557267E+02  0.00000000000E+00 0.  1.
         11    1    4    4    0    0 -0.78903128102E+02 -0.51340077720E+02  0.80081906525E+02  0.12359052940E+03  0.00000000000E+00 0. -1.
</event>
<event>
 8    1  0.6840084E-009  0.1378115E+03  0.7561462E-02  0.1216305E+00
         -1   -1    0    0    0  501 -0.00000000000E+00  0.00000000000E+00  0.14091883683E+02  0.14091883683E+02  0.00000000000E+00 0.  1.
          1   -1    0    0  501    0  0.00000000000E+00 -0.00000000000E+00 -0.14308878787E+04  0.14308878787E+04  0.00000000000E+00 0. -1.
         25    2    1    2    0    0  0.52638457247E+02  0.66397899161E+02 -0.93185414681E+03  0.94402305030E+03  0.12509148797E+03 0.  0.
         23    2    1    2    0    0 -0.52638457247E+02 -0.66397899161E+02 -0.48494184816E+03  0.50095671205E+03  0.92787623364E+02 0.  0.
          5    1    3    3  502    0 -0.22547762210E+02 -0.24158784759E+02 -0.20784028383E+03  0.21049252824E+03  0.41800000000E+01 0.  1.
         -5    1    3    3    0  502  0.75186219456E+02  0.90556683920E+02 -0.72401386298E+03  0.73353052206E+03  0.41800000000E+01 0.  1.
        -11    1    4    4    0    0 -0.30069137789E+01  0.22512987468E+02 -0.65287759080E+02  0.69125737760E+02  0.00000000000E+00 0.  1.
         11    1    4    4    0    0 -0.49631543468E+02 -0.88910886630E+02 -0.41965408909E+03  0.43183097429E+03  0.00000000000E+00 0. -1.
</event>
<event>
 8    1  0.6840084E-009  0.1059149E+03  0.7561462E-02  0.1268327E+00
         -1   -1    0    0    0  501 -0.00000000000E+00  0.00000000000E+00  0.12333844419E+03  0.12333844419E+03  0.00000000000E+00 0.  1.
          1   -1    0    0  501    0  0.00000000000E+00 -0.00000000000E+00 -0.13312498616E+03  0.13312498616E+03  0.00000000000E+00 0. -1.
         25    2    1    2    0    0 -0.38842802813E+02 -0.55889354684E+02 -0.88564951930E+01  0.14268652644E+03  0.12509446040E+03 0.  0.
         23    2    1    2    0    0  0.38842802813E+02  0.55889354684E+02 -0.93004677773E+00  0.11377690390E+03  0.91169817251E+02 0.  0.
          5    1    3    3  502    0 -0.33549780951E+02  0.35937227760E+02  0.49274894387E+01  0.49586537418E+02  0.41800000000E+01 0.  1.
         -5    1    3    3    0  502 -0.52930218619E+01 -0.91826582445E+02 -0.13783984632E+02  0.93099989024E+02  0.41800000000E+01 0.  1.
        -11    1    4    4    0    0  0.27876734851E+02  0.51582501097E+02 -0.41302822759E+02  0.71720219835E+02  0.00000000000E+00 0. -1.
         11    1    4    4    0    0  0.10966067962E+02  0.43068535877E+01  0.40372775982E+02  0.42056684069E+02  0.00000000000E+00 0.  1.
</event>
<event>
 8    1  0.6840084E-009  0.1247031E+03  0.7561462E-02  0.1235534E+00
          1   -1    0    0  501    0  0.00000000000E+00  0.00000000000E+00  0.10178533715E+03  0.10178533715E+03  0.00000000000E+00 0. -1.
         -1   -1    0    0    0  501 -0.00000000000E+00 -0.00000000000E+00 -0.22857527946E+03  0.22857527946E+03  0.00000000000E+00 0.  1.
         25    2    1    2    0    0 -0.97091749836E+02 -0.10240010186E+02 -0.11713552805E+03  0.19725693593E+03  0.12513153538E+03 0.  0.
         23    2    1    2    0    0  0.97091749836E+02  0.10240010186E+02 -0.96544142608E+01  0.13310368069E+03  0.89953968242E+02 0.  0.
          5    1    3    3  502    0 -0.86062705342E+02 -0.34682381327E+02 -0.13565123396E+03  0.16440312193E+03  0.41800000000E+01 0. -1.
         -5    1    3    3    0  502 -0.11029044494E+02  0.24442371142E+02  0.18515705905E+02  0.32853814005E+02  0.41800000000E+01 0. -1.
        -11    1    4    4    0    0 -0.88014946543E+01 -0.17786664401E+02  0.93339969966E+01  0.21930691704E+02  0.00000000000E+00 0. -1.
         11    1    4    4    0    0  0.10589324449E+03  0.28026674587E+02 -0.18988411257E+02  0.11117298898E+03  0.00000000000E+00 0.  1.
</event>
<event>
 7    1  0.6840084E-009  0.1149709E+03  0.7561462E-02  0.1251632E+00
         -1   -1    0    0    0  501 -0.00000000000E+00  0.00000000000E+00  0.31052843385E+02  0.31052843385E+02  0.00000000000E+00 0.  1.
          1   -1    0    0  501    0  0.00000000000E+00 -0.00000000000E+00 -0.55947335881E+03  0.55947335881E+03  0.00000000000E+00 0. -1.
         23    2    1    2    0    0  0.23950973476E+02  0.60181964841E+02 -0.18152393764E+03  0.21356363737E+03  0.91994397897E+02 0.  0.
          5    1    1    2  502    0 -0.64246584465E+02 -0.59328238015E+02 -0.31011938622E+03  0.32224054610E+03  0.41800000000E+01 0. -1.
         -5    1    1    2    0  502  0.40295610989E+02 -0.85372682576E+00 -0.36777191552E+02  0.54722018721E+02  0.41800000000E+01 0. -1.
        -11    1    3    3    0    0  0.40453709262E+01  0.76208596613E+02 -0.16828863732E+03  0.18478414617E+03  0.00000000000E+00 0. -1.
         11    1    3    3    0    0  0.19905602550E+02 -0.16026631773E+02 -0.13235300320E+02  0.28779491195E+02  0.00000000000E+00 0.  1.
</event>
<event>
 8    1  0.6840084E-009  0.1964785E+03  0.7561462E-02  0.1152745E+00
         -1   -1    0    0    0  501 -0.00000000000E+00  0.00000000000E+00  0.18956004915E+03  0.18956004915E+03  0.00000000000E+00 0.  1.
          1   -1    0    0  501    0  0.00000000000E+00 -0.00000000000E+00 -0.23082099693E+03  0.23082099693E+03  0.00000000000E+00 0. -1.
         25    2    1    2    0    0  0.15835178221E+03 -0.79347666327E+02 -0.41633581357E+02  0.22079771494E+03  0.12508771622E+03 0.  0.
         23    2    1    2    0    0 -0.15835178221E+03  0.79347666327E+02  0.37263358453E+00  0.19958333114E+03  0.91989282707E+02 0.  0.
          5    1    3    3  502    0  0.12211872722E+03  0.59976152535E+01 -0.10011551866E+02  0.12274631765E+03  0.41800000000E+01 0. -1.
         -5    1    3    3    0  502  0.36233054988E+02 -0.85345281580E+02 -0.31622029491E+02  0.98051397292E+02  0.41800000000E+01 0. -1.
        -11    1    4    4    0    0 -0.13593306209E+03  0.73957394969E+02 -0.33762815521E+02  0.15839009234E+03  0.00000000000E+00 0. -1.
         11    1    4    4    0    0 -0.22418720114E+02  0.53902713580E+01  0.34135449105E+02  0.41193238796E+02  0.00000000000E+00 0.  1.
</event>
<event>
 8    1  0.6840084E-009  0.9771005E+02  0.7561462E-02  0.1285186E+00
          2   -1    0    0  501    0  0.00000000000E+00  0.00000000000E+00  0.40586932606E+03  0.40586932606E+03  0.00000000000E+00 0. -1.
         -2   -1    0    0    0  501 -0.00000000000E+00 -0.00000000000E+00 -0.35199667558E+02  0.35199667558E+02  0.00000000000E+00 0.  1.
         25    2    1    2    0    0 -0.10059041029E+02  0.46582880317E+02  0.19890468572E+03  0.23975244927E+03  0.12508802454E+03 0.  0.
         23    2    1    2    0    0  0.10059041029E+02 -0.46582880317E+02  0.17176497278E+03  0.20131654434E+03  0.93562792328E+02 0.  0.
          5    1    3    3  502    0  0.57058264357E+02  0.13252522120E+02  0.91405251513E+02  0.10864468362E+03  0.41800000000E+01 0.  1.
         -5    1    3    3    0  502 -0.67117305386E+02  0.33330358197E+02  0.10749943421E+03  0.13110776566E+03  0.41800000000E+01 0.  1.
        -11    1    4    4    0    0 -0.14789637901E+02 -0.23239132891E+02  0.16406845971E+03  0.16636481045E+03  0.00000000000E+00 0. -1.
         11    1    4    4    0    0  0.24848678930E+02 -0.23343747426E+02  0.76965130710E+01  0.34951733890E+02  0.00000000000E+00 0.  1.
</event>
<event>
 8    1  0.6840084E-009  0.9616056E+02  0.7561462E-02  0.1288583E+00
          1   -1    0    0  501    0  0.00000000000E+00  0.00000000000E+00  0.97275020233E+02  0.97275020233E+02  0.00000000000E+00 0. -1.
         -1   -1    0    0    0  501 -0.00000000000E+00 -0.00000000000E+00 -0.17637384869E+03  0.17637384869E+03  0.00000000000E+00 0.  1.
         25    2    1    2    0    0  0.37711621749E+02 -0.33711085340E+02  0.11419577863E+02  0.13541213056E+03  0.12508970642E+03 0.  0.
         23    2    1    2    0    0 -0.37711621749E+02  0.33711085340E+02 -0.90518406319E+02  0.13823673837E+03  0.91417778699E+02 0.  0.
          5    1    3    3  502    0  0.18552778034E+02  0.34436268526E+02 -0.33330384189E+02  0.51560150048E+02  0.41800000000E+01 0.  1.
         -5    1    3    3    0  502  0.19158843714E+02 -0.68147353866E+02  0.44749962052E+02  0.83851980508E+02  0.41800000000E+01 0.  1.
        -11    1    4    4    0    0 -0.27298307298E+02  0.53300636323E+02 -0.97979085681E+02  0.11483055623E+03  0.00000000000E+00 0.  1.
         11    1    4    4    0    0 -0.10413314451E+02 -0.19589550983E+02  0.74606793620E+01  0.23406182135E+02  0.00000000000E+00 0. -1.
</event>
<event>
 8    1  0.6840084E-009  0.1032773E+03  0.7561462E-02  0.1273551E+00
          2   -1    0    0  501    0  0.00000000000E+00  0.00000000000E+00  0.26407939772E+03  0.26407939772E+03  0.00000000000E+00 0.  1.
         -2   -1    0    0    0  501 -0.00000000000E+00 -0.00000000000E+00 -0.15510108965E+03  0.15510108965E+03  0.00000000000E+00 0. -1.
         25    2    1    2    0    0 -0.34279150950E+02  0.13861636531E+02  0.22921715884E+03  0.26372457949E+03  0.12507175046E+03 0.  0.
         23    2    1    2    0    0  0.34279150950E+02 -0.13861636531E+02 -0.12023885078E+03  0.15545590787E+03  0.91334292017E+02 0.  0.
          5    1    3    3  502    0  0.13255376262E+02 -0.48880920570E+02  0.76098969550E+02  0.91507239944E+02  0.41800000000E+01 0. -1.
         -5    1    3    3    0  502 -0.47534527211E+02  0.62742557101E+02  0.15311818929E+03  0.17221733955E+03  0.41800000000E+01 0. -1.
        -11    1    4    4    0    0  0.40753335206E+02 -0.35670903642E+02 -0.29022828615E+02  0.61445685592E+02  0.00000000000E+00 0.  1.
         11    1    4    4    0    0 -0.64741842559E+01  0.21809267111E+02 -0.91216022161E+02  0.94010222277E+02  0.00000000000E+00 0. -1.
</event>
<event>
 8    1  0.6840084E-009  0.1594730E+03  0.7561462E-02  0.1189293E+00
         -1   -1    0    0    0  501 -0.00000000000E+00  0.00000000000E+00  0.25661647857E+03  0.25661647857E+03  0.00000000000E+00 0.  1.
          1   -1    0    0  501    0  0.00000000000E+00 -0.00000000000E+00 -0.12304118300E+03  0.12304118300E+03  0.00000000000E+00 0. -1.
         25    2    1    2    0    0 -0.11717596317E+03  0.47746944141E+02  0.63022531301E+01  0.17803532971E+03  0.12508750221E+03 0.  0.
         23    2    1    2    0    0  0.11717596317E+03 -0.47746944141E+02  0.12727304244E+03  0.20162233186E+03  0.91886671256E+02 0.  0.
          5    1    3    3  502    0 -0.46601139053E+02  0.77075232773E+02 -0.27640240349E+02  0.94306484159E+02  0.41800000000E+01 0.  1.
         -5    1    3    3    0  502 -0.70574824115E+02 -0.29328288632E+02  0.33942493479E+02  0.83728845546E+02  0.41800000000E+01 0.  1.
        -11    1    4    4    0    0  0.86929599270E+02  0.95476221742E+01  0.95400818324E+02  0.12941881028E+03  0.00000000000E+00 0. -1.
         11    1    4    4    0    0  0.30246363898E+02 -0.57294566315E+02  0.31872224118E+02  0.72203521580E+02  0.00000000000E+00 0.  1.
</event>
<event>
 8    1  0.6840084E-009  0.1762833E+03  0.7561462E-02  0.1171449E+00
         -2   -1    0    0    0  501 -0.00000000000E+00  0.00000000000E+00  0.60314328871E+03  0.60314328871E+03  0.00000000000E+00 0.  1.
          2   -1    0    0  501    0  0.00000000000E+00 -0.00000000000E+00 -0.59725498239E+02  0.59725498239E+02  0.00000000000E+00 0. -1.
         25    2    1    2    0    0  0.12711727755E+03  0.79808461485E+02  0.21506916619E+03  0.29056808970E+03  0.12508747230E+03 0.  0.
         23    2    1    2    0    0 -0.12711727755E+03 -0.79808461485E+02  0.32834862428E+03  0.37230069726E+03  0.90921929877E+02 0.  0.
          5    1    3    3  502    0  0.13577828387E+03  0.29685138248E+02  0.12465727301E+03  0.18674543614E+03  0.41800000000E+01 0.  1.
         -5    1    3    3    0  502 -0.86610063230E+01  0.50123323237E+02  0.90411893180E+02  0.10382265355E+03  0.41800000000E+01 0.  1.
        -11    1    4    4    0    0 -0.10421112959E+03 -0.89729450961E+02  0.31562531980E+03  0.34428284360E+03  0.00000000000E+00 0.  1.
         11    1    4    4    0    0 -0.22906147956E+02  0.99209894760E+01  0.12723304485E+02  0.28017853654E+02  0.00000000000E+00 0. -1.
</event>
<event>
 8    1  0.6840084E-009  0.1084020E+03  0.7561462E-02  0.1263558E+00
         -1   -1    0    0    0  501 -0.00000000000E+00  0.00000000000E+00  0.17473432419E+02  0.17473432419E+02  0.00000000000E+00 0.  1.
          1   -1    0    0  501    0  0.00000000000E+00 -0.00000000000E+00 -0.10077194932E+04  0.10077194932E+04  0.00000000000E+00 0. -1.
         25    2    1    2    0    0  0.72101551477E+02  0.12021179385E+02 -0.61988600839E+03  0.63658891010E+03  0.12507451612E+03 0.  0.
         23    2    1    2    0    0 -0.72101551477E+02 -0.12021179385E+02 -0.37036005243E+03  0.38860401556E+03  0.92213719123E+02 0.  0.
          5    1    3    3  502    0  0.52888591296E+02  0.59103186153E+02 -0.50041979133E+03  0.50668316496E+03  0.41800000000E+01 0.  1.
         -5    1    3    3    0  502  0.19212960180E+02 -0.47082006768E+02 -0.11946621706E+03  0.12990574514E+03  0.41800000000E+01 0.  1.
        -11    1    4    4    0    0  0.24978367034E+01 -0.11489507672E+02 -0.10165920069E+01  0.11801755550E+02  0.00000000000E+00 0.  1.
         11    1    4    4    0    0 -0.74599388180E+02 -0.53167171280E+00 -0.36934346042E+03  0.37680226001E+03  0.00000000000E+00 0. -1.
</event>
<event>
 7    1  0.6840084E-009  0.1021610E+03  0.7561462E-02  0.1275816E+00
          1   -1    0    0  501    0  0.00000000000E+00  0.00000000000E+00  0.10542948413E+03  0.10542948413E+03  0.00000000000E+00 0. -1.
         -1   -1    0    0    0  501 -0.00000000000E+00 -0.00000000000E+00 -0.21508036505E+03  0.21508036505E+03  0.00000000000E+00 0.  1.
         25    2    1    2    0    0 -0.58384743804E+02 -0.44454337175E+01 -0.10748771876E+03  0.17501318989E+03  0.12508983477E+03 0.  0.
          5    1    3    3  502    0 -0.19930077792E+02 -0.44364282540E+02 -0.10897410974E+03  0.11940781616E+03  0.41800000000E+01 0. -1.
         -5    1    3    3    0  502 -0.38454666012E+02  0.39918848822E+02  0.14863909840E+01  0.55605373729E+02  0.41800000000E+01 0. -1.
        -11    1    1    2    0    0 -0.52946041095E+00 -0.31107046108E+02  0.50178944542E+02  0.59041130759E+02  0.00000000000E+00 0. -1.
         11    1    1    2    0    0  0.58914204215E+02  0.35552479826E+02 -0.52342106703E+02  0.86455528534E+02  0.00000000000E+00 0.  1.
</event>
<event>
 8    1  0.6840084E-009  0.8503429E+02  0.7561462E-02  0.1315343E+00
          2   -1    0    0  501    0  0.00000000000E+00  0.00000000000E+00  0.38404760754E+03  0.38404760754E+03  0.00000000000E+00 0. -1.
         -2   -1    0    0    0  501 -0.00000000000E+00 -0.00000000000E+00 -0.34362661364E+02  0.34362661364E+02  0.00000000000E+00 0.  1.
         25    2    1    2    0    0 -0.24263626450E+02  0.57137061417E+01  0.24291665743E+03  0.27436755876E+03  0.12509070643E+03 0.  0.
         23    2    1    2    0    0  0.24263626450E+02 -0.57137061417E+01  0.10676828874E+03  0.14404271014E+03  0.93420901613E+02 0.  0.
          5    1    3    3  502    0 -0.35872148088E+02 -0.25258530246E+02  0.23630427016E+03  0.24037883612E+03  0.41800000000E+01 0. -1.
         -5    1    3    3    0  502  0.11608521638E+02  0.30972236388E+02  0.66123872767E+01  0.33988722644E+02  0.41800000000E+01 0. -1.
        -11    1    4    4    0    0  0.34570635099E+02  0.35869087970E+02  0.77601040437E+02  0.92215192673E+02  0.00000000000E+00 0. -1.
         11    1    4    4    0    0 -0.10307008649E+02 -0.41582794111E+02  0.29167248305E+02  0.51827517470E+02  0.00000000000E+00 0.  1.
</event>
<event>
 8    1  0.6840084E-009  0.1525152E+03  0.7561462E-02  0.1197416E+00
         -2   -1    0    0    0  501 -0.00000000000E+00  0.00000000000E+00  0.57590652141E+02  0.57590652141E+02  0.00000000000E+00 0.  1.
          2   -1    0    0  501    0  0.00000000000E+00 -0.00000000000E+00 -0.43862485050E+03  0.43862485050E+03  0.00000000000E+00 0. -1.
         25    2    1    2    0    0 -0.68539285293E+02  0.93134954003E+02 -0.21481947312E+03  0.27416927070E+03  0.12509847992E+03 0.  0.
         23    2    1    2    0    0  0.68539285293E+02 -0.93134954003E+02 -0.16621472524E+03  0.22204623194E+03  0.91134191979E+02 0.  0.
          5    1    3    3  502    0  0.35421684035E+02  0.30614571243E+02 -0.79746117600E+02  0.92568155131E+02  0.41800000000E+01 0. -1.
         -5    1    3    3    0  502 -0.10396096933E+03  0.62520382760E+02 -0.13507335552E+03  0.18160111557E+03  0.41800000000E+01 0. -1.
        -11    1    4    4    0    0  0.70158076803E+01 -0.70865092518E+02 -0.12744958906E+03  0.14599479664E+03  0.00000000000E+00 0. -1.
         11    1    4    4    0    0  0.61523477613E+02 -0.22269861485E+02 -0.38765136179E+02  0.76051435300E+02  0.00000000000E+00 0.  1.
</event>
<event>
 8    1  0.6840084E-009  0.1096214E+03  0.7561462E-02  0.1261273E+00
          1   -1    0    0  501    0  0.00000000000E+00  0.00000000000E+00  0.67209446546E+02  0.67209446546E+02  0.00000000000E+00 0. -1.
         -1   -1    0    0    0  501 -0.00000000000E+00 -0.00000000000E+00 -0.23574828726E+03  0.23574828726E+03  0.00000000000E+00 0.  1.
         25    2    1    2    0    0  0.25633503313E+02  0.51178136516E+02 -0.12260337313E+03  0.18426939827E+03  0.12508935161E+03 0.  0.
         23    2    1    2    0    0 -0.25633503313E+02 -0.51178136516E+02 -0.45935467583E+02  0.11868833554E+03  0.93276876346E+02 0.  0.
          5    1    3    3  502    0  0.75814985969E+02  0.20989387208E+02 -0.67247587932E+02  0.10357691324E+03  0.41800000000E+01 0.  1.
         -5    1    3    3    0  502 -0.50181482655E+02  0.30188749307E+02 -0.55355785201E+02  0.80692485037E+02  0.41800000000E+01 0.  1.
        -11    1    4    4    0    0 -0.38558191004E+02 -0.55972921586E+02 -0.65739402517E+02  0.94558823426E+02  0.00000000000E+00 0.  1.
         11    1    4    4    0    0  0.12924687690E+02  0.47947850709E+01  0.19803934934E+02  0.24129512110E+02  0.00000000000E+00 0. -1.
</event>
<event>
 8    1  0.6840084E-009  0.1017189E+03  0.7561462E-02  0.1276722E+00
         -2   -1    0    0    0  501 -0.00000000000E+00  0.00000000000E+00  0.54467005051E+02  0.54467005051E+02  0.00000000000E+00 0.  1.
          2   -1    0    0  501    0  0.00000000000E+00 -0.00000000000E+00 -0.41617472921E+03  0.41617472921E+03  0.00000000000E+00 0. -1.
         25    2    1    2    0    0  0.50623171356E+02  0.65934022305E+02 -0.96066384525E+02  0.17828724748E+03  0.12509033377E+03 0.  0.
         23    2    1    2    0    0 -0.50623171356E+02 -0.65934022305E+02 -0.26564133964E+03  0.29235448679E+03  0.89419370634E+02 0.  0.
          5    1    3    3  502    0  0.18319971306E+02  0.45323648609E+02  0.22232836081E+02  0.53866741800E+02  0.41800000000E+01 0. -1.
         -5    1    3    3    0  502  0.32303200050E+02  0.20610373695E+02 -0.11829922061E+03  0.12442050568E+03  0.41800000000E+01 0. -1.
        -11    1    4    4    0    0  0.22289553083E+02 -0.16635682862E+02 -0.11088991575E+03  0.11432472846E+03  0.00000000000E+00 0. -1.
         11    1    4    4    0    0 -0.72912724439E+02 -0.49298339443E+02 -0.15475142388E+03  0.17802975833E+03  0.00000000000E+00 0.  1.
</event>
<event>
 8    1  0.6840084E-009  0.1254662E+03  0.7561462E-02  0.1234342E+00
          1   -1    0    0  501    0  0.00000000000E+00  0.00000000000E+00  0.70807278989E+02  0.70807278989E+02  0.00000000000E+00 0. -1.
         -1   -1    0    0    0  501 -0.00000000000E+00 -0.00000000000E+00 -0.43140733130E+03  0.43140733130E+03  0.00000000000E+00 0.  1.
         25    2    1    2    0    0  0.78774513328E+02 -0.45269744606E+02 -0.44204097077E+02  0.16081534892E+03  0.12511115268E+03 0.  0.
         23    2    1    2    0    0 -0.78774513328E+02  0.45269744606E+02 -0.31639595523E+03  0.34139926136E+03  0.90511222754E+02 0.  0.
          5    1    3    3  502    0  0.10858177542E+03 -0.11497522808E+02 -0.28442927320E+02  0.11290999734E+03  0.41800000000E+01 0.  1.
         -5    1    3    3    0  502 -0.29807262092E+02 -0.33772221798E+02 -0.15761169757E+02  0.47905351588E+02  0.41800000000E+01 0.  1.
        -11    1    4    4    0    0 -0.74174547379E+02  0.29208300291E+02 -0.31466115015E+03  0.32460226077E+03  0.00000000000E+00 0.  1.
         11    1    4    4    0    0 -0.45999659487E+01  0.16061444316E+02 -0.17348050857E+01  0.16797000593E+02  0.00000000000E+00 0. -1.
</event>
<event>
 8    1  0.6840084E-009  0.1292960E+03  0.7561462E-02  0.1228504E+00
          1   -1    0    0  501    0  0.00000000000E+00  0.00000000000E+00  0.47010947145E+02  0.47010947145E+02  0.00000000000E+00 0. -1.
         -1   -1    0    0    0  501 -0.00000000000E+00 -0.00000000000E+00 -0.46675343628E+03  0.46675343628E+03  0.00000000000E+00 0.  1.
         25    2    1    2    0    0 -0.12330392358E+02 -0.99183102087E+02 -0.20734586091E+03  0.26196026104E+03  0.12506616654E+03 0.  0.
         23    2    1    2    0    0  0.12330392358E+02  0.99183102087E+02 -0.21239662822E+03  0.25180412238E+03  0.91124431702E+02 0.  0.
          5    1    3    3  502    0  0.62650202136E+01 -0.10352793877E+03 -0.21670811931E+03  0.24028559249E+03  0.41800000000E+01 0. -1.
         -5    1    3    3    0  502 -0.18595412571E+02  0.43448366811E+01  0.93622583981E+01  0.21674668551E+02  0.41800000000E+01 0. -1.
        -11    1    4    4    0    0  0.33636577397E+02  0.10729506628E+03 -0.17769367662E+03  0.21028241319E+03  0.00000000000E+00 0.  1.
         11    1    4    4    0    0 -0.21306185039E+02 -0.81119641964E+01 -0.34702951608E+02  0.41521709193E+02  0.00000000000E+00 0. -1.
</event>
<event>
 8    1  0.6840084E-009  0.1279583E+03  0.7561462E-02  0.1230517E+00
          1   -1    0    0  501    0  0.00000000000E+00  0.00000000000E+00  0.15929817477E+03  0.15929817477E+03  0.00000000000E+00 0. -1.
         -1   -1    0    0    0  501 -0.00000000000E+00 -0.00000000000E+00 -0.16872111525E+03  0.16872111525E+03  0.00000000000E+00 0.  1.
         25    2    1    2    0    0  0.56846489195E+02  0.73688743790E+02  0.74188750421E+02  0.17266123842E+03  0.12508548385E+03 0.  0.
         23    2    1    2    0    0 -0.56846489195E+02 -0.73688743790E+02 -0.83611690903E+02  0.15535805160E+03  0.92106758964E+02 0.  0.
          5    1    3    3  502    0 -0.21802266708E+02  0.57562707338E+02 -0.22398601596E+01  0.61735674316E+02  0.41800000000E+01 0. -1.
         -5    1    3    3    0  502  0.78648755904E+02  0.16126036452E+02  0.76428610581E+02  0.11092556411E+03  0.41800000000E+01 0. -1.
        -11    1    4    4    0    0  0.27921897771E+01  0.10382536780E+02  0.11044359959E+02  0.15413347483E+02  0.00000000000E+00 0. -1.
         11    1    4    4    0    0 -0.59638678972E+02 -0.84071280569E+02 -0.94656050862E+02  0.13994470412E+03  0.00000000000E+00 0.  1.
</event>
<event>
 8    1  0.6840084E-009  0.1179082E+03  0.7561462E-02  0.1246588E+00
          1   -1    0    0  501    0  0.00000000000E+00  0.00000000000E+00  0.13627293385E+03  0.13627293385E+03  0.00000000000E+00 0. -1.
         -1   -1    0    0    0  501 -0.00000000000E+00 -0.00000000000E+00 -0.12851829635E+03  0.12851829635E+03  0.00000000000E+00 0.  1.
         25    2    1    2    0    0  0.39013110002E+02  0.61485185580E+02 -0.33652100718E+01  0.14475698034E+03  0.12506321569E+03 0.  0.
         23    2    1    2    0    0 -0.39013110002E+02 -0.61485185580E+02  0.11119847565E+02  0.12003424987E+03  0.94774043564E+02 0.  0.
          5    1    3    3  502    0 -0.41782255882E+01  0.91666423486E+02 -0.26558564853E+01  0.91895139901E+02  0.41800000000E+01 0.  1.
         -5    1    3    3    0  502  0.43191335590E+02 -0.30181237906E+02 -0.70935358650E+00  0.52861840434E+02  0.41800000000E+01 0.  1.
        -11    1    4    4    0    0  0.12764897198E+02 -0.32392674021E+01 -0.29386917771E+02  0.32202894122E+02  0.00000000000E+00 0.  1.
         11    1    4    4    0    0 -0.51778007200E+02 -0.58245918178E+02  0.40506765336E+02  0.87831355745E+02  0.00000000000E+00 0. -1.
</event>
<event>
 8    1  0.6840084E-009  0.1124339E+03  0.7561462E-02  0.1256128E+00
         -1   -1    0    0    0  501 -0.00000000000E+00  0.00000000000E+00  0.64046188514E+02  0.64046188514E+02  0.00000000000E+00 0.  1.
          1   -1    0    0  501    0  0.00000000000E+00 -0.00000000000E+00 -0.27617632804E+03  0.27617632804E+03  0.00000000000E+00 0. -1.
         25    2    1    2    0    0  0.36083026417E+01  0.63897876765E+02 -0.58077864810E+02  0.15204123277E+03  0.12509012583E+03 0.  0.
         23    2    1    2    0    0 -0.36083026417E+01 -0.63897876765E+02 -0.15405227471E+03  0.18818128378E+03  0.87086931955E+02 0.  0.
          5    1    3    3  502    0  0.11894110037E+02 -0.32209061232E+02 -0.41583719804E+02  0.54088553611E+02  0.41800000000E+01 0. -1.
         -5    1    3    3    0  502 -0.82858073954E+01  0.96106937997E+02 -0.16494145007E+02  0.97952679161E+02  0.41800000000E+01 0. -1.
        -11    1    4    4    0    0 -0.36046679160E+02 -0.31336056952E+02 -0.12498149556E+03  0.13379718149E+03  0.00000000000E+00 0.  1.
         11    1    4    4    0    0  0.32438376518E+02 -0.32561819813E+02 -0.29070779155E+02  0.54384102285E+02  0.00000000000E+00 0. -1.
</event>
<event>
 8    1  0.6840084E-009  0.1256953E+03  0.7561462E-02  0.1233987E+00
          1   -1    0    0  501    0  0.00000000000E+00  0.00000000000E+00  0.84354632457E+03  0.84354632457E+03  0.00000000000E+00 0. -1.
         -1   -1    0    0    0  501 -0.00000000000E+00 -0.00000000000E+00 -0.31165927093E+02  0.31165927093E+02  0.00000000000E+00 0.  1.
         25    2    1    2    0    0 -0.68553190745E+02  0.58837352049E+01  0.69836601529E+03  0.71280875725E+03  0.12508826800E+03 0.  0.
         23    2    1    2    0    0  0.68553190745E+02 -0.58837352049E+01  0.11401438218E+03  0.16190349441E+03  0.92083135576E+02 0.  0.
          5    1    3    3  502    0  0.24618054548E+02 -0.33086096208E+02  0.22204542379E+03  0.22588134274E+03  0.41800000000E+01 0. -1.
         -5    1    3    3    0  502 -0.93171245293E+02  0.38969831413E+02  0.47632059150E+03  0.48692741451E+03  0.41800000000E+01 0. -1.
        -11    1    4    4    0    0  0.60980206106E+02 -0.40644383385E+02  0.99277453074E+02  0.12339596479E+03  0.00000000000E+00 0. -1.
         11    1    4    4    0    0  0.75729846394E+01  0.34760648180E+02  0.14736929109E+02  0.38507529624E+02  0.00000000000E+00 0.  1.
</event>
<event>
 8    1  0.6840084E-009  0.1948776E+03  0.7561462E-02  0.1154134E+00
          1   -1    0    0  501    0  0.00000000000E+00  0.00000000000E+00  0.25876729729E+04  0.25876729729E+04  0.00000000000E+00 0. -1.
         -1   -1    0    0    0  501 -0.00000000000E+00 -0.00000000000E+00 -0.21132331750E+02  0.21132331750E+02  0.00000000000E+00 0.  1.
         25    2    1    2    0    0  0.76985680573E+02 -0.16078561039E+03  0.19069445311E+04  0.19193423297E+04  0.12513483328E+03 0.  0.
         23    2    1    2    0    0 -0.76985680573E+02  0.16078561039E+03  0.65959611000E+03  0.68946297487E+03  0.92267859298E+02 0.  0.
          5    1    3    3  502    0  0.86132447217E+02 -0.10168566648E+03  0.82198431412E+03  0.83272712114E+03  0.41800000000E+01 0.  1.
         -5    1    3    3    0  502 -0.91467666436E+01 -0.59099943907E+02  0.10849602170E+04  0.10866152086E+04  0.41800000000E+01 0.  1.
        -11    1    4    4    0    0 -0.83814848971E+02  0.81526169094E+02  0.45923672334E+03  0.47388797539E+03  0.00000000000E+00 0. -1.
         11    1    4    4    0    0  0.68291683971E+01  0.79259441295E+02  0.20035938666E+03  0.21557499948E+03  0.00000000000E+00 0.  1.
</event>
<event>
 8    1  0.6840084E-009  0.1082708E+03  0.7561462E-02  0.1263806E+00
         -3   -1    0    0    0  501 -0.00000000000E+00  0.00000000000E+00  0.19289491671E+02  0.19289491671E+02  0.00000000000E+00 0.  1.
          3   -1    0    0  501    0  0.00000000000E+00 -0.00000000000E+00 -0.73065519675E+03  0.73065519675E+03  0.00000000000E+00 0. -1.
         25    2    1    2    0    0 -0.12747626879E+02  0.41865265999E+02 -0.32809433363E+03  0.35384681027E+03  0.12508585407E+03 0.  0.
         23    2    1    2    0    0  0.12747626879E+02 -0.41865265999E+02 -0.38327137145E+03  0.39609787815E+03  0.89896509483E+02 0.  0.
          5    1    3    3  502    0  0.36663936084E+02 -0.16980953288E+02 -0.45647687479E+02  0.61104670492E+02  0.41800000000E+01 0. -1.
         -5    1    3    3    0  502 -0.49411562963E+02  0.58846219287E+02 -0.28244664615E+03  0.29274213977E+03  0.41800000000E+01 0. -1.
        -11    1    4    4    0    0  0.51163263707E+02 -0.21626926148E+02 -0.24259341344E+03  0.24887138793E+03  0.00000000000E+00 0. -1.
         11    1    4    4    0    0 -0.38415636828E+02 -0.20238339851E+02 -0.14067795801E+03  0.14722649022E+03  0.00000000000E+00 0.  1.
</event>
<event>
 8    1  0.6840084E-009  0.1139000E+03  0.7561462E-02  0.1253513E+00
          2   -1    0    0  501    0  0.00000000000E+00  0.00000000000E+00  0.30259636442E+03  0.30259636442E+03  0.00000000000E+00 0. -1.
         -2   -1    0    0    0  501 -0.00000000000E+00 -0.00000000000E+00 -0.70997375102E+02  0.70997375102E+02  0.00000000000E+00 0.  1.
         25    2    1    2    0    0 -0.71692778821E+02  0.11291057994E+02  0.20820224942E+03  0.25350220375E+03  0.12509135909E+03 0.  0.
         23    2    1    2    0    0  0.71692778821E+02 -0.11291057994E+02  0.23396739904E+02  0.12009153577E+03  0.92775142149E+02 0.  0.
          5    1    3    3  502    0  0.14911583766E+02  0.45735476869E+02  0.47821450315E+02  0.67959198679E+02  0.41800000000E+01 0.  1.
         -5    1    3    3    0  502 -0.86604362587E+02 -0.34444418876E+02  0.16038079910E+03  0.18554300507E+03  0.41800000000E+01 0.  1.
        -11    1    4    4    0    0  0.39212248817E+02 -0.29418453376E+02 -0.28147651103E+02  0.56527304189E+02  0.00000000000E+00 0.  1.
         11    1    4    4    0    0  0.32480530004E+02  0.18127395382E+02  0.51544391006E+02  0.63564231585E+02  0.00000000000E+00 0. -1.
</event>
<event>
 8    1  0.6840084E-009  0.1430956E+03  0.7561462E-02  0.1209223E+00
          2   -1    0    0  501    0  0.00000000000E+00  0.00000000000E+00  0.27095730886E+03  0.27095730886E+03  0.00000000000E+00 0. -1.
         -2   -1    0    0    0  501 -0.00000000000E+00 -0.00000000000E+00 -0.15418223360E+03  0.15418223360E+03  0.00000000000E+00 0.  1.
         25    2    1    2    0    0  0.47483756922E+02  0.10465830566E+03  0.19493979653E+03  0.25856701371E+03  0.12508920095E+03 0.  0.
         23    2    1    2    0    0 -0.47483756922E+02 -0.10465830566E+03 -0.78164721277E+02  0.16657252875E+03  0.91807491881E+02 0.  0.
          5    1    3    3  502    0 -0.27339867897E+02 -0.81017210977E+01  0.64121774483E+02  0.70300644551E+02  0.41800000000E+01 0.  1.
         -5    1    3    3    0  502  0.74823624819E+02  0.11276002676E+03  0.13081802205E+03  0.18826636916E+03  0.41800000000E+01 0.  1.
        -11    1    4    4    0    0 -0.52675457771E+02 -0.73699216260E+02 -0.94734864614E+02  0.13107621028E+03  0.00000000000E+00 0.  1.
         11    1    4    4    0    0  0.51917008496E+01 -0.30959089401E+02  0.16570143337E+02  0.35496318464E+02  0.00000000000E+00 0. -1.
</event>
<event>
 8    1  0.6840084E-009  0.1446391E+03  0.7561462E-02  0.1207220E+00
         -2   -1    0    0    0  501 -0.00000000000E+00  0.00000000000E+00  0.19065538270E+03  0.19065538270E+03  0.00000000000E+00 0.  1.
          2   -1    0    0  501    0  0.00000000000E+00 -0.00000000000E+00 -0.13156900759E+03  0.13156900759E+03  0.00000000000E+00 0. -1.
         25    2    1    2    0    0 -0.50515285701E+02  0.10381983905E+03  0.41371656579E+02  0.17515295473E+03  0.12504635345E+03 0.  0.
         23    2    1    2    0    0  0.50515285701E+02 -0.10381983905E+03  0.17714718537E+02  0.14707143556E+03  0.89363543098E+02 0.  0.
          5    1    3    3  502    0 -0.87318791839E+02  0.64020136680E+02  0.51300518837E+02  0.11988479863E+03  0.41800000000E+01 0. -1.
         -5    1    3    3    0  502  0.36803506138E+02  0.39799702373E+02 -0.99288622585E+01  0.55268156101E+02  0.41800000000E+01 0. -1.
        -11    1    4    4    0    0  0.21336294474E+02 -0.29374348827E+01  0.34549834540E+02  0.40713106640E+02  0.00000000000E+00 0.  1.
         11    1    4    4    0    0  0.29178991227E+02 -0.10088240417E+03 -0.16835116003E+02  0.10635832892E+03  0.00000000000E+00 0. -1.
</event>
<event>
 8    1  0.6840084E-009  0.1480559E+03  0.7561462E-02  0.1202882E+00
         -1   -1    0    0    0  501 -0.00000000000E+00  0.00000000000E+00  0.33901370401E+03  0.33901370401E+03  0.00000000000E+00 0.  1.
          1   -1    0    0  501    0  0.00000000000E+00 -0.00000000000E+00 -0.13864720363E+03  0.13864720363E+03  0.00000000000E+00 0. -1.
         25    2    1    2    0    0  0.69677192692E+02  0.10838183172E+03 -0.45751721095E+02  0.18532194392E+03  0.12509784286E+03 0.  0.
         23    2    1    2    0    0 -0.69677192692E+02 -0.10838183172E+03  0.24611822147E+03  0.29233896371E+03  0.91029435545E+02 0.  0.
          5    1    3    3  502    0 -0.20697932869E+02  0.29737484560E+02  0.26747330124E+02  0.45228469815E+02  0.41800000000E+01 0.  1.
         -5    1    3    3    0  502  0.90375125561E+02  0.78644347161E+02 -0.72499051219E+02  0.14009347411E+03  0.41800000000E+01 0.  1.
        -11    1    4    4    0    0 -0.16055134421E+01 -0.50173941127E+02  0.16150399225E+03  0.16912581575E+03  0.00000000000E+00 0.  1.
         11    1    4    4    0    0 -0.68071679250E+02 -0.58207890594E+02  0.84614229222E+02  0.12321314796E+03  0.00000000000E+00 0. -1.
</event>
<event>
 8    1  0.6840084E-009  0.1218523E+03  0.7561462E-02  0.1240072E+00
          2   -1    0    0  501    0  0.00000000000E+00  0.00000000000E+00  0.27354962024E+03  0.27354962024E+03  0.00000000000E+00 0. -1.
         -2   -1    0    0    0  501 -0.00000000000E+00 -0.00000000000E+00 -0.71918110324E+02  0.71918110324E+02  0.00000000000E+00 0.  1.
         25    2    1    2    0    0  0.84935694932E+02 -0.17195972307E+02  0.90272181842E+02  0.17693915093E+03  0.12509445464E+03 0.  0.
         23    2    1    2    0    0 -0.84935694932E+02  0.17195972307E+02  0.11135932808E+03  0.16852857963E+03  0.92147753452E+02 0.  0.
          5    1    3    3  502    0  0.28477943259E+02  0.51750276978E+02  0.55600205217E+02  0.81227702416E+02  0.41800000000E+01 0.  1.
         -5    1    3    3    0  502  0.56457751672E+02 -0.68946249285E+02  0.34671976626E+02  0.95711448519E+02  0.41800000000E+01 0.  1.
        -11    1    4    4    0    0 -0.25213565431E+02 -0.12987173045E+02  0.95686980259E+02  0.99801747162E+02  0.00000000000E+00 0.  1.
         11    1    4    4    0    0 -0.59722129500E+02  0.30183145352E+02  0.15672347817E+02  0.68726832471E+02  0.00000000000E+00 0. -1.
</event>
<event>
 8    1  0.6840084E-009  0.1268255E+03  0.7561462E-02  0.1232244E+00
          1   -1    0    0  501    0  0.00000000000E+00  0.00000000000E+00  0.50692490802E+03  0.50692490802E+03  0.00000000000E+00 0. -1.
         -1   -1    0    0    0  501 -0.00000000000E+00 -0.00000000000E+00 -0.47184141759E+02  0.47184141759E+02  0.00000000000E+00 0.  1.
         25    2    1    2    0    0 -0.62718963541E+02 -0.25987141907E+02  0.92373470280E+02  0.16967434814E+03  0.12509007344E+03 0.  0.
         23    2    1    2    0    0  0.62718963541E+02  0.25987141907E+02  0.36736729598E+03  0.38443470164E+03  0.90676952604E+02 0.  0.
          5    1    3    3  502    0 -0.20823072721E+02  0.49581653372E+02  0.22379048310E+02  0.58397216646E+02  0.41800000000E+01 0.  1.
         -5    1    3    3    0  502 -0.41895890820E+02 -0.75568795279E+02  0.69994421969E+02  0.11127713150E+03  0.41800000000E+01 0.  1.
        -11    1    4    4    0    0  0.76512272200E+02  0.45718593518E+02  0.29463836300E+03  0.30782475946E+03  0.00000000000E+00 0. -1.
         11    1    4    4    0    0 -0.13793308659E+02 -0.19731451611E+02  0.72728932986E+02  0.76609942173E+02  0.00000000000E+00 0.  1.
</event>
<event>
 8    1  0.6840084E-009  0.1375575E+03  0.7561462E-02  0.1216654E+00
         -2   -1    0    0    0  501 -0.00000000000E+00  0.00000000000E+00  0.16667170854E+02  0.16667170854E+02  0.00000000000E+00 0.  1.
          2   -1    0    0  501    0  0.00000000000E+00 -0.00000000000E+00 -0.12931769145E+04  0.12931769145E+04  0.00000000000E+00 0. -1.
         25    2    1    2    0    0 -0.91161657336E+02  0.35105830896E+02 -0.67590914116E+03  0.69429296618E+03  0.12508672456E+03 0.  0.
         23    2    1    2    0    0  0.91161657336E+02 -0.35105830896E+02 -0.60060060251E+03  0.61555111919E+03  0.92947455433E+02 0.  0.
          5    1    3    3  502    0 -0.40669368478E+02 -0.43986764961E+02 -0.35015996562E+03  0.35527215898E+03  0.41800000000E+01 0. -1.
         -5    1    3    3    0  502 -0.50492288859E+02  0.79092595858E+02 -0.32574917554E+03  0.33902080720E+03  0.41800000000E+01 0. -1.
        -11    1    4    4    0    0  0.82224761507E+01  0.19954469859E+02 -0.34000579100E+02  0.40271942597E+02  0.00000000000E+00 0.  1.
         11    1    4    4    0    0  0.82939181186E+02 -0.55060300755E+02 -0.56660002341E+03  0.57527917660E+03  0.00000000000E+00 0. -1.
</event>
<event>
 8    1  0.6840084E-009  0.1592476E+03  0.7561462E-02  0.1189549E+00
         -1   -1    0    0    0  501 -0.00000000000E+00  0.00000000000E+00  0.59352493263E+02  0.59352493263E+02  0.00000000000E+00 0.  1.
          1   -1    0    0  501    0  0.00000000000E+00 -0.00000000000E+00 -0.55307471751E+03  0.55307471751E+03  0.00000000000E+00 0. -1.
         25    2    1    2    0    0  0.12274932234E+03 -0.24403621781E+01 -0.13085688788E+03  0.21873368162E+03  0.12509015496E+03 0.  0.
         23    2    1    2    0    0 -0.12274932234E+03  0.24403621781E+01 -0.36286533636E+03  0.39369352915E+03  0.90829461385E+02 0.  0.
          5    1    3    3  502    0  0.13074521542E+03 -0.38669126199E+02 -0.11398555596E+03  0.17776330343E+03  0.41800000000E+01 0.  1.
         -5    1    3    3    0  502 -0.79958930839E+01  0.36228764021E+02 -0.16871331917E+02  0.40970378194E+02  0.41800000000E+01 0.  1.
        -11    1    4    4    0    0  0.67274772779E+00  0.20066399662E+02 -0.10937760745E+03  0.11120509878E+03  0.00000000000E+00 0. -1.
         11    1    4    4    0    0 -0.12342207007E+03 -0.17626037484E+02 -0.25348772892E+03  0.28248843036E+03  0.00000000000E+00 0.  1.
</event>
<event>
 8    1  0.6840084E-009  0.1049681E+03  0.7561462E-02  0.1270183E+00
         -2   -1    0    0    0  501 -0.00000000000E+00  0.00000000000E+00  0.57869726054E+02  0.57869726054E+02  0.00000000000E+00 0.  1.
          2   -1    0    0  501    0  0.00000000000E+00 -0.00000000000E+00 -0.27436055785E+03  0.27436055785E+03  0.00000000000E+00 0. -1.
         25    2    1    2    0    0 -0.56961351527E+01 -0.34768800723E+02 -0.58087594753E+02  0.14234602296E+03  0.12508759383E+03 0.  0.
         23    2    1    2    0    0  0.56961351527E+01  0.34768800723E+02 -0.15840323704E+03  0.18988426094E+03  0.98605940940E+02 0.  0.
          5    1    3    3  502    0 -0.47639640120E+02 -0.40830777091E+02 -0.73798350058E+02  0.96955435846E+02  0.41800000000E+01 0. -1.
         -5    1    3    3    0  502  0.41943504968E+02  0.60619763681E+01  0.15710755305E+02  0.45390587116E+02  0.41800000000E+01 0. -1.
        -11    1    4    4    0    0 -0.29485582600E+02  0.56063704197E+02 -0.10227552805E+03  0.12030304297E+03  0.00000000000E+00 0. -1.
         11    1    4    4    0    0  0.35181717752E+02 -0.21294903474E+02 -0.56127708988E+02  0.69581217970E+02  0.00000000000E+00 0.  1.
</event>
<event>
 8    1  0.6840084E-009  0.1441913E+03  0.7561462E-02  0.1207798E+00
          2   -1    0    0  501    0  0.00000000000E+00  0.00000000000E+00  0.10622168540E+04  0.10622168540E+04  0.00000000000E+00 0.  1.
         -2   -1    0    0    0  501 -0.00000000000E+00 -0.00000000000E+00 -0.30747747724E+02  0.30747747724E+02  0.00000000000E+00 0. -1.
         25    2    1    2    0    0  0.82697271502E+02  0.10118447630E+03  0.36668780790E+03  0.40888153753E+03  0.12508807420E+03 0.  0.
         23    2    1    2    0    0 -0.82697271502E+02 -0.10118447630E+03  0.66478129841E+03  0.68408306424E+03  0.94648439485E+02 0.  0.
          5    1    3    3  502    0  0.34091293726E+02  0.44083535144E+02  0.29034623558E+02  0.62976631728E+02  0.41800000000E+01 0.  1.
         -5    1    3    3    0  502  0.48605977776E+02  0.57100941160E+02  0.33765318434E+03  0.34590490580E+03  0.41800000000E+01 0.  1.
        -11    1    4    4    0    0 -0.38992587007E+02 -0.10645703699E+03  0.53975126881E+03  0.55152964993E+03  0.00000000000E+00 0.  1.
         11    1    4    4    0    0 -0.43704684495E+02  0.52725606818E+01  0.12503002960E+03  0.13255341431E+03  0.00000000000E+00 0. -1.
</event>
<event>
 8    1  0.6840084E-009  0.1279375E+03  0.7561462E-02  0.1230549E+00
          1   -1    0    0  501    0  0.00000000000E+00  0.00000000000E+00  0.34477917165E+03  0.34477917165E+03  0.00000000000E+00 0. -1.
         -1   -1    0    0    0  501 -0.00000000000E+00 -0.00000000000E+00 -0.67745801984E+02  0.67745801984E+02  0.00000000000E+00 0.  1.
         25    2    1    2    0    0 -0.70351792297E+02 -0.32025139988E+02  0.25120697646E+03  0.29107860891E+03  0.12508727861E+03 0.  0.
         23    2    1    2    0    0  0.70351792297E+02  0.32025139988E+02  0.25826393212E+02  0.12144636473E+03  0.90040172420E+02 0.  0.
          5    1    3    3  502    0  0.13223836340E+02  0.32020942825E+02  0.29855985303E+02  0.45924534677E+02  0.41800000000E+01 0.  1.
         -5    1    3    3    0  502 -0.83575628637E+02 -0.64046082813E+02  0.22135099116E+03  0.24515407423E+03  0.41800000000E+01 0.  1.
        -11    1    4    4    0    0  0.31864616806E+02  0.60058818029E+02  0.28582391211E+02  0.73752074646E+02  0.00000000000E+00 0. -1.
         11    1    4    4    0    0  0.38487175491E+02 -0.28033678041E+02 -0.27559979988E+01  0.47694290085E+02  0.00000000000E+00 0.  1.
</event>
<event>
 8    1  0.6840084E-009  0.9584447E+02  0.7561462E-02  0.1289285E+00
         -1   -1    0    0    0  501 -0.00000000000E+00  0.00000000000E+00  0.16420636873E+03  0.16420636873E+03  0.00000000000E+00 0.  1.
          1   -1    0    0  501    0  0.00000000000E+00 -0.00000000000E+00 -0.99385099067E+02  0.99385099067E+02  0.00000000000E+00 0. -1.
         25    2    1    2    0    0  0.37193919200E+02 -0.17480392976E+02  0.94249240474E+02  0.16192953420E+03  0.12509717404E+03 0.  0.
         23    2    1    2    0    0 -0.37193919200E+02  0.17480392976E+02 -0.29427970806E+02  0.10166193360E+03  0.88205393901E+02 0.  0.
          5    1    3    3  502    0  0.64121762694E+02 -0.50404259116E+02  0.85630070935E+02  0.11833077045E+03  0.41800000000E+01 0. -1.
         -5    1    3    3    0  502 -0.26927843494E+02  0.32923866140E+02  0.86191695384E+01  0.43598763748E+02  0.41800000000E+01 0. -1.
        -11    1    4    4    0    0 -0.50195292713E+02  0.20011327058E+02 -0.52318987650E+02  0.75215005749E+02  0.00000000000E+00 0. -1.
         11    1    4    4    0    0  0.13001373513E+02 -0.25309340819E+01  0.22891016844E+02  0.26446927850E+02  0.00000000000E+00 0.  1.
</event>
<event>
 8    1  0.6840084E-009  0.1110571E+03  0.7561462E-02  0.1258625E+00
         -2   -1    0    0    0  501 -0.00000000000E+00  0.00000000000E+00  0.58318610219E+02  0.58318610219E+02  0.00000000000E+00 0.  1.
          2   -1    0    0  501    0  0.00000000000E+00 -0.00000000000E+00 -0.33141561358E+03  0.33141561358E+03  0.00000000000E+00 0. -1.
         25    2    1    2    0    0 -0.38806363598E+02 -0.70351037010E+02 -0.19586173685E+03  0.24589594013E+03  0.12509113137E+03 0.  0.
         23    2    1    2    0    0  0.38806363598E+02  0.70351037010E+02 -0.77235266516E+02  0.14383828367E+03  0.90933839637E+02 0.  0.
          5    1    3    3  502    0 -0.57036388612E+02 -0.44885977888E+02 -0.32722650354E+02  0.79725434355E+02  0.41800000000E+01 0. -1.
         -5    1    3    3    0  502  0.18230025014E+02 -0.25465059122E+02 -0.16313908649E+03  0.16617050578E+03  0.41800000000E+01 0. -1.
        -11    1    4    4    0    0  0.66657392797E+02  0.49560515824E+02 -0.69331453192E+02  0.10819567064E+03  0.00000000000E+00 0. -1.
         11    1    4    4    0    0 -0.27851029199E+02  0.20790521186E+02 -0.79038133245E+01  0.35642613031E+02  0.00000000000E+00 0.  1.
</event>
<event>
 8    1  0.6840084E-009  0.1005346E+03  0.7561462E-02  0.1279176E+00
          2   -1    0    0  501    0  0.00000000000E+00  0.00000000000E+00  0.64345104620E+03  0.64345104620E+03  0.00000000000E+00 0. -1.
         -2   -1    0    0    0  501 -0.00000000000E+00 -0.00000000000E+00 -0.24310399031E+02  0.24310399031E+02  0.00000000000E+00 0.  1.
         25    2    1    2    0    0  0.44703807300E+02 -0.25139164063E+02  0.44413485236E+03  0.46425658715E+03  0.12509198085E+03 0.  0.
         23    2    1    2    0    0 -0.44703807300E+02  0.25139164063E+02  0.17500579481E+03  0.20350485809E+03  0.90314954960E+02 0.  0.
          5    1    3    3  502    0  0.67716901653E+02 -0.48523581568E+02  0.40266000271E+03  0.41120878751E+03  0.41800000000E+01 0.  1.
         -5    1    3    3    0  502 -0.23013094353E+02  0.23384417505E+02  0.41474849647E+02  0.53047799643E+02  0.41800000000E+01 0.  1.
        -11    1    4    4    0    0 -0.40792274034E+02 -0.15587309804E+02  0.30363903983E+02  0.53187785373E+02  0.00000000000E+00 0.  1.
         11    1    4    4    0    0 -0.39115332664E+01  0.40726473867E+02  0.14464189083E+03  0.15031707271E+03  0.00000000000E+00 0. -1.
</event>
<event>
 8    1  0.6840084E-009  0.1616164E+03  0.7561462E-02  0.1186884E+00
         -2   -1    0    0    0  501 -0.00000000000E+00  0.00000000000E+00  0.10128545488E+03  0.10128545488E+03  0.00000000000E+00 0.  1.
          2   -1    0    0  501    0  0.00000000000E+00 -0.00000000000E+00 -0.28703018217E+03  0.28703018217E+03  0.00000000000E+00 0. -1.
         25    2    1    2    0    0 -0.11992691076E+03  0.31151079673E+02 -0.49105756904E+02  0.18278865701E+03  0.12508982404E+03 0.  0.
         23    2    1    2    0    0  0.11992691076E+03 -0.31151079673E+02 -0.13663897039E+03  0.20552698004E+03  0.90654716395E+02 0.  0.
          5    1    3    3  502    0  0.23925184252E+02 -0.22911725378E+01  0.59606695081E+01  0.25113062220E+02  0.41800000000E+01 0. -1.
         -5    1    3    3    0  502 -0.14385209502E+03  0.33442252211E+02 -0.55066426412E+02  0.15767559479E+03  0.41800000000E+01 0. -1.
        -11    1    4    4    0    0  0.11774442218E+03  0.21042365540E+01 -0.90059234816E+02  0.14825263081E+03  0.00000000000E+00 0.  1.
         11    1    4    4    0    0  0.21824885852E+01 -0.33255316227E+02 -0.46579735574E+02  0.57274349232E+02  0.00000000000E+00 0. -1.
</event>
<event>
 8    1  0.6840084E-009  0.1249722E+03  0.7561462E-02  0.1235113E+00
          1   -1    0    0  501    0  0.00000000000E+00  0.00000000000E+00  0.46715333482E+03  0.46715333482E+03  0.00000000000E+00 0. -1.
         -1   -1    0    0    0  501 -0.00000000000E+00 -0.00000000000E+00 -0.47453590640E+02  0.47453590640E+02  0.00000000000E+00 0.  1.
         25    2    1    2    0    0  0.81446354148E+02 -0.99148885655E+01  0.33276088662E+03  0.36483969005E+03  0.12508548340E+03 0.  0.
         23    2    1    2    0    0 -0.81446354148E+02  0.99148885655E+01  0.86938857561E+02  0.14976723540E+03  0.90222204735E+02 0.  0.
          5    1    3    3  502    0  0.89143647431E+02 -0.41061709161E+02  0.31023265075E+03  0.32541423421E+03  0.41800000000E+01 0.  1.
         -5    1    3    3    0  502 -0.76972932829E+01  0.31146820595E+02  0.22528235870E+02  0.39425455844E+02  0.41800000000E+01 0.  1.
        -11    1    4    4    0    0 -0.91307482683E+02 -0.15025189373E+02  0.79341866389E+02  0.12189316827E+03  0.00000000000E+00 0. -1.
         11    1    4    4    0    0  0.98611285347E+01  0.24940077938E+02  0.75969911720E+01  0.27874067131E+02  0.00000000000E+00 0.  1.
</event>
<event>
 8    1  0.6840084E-009  0.7783916E+02  0.7561462E-02  0.1335298E+00
          3   -1    0    0  501    0  0.00000000000E+00  0.00000000000E+00  0.32010556253E+02  0.32010556253E+02  0.00000000000E+00 0. -1.
         -3   -1    0    0    0  501 -0.00000000000E+00 -0.00000000000E+00 -0.51487496527E+03  0.51487496527E+03  0.00000000000E+00 0.  1.
         25    2    1    2    0    0 -0.47845153295E+02 -0.27915018065E+02 -0.35896223797E+03  0.38414906134E+03  0.12509279001E+03 0.  0.
         23    2    1    2    0    0  0.47845153295E+02  0.27915018065E+02 -0.12390217105E+03  0.16273646019E+03  0.89794212262E+02 0.  0.
          5    1    3    3  502    0 -0.81997878649E+01 -0.75313406580E+01 -0.33131190901E+03  0.33152527968E+03  0.41800000000E+01 0. -1.
         -5    1    3    3    0  502 -0.39645365430E+02 -0.20383677408E+02 -0.27650328960E+02  0.52623781661E+02  0.41800000000E+01 0. -1.
        -11    1    4    4    0    0 -0.88431533105E+01  0.40070647312E+02 -0.24874473472E+02  0.47985389099E+02  0.00000000000E+00 0. -1.
         11    1    4    4    0    0  0.56688306606E+02 -0.12155629247E+02 -0.99027697576E+02  0.11475107109E+03  0.00000000000E+00 0.  1.
</event>
<event>
 8    1  0.6840084E-009  0.1565980E+03  0.7561462E-02  0.1192592E+00
         -1   -1    0    0    0  501 -0.00000000000E+00  0.00000000000E+00  0.31273793828E+03  0.31273793828E+03  0.00000000000E+00 0.  1.
          1   -1    0    0  501    0  0.00000000000E+00 -0.00000000000E+00 -0.12096394212E+03  0.12096394212E+03  0.00000000000E+00 0. -1.
         25    2    1    2    0    0  0.15588600128E+02  0.15502594330E+03  0.14650319348E+03  0.24776262326E+03  0.12508830575E+03 0.  0.
         23    2    1    2    0    0 -0.15588600128E+02 -0.15502594330E+03  0.45270802680E+02  0.18593925713E+03  0.90818028042E+02 0.  0.
          5    1    3    3  502    0  0.15115048914E+02  0.53021467134E+02  0.13393682373E+03  0.14490095179E+03  0.41800000000E+01 0. -1.
         -5    1    3    3    0  502  0.47355121377E+00  0.10200447617E+03  0.12566369755E+02  0.10286167147E+03  0.41800000000E+01 0. -1.
        -11    1    4    4    0    0 -0.48815832883E+01 -0.42985855489E+02  0.58342309224E+02  0.72632215119E+02  0.00000000000E+00 0.  1.
         11    1    4    4    0    0 -0.10707016840E+02 -0.11204008781E+03 -0.13071506544E+02  0.11330704201E+03  0.00000000000E+00 0. -1.
</event>
<event>
 8    1  0.6840084E-009  0.9670390E+02  0.7561462E-02  0.1287384E+00
         -2   -1    0    0    0  501 -0.00000000000E+00  0.00000000000E+00  0.85738708378E+02  0.85738708378E+02  0.00000000000E+00 0.  1.
          2   -1    0    0  501    0  0.00000000000E+00 -0.00000000000E+00 -0.17073499842E+03  0.17073499842E+03  0.00000000000E+00 0. -1.
         25    2    1    2    0    0  0.18088273742E+02  0.30499815497E+02 -0.82865434984E+01  0.13028288591E+03  0.12509012417E+03 0.  0.
         23    2    1    2    0    0 -0.18088273742E+02 -0.30499815497E+02 -0.76709746541E+02  0.12619082089E+03  0.93713999322E+02 0.  0.
          5    1    3    3  502    0  0.10581553966E+02 -0.41104547798E+02  0.26501209003E+02  0.50212942681E+02  0.41800000000E+01 0. -1.
         -5    1    3    3    0  502  0.75067197759E+01  0.71604363296E+02 -0.34787752501E+02  0.80069943230E+02  0.41800000000E+01 0. -1.
        -11    1    4    4    0    0  0.32129733146E+01  0.21869378620E+02  0.87084213696E+01  0.23757725512E+02  0.00000000000E+00 0.  1.
         11    1    4    4    0    0 -0.21301247056E+02 -0.52369194117E+02 -0.85418167911E+02  0.10243309537E+03  0.00000000000E+00 0. -1.
</event>
<event>
 8    1  0.6840084E-009  0.8532184E+02  0.7561462E-02  0.1314593E+00
         -1   -1    0    0    0  501 -0.00000000000E+00  0.00000000000E+00  0.86185707571E+02  0.86185707571E+02  0.00000000000E+00 0.  1.
          1   -1    0    0  501    0  0.00000000000E+00 -0.00000000000E+00 -0.14680910767E+03  0.14680910767E+03  0.00000000000E+00 0. -1.
         25    2    1    2    0    0  0.14698449360E+02 -0.21847672010E+02 -0.38028525553E+02  0.13336662983E+03  0.12508846474E+03 0.  0.
         23    2    1    2    0    0 -0.14698449360E+02  0.21847672010E+02 -0.22594874544E+02  0.99628185409E+02  0.93391015555E+02 0.  0.
          5    1    3    3  502    0 -0.59388874512E+00 -0.64434530195E+02 -0.55037763778E+02  0.84845678894E+02  0.41800000000E+01 0. -1.
         -5    1    3    3    0  502  0.15292338105E+02  0.42586858185E+02  0.17009238226E+02  0.48520950937E+02  0.41800000000E+01 0. -1.
        -11    1    4    4    0    0 -0.35331172640E+02  0.17957296709E+02 -0.50821847416E+02  0.64448556539E+02  0.00000000000E+00 0. -1.
         11    1    4    4    0    0  0.20632723280E+02  0.38903753010E+01  0.28226972871E+02  0.35179628870E+02  0.00000000000E+00 0.  1.
</event>
<event>
 8    1  0.6840084E-009  0.1316470E+03  0.7561462E-02  0.1225032E+00
          2   -1    0    0  501    0  0.00000000000E+00  0.00000000000E+00  0.78919381584E+02  0.78919381584E+02  0.00000000000E+00 0. -1.
         -2   -1    0    0    0  501 -0.00000000000E+00 -0.00000000000E+00 -0.35105624670E+03  0.35105624670E+03  0.00000000000E+00 0.  1.
         25    2    1    2    0    0 -0.37003811329E+02  0.90284780571E+02 -0.24830938742E+03  0.29466201355E+03  0.12509007432E+03 0.  0.
         23    2    1    2    0    0  0.37003811329E+02 -0.90284780571E+02 -0.23827477698E+02  0.13531361473E+03  0.90671947058E+02 0.  0.
          5    1    3    3  502    0  0.10817452894E+02  0.99541666917E+02 -0.20952505319E+03  0.23225800536E+03  0.41800000000E+01 0.  1.
         -5    1    3    3    0  502 -0.47821264223E+02 -0.92568863463E+01 -0.38784334232E+02  0.62404008193E+02  0.41800000000E+01 0.  1.
        -11    1    4    4    0    0  0.13781638193E+01 -0.75672789973E+02 -0.48211562256E+02  0.89736420772E+02  0.00000000000E+00 0.  1.
         11    1    4    4    0    0  0.35625647510E+02 -0.14611990598E+02  0.24384084558E+02  0.45577193962E+02  0.00000000000E+00 0. -1.
</event>
<event>
 8    1  0.6840084E-009  0.1175252E+03  0.7561462E-02  0.1247236E+00
          2   -1    0    0  501    0  0.00000000000E+00  0.00000000000E+00  0.51786844817E+03  0.51786844817E+03  0.00000000000E+00 0. -1.
         -2   -1    0    0    0  501 -0.00000000000E+00 -0.00000000000E+00 -0.31541687204E+02  0.31541687204E+02  0.00000000000E+00 0.  1.
         25    2    1    2    0    0 -0.43291157674E+02  0.46796017908E+02  0.32628160532E+03  0.35520765254E+03  0.12509515910E+03 0.  0.
         23    2    1    2    0    0  0.43291157674E+02 -0.46796017908E+02  0.16004515565E+03  0.19420248284E+03  0.89644636581E+02 0.  0.
          5    1    3    3  502    0  0.22021637918E+02  0.54760655247E+02  0.23667912800E+03  0.24396344794E+03  0.41800000000E+01 0.  1.
         -5    1    3    3    0  502 -0.65312795591E+02 -0.79646373398E+01  0.89602477317E+02  0.11124420460E+03  0.41800000000E+01 0.  1.
        -11    1    4    4    0    0  0.70439327269E+02 -0.23737624858E+02  0.10542678511E+03  0.12899604908E+03  0.00000000000E+00 0.  1.
         11    1    4    4    0    0 -0.27148169596E+02 -0.23058393049E+02  0.54618370544E+02  0.65206433757E+02  0.00000000000E+00 0. -1.
</event>
<event>
 8    1  0.6840084E-009  0.1053139E+03  0.7561462E-02  0.1269502E+00
          1   -1    0    0  501    0  0.00000000000E+00  0.00000000000E+00  0.73901316095E+03  0.73901316095E+03  0.00000000000E+00 0. -1.
         -1   -1    0    0    0  501 -0.00000000000E+00 -0.00000000000E+00 -0.28833892126E+02  0.28833892126E+02  0.00000000000E+00 0.  1.
         25    2    1    2    0    0  0.70642079299E+02  0.36575334371E+02  0.53392230208E+03  0.55411959699E+03  0.12508974642E+03 0.  0.
         23    2    1    2    0    0 -0.70642079299E+02 -0.36575334371E+02  0.17625696675E+03  0.21372745609E+03  0.91021144286E+02 0.  0.
          5    1    3    3  502    0  0.13993070620E+02 -0.12969309143E+02  0.39973750735E+03  0.40021438778E+03  0.41800000000E+01 0.  1.
         -5    1    3    3    0  502  0.56649008679E+02  0.49544643514E+02  0.13418479473E+03  0.15390520921E+03  0.41800000000E+01 0.  1.
        -11    1    4    4    0    0  0.18540755945E+02  0.18110957340E+01  0.98667245078E+01  0.21080606047E+02  0.00000000000E+00 0.  1.
         11    1    4    4    0    0 -0.89182835245E+02 -0.38386430105E+02  0.16639024224E+03  0.19264685004E+03  0.00000000000E+00 0. -1.
</event>
<event>
 8    1  0.6840084E-009  0.1150646E+03  0.7561462E-02  0.1251468E+00
          1   -1    0    0  501    0  0.00000000000E+00  0.00000000000E+00  0.27360853888E+03  0.27360853888E+03  0.00000000000E+00 0. -1.
         -1   -1    0    0    0  501 -0.00000000000E+00 -0.00000000000E+00 -0.79880626319E+02  0.79880626319E+02  0.00000000000E+00 0.  1.
         25    2    1    2    0    0  0.37815287911E+02 -0.72814790550E+02  0.38754026359E+02  0.15453685519E+03  0.12509106815E+03 0.  0.
         23    2    1    2    0    0 -0.37815287911E+02  0.72814790550E+02  0.15497388621E+03  0.19895231001E+03  0.93984714345E+02 0.  0.
          5    1    3    3  502    0  0.13706633008E+02  0.34844348006E+02  0.19647393656E+02  0.42491091465E+02  0.41800000000E+01 0.  1.
         -5    1    3    3    0  502  0.24108654903E+02 -0.10765913856E+03  0.19106632703E+02  0.11204576373E+03  0.41800000000E+01 0.  1.
        -11    1    4    4    0    0 -0.15649348168E+02  0.30152523977E+02 -0.27316441733E+01  0.34081353848E+02  0.00000000000E+00 0.  1.
         11    1    4    4    0    0 -0.22165939743E+02  0.42662266573E+02  0.15770553038E+03  0.16487095616E+03  0.00000000000E+00 0. -1.
</event>
<event>
 8    1  0.6840084E-009  0.1619050E+03  0.7561462E-02  0.1186563E+00
          1   -1    0    0  501    0  0.00000000000E+00  0.00000000000E+00  0.17654541206E+03  0.17654541206E+03  0.00000000000E+00 0. -1.
         -1   -1    0    0    0  501 -0.00000000000E+00 -0.00000000000E+00 -0.17272705389E+03  0.17272705389E+03  0.00000000000E+00 0.  1.
         25    2    1    2    0    0  0.13322368950E+03  0.22261895148E+02 -0.17921751987E+02  0.18496377672E+03  0.12508503542E+03 0.  0.
         23    2    1    2    0    0 -0.13322368950E+03 -0.22261895148E+02  0.21740110156E+02  0.16430868922E+03  0.90997634837E+02 0.  0.
          5    1    3    3  502    0 -0.18784933099E+02  0.46326312943E+01 -0.24792625238E+02  0.31725094964E+02  0.41800000000E+01 0. -1.
         -5    1    3    3    0  502  0.15200862260E+03  0.17629263854E+02  0.68708732512E+01  0.15323868176E+03  0.41800000000E+01 0. -1.
        -11    1    4    4    0    0 -0.12983366790E+03 -0.37643368396E+02  0.39243707277E+02  0.14076175996E+03  0.00000000000E+00 0. -1.
         11    1    4    4    0    0 -0.33900215931E+01  0.15381473247E+02 -0.17503597121E+02  0.23546929266E+02  0.00000000000E+00 0.  1.
</event>
<event>
 8    1  0.6840084E-009  0.1086986E+03  0.7561462E-02  0.1262999E+00
         -2   -1    0    0    0  501 -0.00000000000E+00  0.00000000000E+00  0.14339893001E+02  0.14339893001E+02  0.00000000000E+00 0.  1.
          2   -1    0    0  501    0  0.00000000000E+00 -0.00000000000E+00 -0.97103051257E+03  0.97103051257E+03  0.00000000000E+00 0. -1.
         25    2    1    2    0    0 -0.15967888889E+02  0.36347947904E+02 -0.63906585184E+03  0.65240223231E+03  0.12508941978E+03 0.  0.
         23    2    1    2    0    0  0.15967888889E+02 -0.36347947904E+02 -0.31762476774E+03  0.33296817327E+03  0.91685138043E+02 0.  0.
          5    1    3    3  502    0  0.48030463981E+02  0.22906328500E+02 -0.15526406688E+03  0.16418291086E+03  0.41800000000E+01 0. -1.
         -5    1    3    3    0  502 -0.63998352870E+02  0.13441619404E+02 -0.48380178496E+03  0.48821932145E+03  0.41800000000E+01 0. -1.
        -11    1    4    4    0    0  0.53587655208E+02 -0.25460203225E+02 -0.16302103430E+03  0.17348117005E+03  0.00000000000E+00 0.  1.
         11    1    4    4    0    0 -0.37619766319E+02 -0.10887744679E+02 -0.15460373344E+03  0.15948700322E+03  0.00000000000E+00 0. -1.
</event>
<event>
 8    1  0.6840084E-009  0.1141557E+03  0.7561462E-02  0.1253062E+00
          2   -1    0    0  501    0  0.00000000000E+00  0.00000000000E+00  0.22937932917E+03  0.22937932917E+03  0.00000000000E+00 0. -1.
         -2   -1    0    0    0  501 -0.00000000000E+00 -0.00000000000E+00 -0.74528951355E+02  0.74528951355E+02  0.00000000000E+00 0.  1.
         25    2    1    2    0    0  0.23909051052E+02  0.59688632424E+02  0.12156405149E+03  0.18590261881E+03  0.12509032539E+03 0.  0.
         23    2    1    2    0    0 -0.23909051052E+02 -0.59688632424E+02  0.33286326333E+02  0.11800566172E+03  0.93182515062E+02 0.  0.
          5    1    3    3  502    0  0.47278515581E+02  0.82361067414E+02  0.11993122518E+03  0.15303455373E+03  0.41800000000E+01 0.  1.
         -5    1    3    3    0  502 -0.23369464528E+02 -0.22672434991E+02  0.16328263044E+01  0.32868065086E+02  0.41800000000E+01 0.  1.
        -11    1    4    4    0    0 -0.38249364742E+02  0.80259994985E+00 -0.13101031911E+02  0.40438782214E+02  0.00000000000E+00 0.  1.
         11    1    4    4    0    0  0.14340313689E+02 -0.60491232373E+02  0.46387358244E+02  0.77566879502E+02  0.00000000000E+00 0. -1.
</event>
<event>
 8    1  0.6840084E-009  0.8363483E+02  0.7561462E-02  0.1319042E+00
         -3   -1    0    0    0  501 -0.00000000000E+00  0.00000000000E+00  0.99046860546E+03  0.99046860546E+03  0.00000000000E+00 0.  1.
          3   -1    0    0  501    0  0.00000000000E+00 -0.00000000000E+00 -0.15622738214E+02  0.15622738214E+02  0.00000000000E+00 0. -1.
         25    2    1    2    0    0  0.11984760392E+02  0.56004174641E+02  0.63673128857E+03  0.65142469026E+03  0.12508913293E+03 0.  0.
         23    2    1    2    0    0 -0.11984760392E+02 -0.56004174641E+02  0.33811457867E+03  0.35466665341E+03  0.90481294597E+02 0.  0.
          5    1    3    3  502    0  0.12091691392E+02 -0.23086878294E+00  0.53465487985E+03  0.53480797979E+03  0.41800000000E+01 0. -1.
         -5    1    3    3    0  502 -0.10693100044E+00  0.56235043424E+02  0.10207640872E+03  0.11661671047E+03  0.41800000000E+01 0. -1.
        -11    1    4    4    0    0 -0.38496578195E+02 -0.27496300550E+01  0.20863819012E+03  0.21217785316E+03  0.00000000000E+00 0.  1.
         11    1    4    4    0    0  0.26511817803E+02 -0.53254544586E+02  0.12947638856E+03  0.14248880025E+03  0.00000000000E+00 0. -1.
</event>
<event>
 8    1  0.6840084E-009  0.1087740E+03  0.7561462E-02  0.1262857E+00
          1   -1    0    0  501    0  0.00000000000E+00  0.00000000000E+00  0.69535560088E+03  0.69535560088E+03  0.00000000000E+00 0. -1.
         -1   -1    0    0    0  501 -0.00000000000E+00 -0.00000000000E+00 -0.20441161953E+02  0.20441161953E+02  0.00000000000E+00 0.  1.
         25    2    1    2    0    0  0.34976486203E+02 -0.10599921680E+02  0.38811343252E+03  0.40940937173E+03  0.12509310223E+03 0.  0.
         23    2    1    2    0    0 -0.34976486203E+02  0.10599921680E+02  0.28680100640E+03  0.30638739110E+03  0.10140366476E+03 0.  0.
          5    1    3    3  502    0  0.24398504007E+02 -0.66529386665E+02  0.25217712477E+03  0.26197751992E+03  0.41800000000E+01 0.  1.
         -5    1    3    3    0  502  0.10577982196E+02  0.55929464985E+02  0.13593630776E+03  0.14743185181E+03  0.41800000000E+01 0.  1.
        -11    1    4    4    0    0  0.23048612092E+02  0.20232542631E+02  0.29876224518E+02  0.42815687454E+02  0.00000000000E+00 0.  1.
         11    1    4    4    0    0 -0.58025098295E+02 -0.96326209504E+01  0.25692478188E+03  0.26357170365E+03  0.00000000000E+00 0. -1.
</event>
<event>
 8    1  0.6840084E-009  0.1611497E+03  0.7561462E-02  0.1187405E+00
         -2   -1    0    0    0  501 -0.00000000000E+00  0.00000000000E+00  0.26472848748E+02  0.26472848748E+02  0.00000000000E+00 0.  1.
          2   -1    0    0  501    0  0.00000000000E+00 -0.00000000000E+00 -0.17540679531E+04  0.17540679531E+04  0.00000000000E+00 0. -1.
         25    2    1    2    0    0  0.13778037252E+02 -0.14191870368E+03 -0.13867186943E+04  0.13996308603E+04  0.12508818958E+03 0.  0.
         23    2    1    2    0    0 -0.13778037252E+02  0.14191870368E+03 -0.34087641001E+03  0.38090994152E+03  0.92546765921E+02 0.  0.
          5    1    3    3  502    0 -0.14627257274E+02 -0.11974672366E+03 -0.59708485136E+03  0.60916420332E+03  0.41800000000E+01 0.  1.
         -5    1    3    3    0  502  0.28405294526E+02 -0.22171980020E+02 -0.78963384296E+03  0.79046665698E+03  0.41800000000E+01 0.  1.
        -11    1    4    4    0    0 -0.19674547820E+02  0.15219776561E+03 -0.33305603543E+03  0.36671183567E+03  0.00000000000E+00 0. -1.
         11    1    4    4    0    0  0.58965105684E+01 -0.10279061927E+02 -0.78203745780E+01  0.14198105843E+02  0.00000000000E+00 0.  1.
</event>
<event>
 8    1  0.6840084E-009  0.1056232E+03  0.7561462E-02  0.1268897E+00
         -2   -1    0    0    0  501 -0.00000000000E+00  0.00000000000E+00  0.14645180006E+03  0.14645180006E+03  0.00000000000E+00 0.  1.
          2   -1    0    0  501    0  0.00000000000E+00 -0.00000000000E+00 -0.10011800095E+03  0.10011800095E+03  0.00000000000E+00 0. -1.
         25    2    1    2    0    0 -0.43454206331E+02  0.34298035251E+02  0.35131618100E+02  0.14123257405E+03  0.12509111125E+03 0.  0.
         23    2    1    2    0    0  0.43454206331E+02 -0.34298035251E+02  0.11202181013E+02  0.10533722695E+03  0.88914674001E+02 0.  0.
          5    1    3    3  502    0 -0.17395848206E+02  0.69494807017E+02  0.57429766343E+02  0.91911882797E+02  0.41800000000E+01 0.  1.
         -5    1    3    3    0  502 -0.26058358125E+02 -0.35196771765E+02 -0.22298148243E+02  0.49320691256E+02  0.41800000000E+01 0.  1.
        -11    1    4    4    0    0  0.19432063980E+02  0.24912727783E+02 -0.16556211960E+02  0.35670117333E+02  0.00000000000E+00 0. -1.
         11    1    4    4    0    0  0.24022142351E+02 -0.59210763035E+02  0.27758392973E+02  0.69667109619E+02  0.00000000000E+00 0.  1.
</event>
<event>
 8    1  0.6840084E-009  0.1619479E+03  0.7561462E-02  0.1186515E+00
          1   -1    0    0  501    0  0.00000000000E+00  0.00000000000E+00  0.76783810692E+03  0.76783810692E+03  0.00000000000E+00 0. -1.
         -1   -1    0    0    0  501 -0.00000000000E+00 -0.00000000000E+00 -0.39743332588E+02  0.39743332588E+02  0.00000000000E+00 0.  1.
         25    2    1    2    0    0  0.38540569351E+02  0.12850064162E+03  0.33153816103E+03  0.37889694122E+03  0.12509016534E+03 0.  0.
         23    2    1    2    0    0 -0.38540569351E+02 -0.12850064162E+03  0.39655661330E+03  0.42868449829E+03  0.92279256244E+02 0.  0.
          5    1    3    3  502    0  0.79479497555E+02  0.11022158738E+03  0.22007200807E+03  0.25867924152E+03  0.41800000000E+01 0.  1.
         -5    1    3    3    0  502 -0.40938928204E+02  0.18279054240E+02  0.11146615296E+03  0.12021769971E+03  0.41800000000E+01 0.  1.
        -11    1    4    4    0    0  0.11885488652E+02 -0.29673046577E+02  0.24038277954E+02  0.39994916435E+02  0.00000000000E+00 0. -1.
         11    1    4    4    0    0 -0.50426058003E+02 -0.98827595047E+02  0.37251833535E+03  0.38868958185E+03  0.00000000000E+00 0.  1.
</event>
<event>
 8    1  0.6840084E-009  0.9540293E+02  0.7561462E-02  0.1290271E+00
         -2   -1    0    0    0  501 -0.00000000000E+00  0.00000000000E+00  0.24588456943E+02  0.24588456943E+02  0.00000000000E+00 0.  1.
          2   -1    0    0  501    0  0.00000000000E+00 -0.00000000000E+00 -0.60455694625E+03  0.60455694625E+03  0.00000000000E+00 0. -1.
         25    2    1    2    0    0 -0.21215765777E+02  0.48935062340E+02 -0.35568002675E+03  0.38078808780E+03  0.12508611971E+03 0.  0.
         23    2    1    2    0    0  0.21215765777E+02 -0.48935062340E+02 -0.22428846256E+03  0.24835731539E+03  0.92364996760E+02 0.  0.
          5    1    3    3  502    0 -0.28173196803E+01 -0.39370183806E+02 -0.62689063945E+02  0.74197977071E+02  0.41800000000E+01 0. -1.
         -5    1    3    3    0  502 -0.18398446096E+02  0.88305246146E+02 -0.29299096280E+03  0.30659011073E+03  0.41800000000E+01 0. -1.
        -11    1    4    4    0    0  0.27939663460E+02 -0.31372412131E+02 -0.22562631711E+03  0.22950400435E+03  0.00000000000E+00 0. -1.
         11    1    4    4    0    0 -0.67238976837E+01 -0.17562650209E+02  0.13378545543E+01  0.18853311042E+02  0.00000000000E+00 0.  1.
</event>
<event>
 8    1  0.6840084E-009  0.1686808E+03  0.7561462E-02  0.1179231E+00
         -2   -1    0    0    0  501 -0.00000000000E+00  0.00000000000E+00  0.33619703446E+02  0.33619703446E+02  0.00000000000E+00 0.  1.
          2   -1    0    0  501    0  0.00000000000E+00 -0.00000000000E+00 -0.89326287737E+03  0.89326287737E+03  0.00000000000E+00 0. -1.
         25    2    1    2    0    0 -0.12158569476E+03  0.41706342147E+02 -0.36769469869E+03  0.40910781363E+03  0.12508921449E+03 0.  0.
         23    2    1    2    0    0  0.12158569476E+03 -0.41706342147E+02 -0.49194847524E+03  0.51777476719E+03  0.97749205129E+02 0.  0.
          5    1    3    3  502    0 -0.50446407381E+02  0.81296639939E+02 -0.22917770410E+03  0.24838251979E+03  0.41800000000E+01 0. -1.
         -5    1    3    3    0  502 -0.71139287381E+02 -0.39590297792E+02 -0.13851699460E+03  0.16072529384E+03  0.41800000000E+01 0. -1.
        -11    1    4    4    0    0  0.86703673403E+02  0.20190751090E+02 -0.30706315323E+03  0.31970763751E+03  0.00000000000E+00 0.  1.
         11    1    4    4    0    0  0.34882021360E+02 -0.61897093237E+02 -0.18488532201E+03  0.19806712968E+03  0.00000000000E+00 0. -1.
</event>
<event>
 8    1  0.6840084E-009  0.1252561E+03  0.7561462E-02  0.1234670E+00
          1   -1    0    0  501    0  0.00000000000E+00  0.00000000000E+00  0.14922926758E+02  0.14922926758E+02  0.00000000000E+00 0. -1.
         -1   -1    0    0    0  501 -0.00000000000E+00 -0.00000000000E+00 -0.10867023741E+04  0.10867023741E+04  0.00000000000E+00 0.  1.
         25    2    1    2    0    0  0.71897649711E+01 -0.68215107687E+02 -0.59815283096E+03  0.61492982093E+03  0.12508749678E+03 0.  0.
         23    2    1    2    0    0 -0.71897649711E+01  0.68215107687E+02 -0.47362661643E+03  0.48669547997E+03  0.88573838110E+02 0.  0.
          5    1    3    3  502    0 -0.54069136004E+02 -0.49362771525E+01 -0.22196737401E+03  0.22854939471E+03  0.41800000000E+01 0.  1.
         -5    1    3    3    0  502  0.61258900976E+02 -0.63278830535E+02 -0.37618545695E+03  0.38638042622E+03  0.41800000000E+01 0.  1.
        -11    1    4    4    0    0  0.35246726150E+02  0.51212253746E+02 -0.33516201304E+03  0.34087915986E+03  0.00000000000E+00 0.  1.
         11    1    4    4    0    0 -0.42436491121E+02  0.17002853941E+02 -0.13846460339E+03  0.14581632012E+03  0.00000000000E+00 0. -1.
</event>
<event>
 8    1  0.6840084E-009  0.8441845E+02  0.7561462E-02  0.1316960E+00
         -4   -1    0    0    0  501 -0.00000000000E+00  0.00000000000E+00  0.38274465582E+02  0.38274465582E+02  0.00000000000E+00 0.  1.
          4   -1    0    0  501    0  0.00000000000E+00 -0.00000000000E+00 -0.50817679563E+03  0.50817679563E+03  0.00000000000E+00 0. -1.
         25    2    1    2    0    0  0.57696870155E+02 -0.93051252636E+01 -0.13134310250E+03  0.19056403603E+03  0.12509247408E+03 0.  0.
         23    2    1    2    0    0 -0.57696870155E+02  0.93051252636E+01 -0.33855922755E+03  0.35588722519E+03  0.92832388265E+02 0.  0.
          5    1    3    3  502    0  0.22476717374E+02  0.11829135729E+01  0.22642647496E+02  0.32198819762E+02  0.41800000000E+01 0. -1.
         -5    1    3    3    0  502  0.35220152781E+02 -0.10488038836E+02 -0.15398575000E+03  0.15836521627E+03  0.41800000000E+01 0. -1.
        -11    1    4    4    0    0 -0.80257001733E+02  0.21805953162E+02 -0.27478537249E+03  0.28709525746E+03  0.00000000000E+00 0.  1.
         11    1    4    4    0    0  0.22560131578E+02 -0.12500827898E+02 -0.63773855058E+02  0.68791967728E+02  0.00000000000E+00 0. -1.
</event>
<event>
 8    1  0.6840084E-009  0.2277573E+03  0.7561462E-02  0.1128228E+00
         -1   -1    0    0    0  501 -0.00000000000E+00  0.00000000000E+00  0.68309025150E+02  0.68309025150E+02  0.00000000000E+00 0.  1.
          1   -1    0    0  501    0  0.00000000000E+00 -0.00000000000E+00 -0.88857669826E+03  0.88857669826E+03  0.00000000000E+00 0. -1.
         25    2    1    2    0    0  0.72029211428E+02 -0.19967964397E+03 -0.33070607763E+03  0.41240018871E+03  0.12508892177E+03 0.  0.
         23    2    1    2    0    0 -0.72029211428E+02  0.19967964397E+03 -0.48956159548E+03  0.54448553470E+03  0.10832254712E+03 0.  0.
          5    1    3    3  502    0  0.86442305033E+02 -0.17769786265E+03 -0.33129765781E+03  0.38577767297E+03  0.41800000000E+01 0. -1.
         -5    1    3    3    0  502 -0.14413093605E+02 -0.21981781322E+02  0.59158017903E+00  0.26622515742E+02  0.41800000000E+01 0. -1.
        -11    1    4    4    0    0  0.20910252921E+02  0.59398438184E+02 -0.80789830326E+02  0.10243246468E+03  0.00000000000E+00 0.  1.
         11    1    4    4    0    0 -0.92939464349E+02  0.14028120579E+03 -0.40877176516E+03  0.44205307003E+03  0.00000000000E+00 0. -1.
</event>
<event>
 8    1  0.6840084E-009  0.9042419E+02  0.7561462E-02  0.1301828E+00
         -1   -1    0    0    0  501 -0.00000000000E+00  0.00000000000E+00  0.59601179312E+02  0.59601179312E+02  0.00000000000E+00 0.  1.
          1   -1    0    0  501    0  0.00000000000E+00 -0.00000000000E+00 -0.21436111726E+03  0.21436111726E+03  0.00000000000E+00 0. -1.
         25    2    1    2    0    0  0.58669607235E+01 -0.32101501761E+02 -0.83905691695E+02  0.15411714133E+03  0.12508797108E+03 0.  0.
         23    2    1    2    0    0 -0.58669607235E+01  0.32101501761E+02 -0.70854246249E+02  0.11984515524E+03  0.90981368308E+02 0.  0.
          5    1    3    3  502    0 -0.32955297608E+02  0.56448774680E+01  0.18325200932E+02  0.38356246835E+02  0.41800000000E+01 0.  1.
         -5    1    3    3    0  502  0.38822258332E+02 -0.37746379229E+02 -0.10223089263E+03  0.11576089449E+03  0.41800000000E+01 0.  1.
        -11    1    4    4    0    0 -0.71119212658E+01 -0.29948682006E+02 -0.86470443506E+01  0.31973025412E+02  0.00000000000E+00 0. -1.
         11    1    4    4    0    0  0.12449605422E+01  0.62050183767E+02 -0.62207201899E+02  0.87872129827E+02  0.00000000000E+00 0.  1.
</event>
<event>
 8    1  0.6840084E-009  0.1107274E+03  0.7561462E-02  0.1259229E+00
          1   -1    0    0  501    0  0.00000000000E+00  0.00000000000E+00  0.12342723304E+03  0.12342723304E+03  0.00000000000E+00 0. -1.
         -1   -1    0    0    0  501 -0.00000000000E+00 -0.00000000000E+00 -0.11200409015E+03  0.11200409015E+03  0.00000000000E+00 0.  1.
         25    2    1    2    0    0  0.33954231653E+02 -0.29206967612E+02  0.11072204248E+02  0.13333404791E+03  0.12509771310E+03 0.  0.
         23    2    1    2    0    0 -0.33954231653E+02  0.29206967612E+02  0.35093863254E+00  0.10209727528E+03  0.91748534901E+02 0.  0.
          5    1    3    3  502    0 -0.43024768121E+02  0.34500066932E+01  0.22465147942E+02  0.48838391559E+02  0.41800000000E+01 0. -1.
         -5    1    3    3    0  502  0.76978999774E+02 -0.32656974305E+02 -0.11392943693E+02  0.84495656356E+02  0.41800000000E+01 0. -1.
        -11    1    4    4    0    0 -0.58181799669E+02  0.36959269182E+02 -0.17385128527E+02  0.71086933293E+02  0.00000000000E+00 0.  1.
         11    1    4    4    0    0  0.24227568015E+02 -0.77523015702E+01  0.17736067160E+02  0.31010341982E+02  0.00000000000E+00 0. -1.
</event>
<event>
 8    1  0.6840084E-009  0.1814292E+03  0.7561462E-02  0.1166427E+00
          3   -1    0    0  501    0  0.00000000000E+00  0.00000000000E+00  0.12912723961E+04  0.12912723961E+04  0.00000000000E+00 0. -1.
         -3   -1    0    0    0  501 -0.00000000000E+00 -0.00000000000E+00 -0.31175958167E+02  0.31175958167E+02  0.00000000000E+00 0.  1.
         25    2    1    2    0    0  0.16686910097E+03  0.18212492757E+02  0.61165095583E+03  0.64648130121E+03  0.12507673365E+03 0.  0.
         23    2    1    2    0    0 -0.16686910097E+03 -0.18212492757E+02  0.64844548213E+03  0.67596705308E+03  0.90955603484E+02 0.  0.
          5    1    3    3  502    0  0.11451954660E+03 -0.14666784644E+02  0.20650990006E+03  0.23662977908E+03  0.41800000000E+01 0. -1.
         -5    1    3    3    0  502  0.52349554375E+02  0.32879277400E+02  0.40514105576E+03  0.40985152213E+03  0.41800000000E+01 0. -1.
        -11    1    4    4    0    0 -0.75326680690E+02  0.30976537101E+02  0.20682583749E+03  0.22228491116E+03  0.00000000000E+00 0.  1.
         11    1    4    4    0    0 -0.91542420281E+02 -0.49189029858E+02  0.44161964464E+03  0.45368214193E+03  0.00000000000E+00 0. -1.
</event>
<event>
 8    1  0.6840084E-009  0.1773188E+03  0.7561462E-02  0.1170423E+00
          2   -1    0    0  501    0  0.00000000000E+00  0.00000000000E+00  0.37887783399E+03  0.37887783399E+03  0.00000000000E+00 0. -1.
         -2   -1    0    0    0  501 -0.00000000000E+00 -0.00000000000E+00 -0.14131498569E+03  0.14131498569E+03  0.00000000000E+00 0.  1.
         25    2    1    2    0    0  0.16493316012E+03  0.25569026749E+02 -0.93496803070E+01  0.20878760113E+03  0.12509245951E+03 0.  0.
         23    2    1    2    0    0 -0.16493316012E+03 -0.25569026749E+02  0.24691252861E+03  0.31140521855E+03  0.90281176991E+02 0.  0.
          5    1    3    3  502    0  0.16660895924E+03  0.71377993320E+01  0.25844987304E+02  0.16880441122E+03  0.41800000000E+01 0. -1.
         -5    1    3    3    0  502 -0.16757991178E+01  0.18431227417E+02 -0.35194667611E+02  0.39983189906E+02  0.41800000000E+01 0. -1.
        -11    1    4    4    0    0 -0.46614315438E+02 -0.19034488432E+02  0.15031072596E+03  0.15851977950E+03  0.00000000000E+00 0. -1.
         11    1    4    4    0    0 -0.11831884469E+03 -0.65345383170E+01  0.96601802650E+02  0.15288543905E+03  0.00000000000E+00 0.  1.
</event>
<event>
 8    1  0.6840084E-009  0.1123309E+03  0.7561462E-02  0.1256313E+00
          2   -1    0    0  501    0  0.00000000000E+00  0.00000000000E+00  0.34207332613E+03  0.34207332613E+03  0.00000000000E+00 0. -1.
         -2   -1    0    0    0  501 -0.00000000000E+00 -0.00000000000E+00 -0.56478379529E+02  0.56478379529E+02  0.00000000000E+00 0.  1.
         25    2    1    2    0    0 -0.86613765976E+02  0.81861448169E+01  0.15035158489E+03  0.21406070851E+03  0.12508968952E+03 0.  0.
         23    2    1    2    0    0  0.86613765976E+02 -0.81861448169E+01  0.13524336170E+03  0.18449099714E+03  0.90427892372E+02 0.  0.
          5    1    3    3  502    0 -0.74286366600E+01  0.47045019712E+02  0.10369798098E+03  0.11418915089E+03  0.41800000000E+01 0.  1.
         -5    1    3    3    0  502 -0.79185129316E+02 -0.38858874896E+02  0.46653603911E+02  0.99871557616E+02  0.41800000000E+01 0.  1.
        -11    1    4    4    0    0  0.42402376748E+02 -0.12281234908E+02  0.13288724312E+03  0.14002788890E+03  0.00000000000E+00 0. -1.
         11    1    4    4    0    0  0.44211389228E+02  0.40950900910E+01  0.23561185844E+01  0.44463108248E+02  0.00000000000E+00 0.  1.
</event>
<event>
 8    1  0.6840084E-009  0.1081489E+03  0.7561462E-02  0.1264037E+00
          2   -1    0    0  501    0  0.00000000000E+00  0.00000000000E+00  0.41545939380E+03  0.41545939380E+03  0.00000000000E+00 0.  1.
         -2   -1    0    0    0  501 -0.00000000000E+00 -0.00000000000E+00 -0.38239024436E+02  0.38239024436E+02  0.00000000000E+00 0. -1.
         25    2    1    2    0    0 -0.62486994736E+02  0.23418561622E+02  0.21762638274E+03  0.25973334644E+03  0.12508842971E+03 0.  0.
         23    2    1    2    0    0  0.62486994736E+02 -0.23418561622E+02  0.15959398662E+03  0.19396507179E+03  0.87744828745E+02 0.  0.
          5    1    3    3  502    0 -0.79010358141E+02  0.36077859452E+02  0.22167413274E+03  0.23812001630E+03  0.41800000000E+01 0.  1.
         -5    1    3    3    0  502  0.16523363405E+02 -0.12659297830E+02 -0.40477499963E+01  0.21613330142E+02  0.41800000000E+01 0.  1.
        -11    1    4    4    0    0  0.70449749625E+02 -0.46017907743E+02  0.10663367993E+03  0.13583650743E+03  0.00000000000E+00 0. -1.
         11    1    4    4    0    0 -0.79627548890E+01  0.22599346121E+02  0.52960306685E+02  0.58128564361E+02  0.00000000000E+00 0.  1.
</event>
<event>
 8    1  0.6840084E-009  0.1150233E+03  0.7561462E-02  0.1251540E+00
         -2   -1    0    0    0  501 -0.00000000000E+00  0.00000000000E+00  0.55475506357E+03  0.55475506357E+03  0.00000000000E+00 0.  1.
          2   -1    0    0  501    0  0.00000000000E+00 -0.00000000000E+00 -0.35118013344E+02  0.35118013344E+02  0.00000000000E+00 0. -1.
         25    2    1    2    0    0 -0.81164841610E+02  0.27771377176E+01  0.21929996970E+03  0.26520724364E+03  0.12508781460E+03 0.  0.
         23    2    1    2    0    0  0.81164841610E+02 -0.27771377176E+01  0.30033708053E+03  0.32466583328E+03  0.92790610246E+02 0.  0.
          5    1    3    3  502    0  0.33198866020E+01  0.33814826064E+02  0.14330014534E+03  0.14733250885E+03  0.41800000000E+01 0. -1.
         -5    1    3    3    0  502 -0.84484728212E+02 -0.31037688346E+02  0.75999824355E+02  0.11787473479E+03  0.41800000000E+01 0. -1.
        -11    1    4    4    0    0 -0.12247135122E+02  0.24415180641E+00  0.24907472088E+01  0.12500230016E+02  0.00000000000E+00 0. -1.
         11    1    4    4    0    0  0.93411976732E+02 -0.30212895240E+01  0.29784633332E+03  0.31216560326E+03  0.00000000000E+00 0.  1.
</event>
<event>
 8    1  0.6840084E-009  0.4534689E+03  0.7561462E-02  0.1026693E+00
          2   -1    0    0  501    0  0.00000000000E+00  0.00000000000E+00  0.31640555568E+04  0.31640555568E+04  0.00000000000E+00 0. -1.
         -2   -1    0    0    0  501 -0.00000000000E+00 -0.00000000000E+00 -0.66727242691E+02  0.66727242691E+02  0.00000000000E+00 0.  1.
         25    2    1    2    0    0  0.30976271147E+02 -0.44375577785E+03  0.14333500888E+04  0.15059942899E+04  0.12509038528E+03 0.  0.
         23    2    1    2    0    0 -0.30976271147E+02  0.44375577785E+03  0.16639782254E+04  0.17247885096E+04  0.90516013259E+02 0.  0.
          5    1    3    3  502    0  0.66985294123E+02 -0.13062968192E+03  0.45994972019E+03  0.48282746497E+03  0.41800000000E+01 0. -1.
         -5    1    3    3    0  502 -0.36009022976E+02 -0.31312609593E+03  0.97340036857E+03  0.10231668249E+04  0.41800000000E+01 0. -1.
        -11    1    4    4    0    0 -0.16406912231E+02  0.20335581735E+03  0.59466443156E+03  0.62868796822E+03  0.00000000000E+00 0.  1.
         11    1    4    4    0    0 -0.14569358917E+02  0.24039996051E+03  0.10693137938E+04  0.10961005414E+04  0.00000000000E+00 0. -1.
</event>
<event>
 8    1  0.6840084E-009  0.1129105E+03  0.7561462E-02  0.1255273E+00
          2   -1    0    0  501    0  0.00000000000E+00  0.00000000000E+00  0.44304637798E+02  0.44304637798E+02  0.00000000000E+00 0. -1.
         -2   -1    0    0    0  501 -0.00000000000E+00 -0.00000000000E+00 -0.41053593367E+03  0.41053593367E+03  0.00000000000E+00 0.  1.
         25    2    1    2    0    0  0.30938484901E+02 -0.62913725674E+02 -0.23637670957E+03  0.27647272999E+03  0.12509154599E+03 0.  0.
         23    2    1    2    0    0 -0.30938484901E+02  0.62913725674E+02 -0.12985458631E+03  0.17836784148E+03  0.10018755692E+03 0.  0.
          5    1    3    3  502    0  0.78450302950E+02 -0.51203481128E+02 -0.16595974056E+03  0.19062097051E+03  0.41800000000E+01 0.  1.
         -5    1    3    3    0  502 -0.47511818049E+02 -0.11710244546E+02 -0.70416969013E+02  0.85851759485E+02  0.41800000000E+01 0.  1.
        -11    1    4    4    0    0 -0.21912961324E+02  0.27355879363E+01  0.11190102712E+02  0.24756407535E+02  0.00000000000E+00 0. -1.
         11    1    4    4    0    0 -0.90255235777E+01  0.60178137738E+02 -0.14104468902E+03  0.15361143394E+03  0.00000000000E+00 0.  1.
</event>
<event>
 8    1  0.6840084E-009  0.1139088E+03  0.7561462E-02  0.1253498E+00
          2   -1    0    0  501    0  0.00000000000E+00  0.00000000000E+00  0.60820335175E+02  0.60820335175E+02  0.00000000000E+00 0. -1.
         -2   -1    0    0    0  501 -0.00000000000E+00 -0.00000000000E+00 -0.30259686067E+03  0.30259686067E+03  0.00000000000E+00 0.  1.
         25    2    1    2    0    0 -0.61728969995E+02  0.48535602661E+02 -0.10442137824E+03  0.18087881255E+03  0.12508856916E+03 0.  0.
         23    2    1    2    0    0  0.61728969995E+02 -0.48535602661E+02 -0.13735514726E+03  0.18253838330E+03  0.91036555492E+02 0.  0.
          5    1    3    3  502    0 -0.17553035472E+02 -0.29898664541E+02 -0.80338533431E+02  0.87600180077E+02  0.41800000000E+01 0. -1.
         -5    1    3    3    0  502 -0.44175934523E+02  0.78434267202E+02 -0.24082844809E+02  0.93278632476E+02  0.41800000000E+01 0. -1.
        -11    1    4    4    0    0  0.30850797008E+02  0.13352445820E+02 -0.96550104521E+02  0.10223493614E+03  0.00000000000E+00 0.  1.
         11    1    4    4    0    0  0.30878172987E+02 -0.61888048480E+02 -0.40805042737E+02  0.80303447152E+02  0.00000000000E+00 0. -1.
</event>
<event>
 8    1  0.6840084E-009  0.1138239E+03  0.7561462E-02  0.1253648E+00
          2   -1    0    0  501    0  0.00000000000E+00  0.00000000000E+00  0.25840870753E+03  0.25840870753E+03  0.00000000000E+00 0. -1.
         -2   -1    0    0    0  501 -0.00000000000E+00 -0.00000000000E+00 -0.64322722326E+02  0.64322722326E+02  0.00000000000E+00 0.  1.
         25    2    1    2    0    0 -0.10227143030E+02  0.55681990162E+02  0.15734135878E+03  0.20882779296E+03  0.12509062894E+03 0.  0.
         23    2    1    2    0    0  0.10227143030E+02 -0.55681990162E+02  0.36744626433E+02  0.11390363690E+03  0.91753977808E+02 0.  0.
          5    1    3    3  502    0 -0.25066235619E+02  0.84368935281E+02  0.61097432877E+02  0.10722314168E+03  0.41800000000E+01 0.  1.
         -5    1    3    3    0  502  0.14839092589E+02 -0.28686945119E+02  0.96243925900E+02  0.10160465128E+03  0.41800000000E+01 0.  1.
        -11    1    4    4    0    0 -0.11721155050E+02 -0.76096019076E+02  0.32730686385E+02  0.83661744101E+02  0.00000000000E+00 0. -1.
         11    1    4    4    0    0  0.21948298080E+02  0.20414028914E+02  0.40139400480E+01  0.30241892795E+02  0.00000000000E+00 0.  1.
</event>
<event>
 8    1  0.6840084E-009  0.2382699E+03  0.7561462E-02  0.1120951E+00
          1   -1    0    0  501    0  0.00000000000E+00  0.00000000000E+00  0.43810510295E+03  0.43810510295E+03  0.00000000000E+00 0. -1.
         -1   -1    0    0    0  501 -0.00000000000E+00 -0.00000000000E+00 -0.16669953265E+03  0.16669953265E+03  0.00000000000E+00 0.  1.
         25    2    1    2    0    0  0.19401363707E+03 -0.12206316566E+03  0.24376255398E+03  0.35721965508E+03  0.12507994032E+03 0.  0.
         23    2    1    2    0    0 -0.19401363707E+03  0.12206316566E+03  0.27643016328E+02  0.24758498052E+03  0.89406255079E+02 0.  0.
          5    1    3    3  502    0  0.10775344124E+03 -0.82093949049E+02  0.55848362942E+02  0.14658353459E+03  0.41800000000E+01 0.  1.
         -5    1    3    3    0  502  0.86260195839E+02 -0.39969216609E+02  0.18791419103E+03  0.21063612049E+03  0.41800000000E+01 0.  1.
        -11    1    4    4    0    0 -0.15542496620E+03  0.48561705436E+02  0.13739488173E+02  0.16341338038E+03  0.00000000000E+00 0. -1.
         11    1    4    4    0    0 -0.38588670873E+02  0.73501460223E+02  0.13903528155E+02  0.84171600138E+02  0.00000000000E+00 0.  1.
</event>
<event>
 8    1  0.6840084E-009  0.1123809E+03  0.7561462E-02  0.1256223E+00
         -2   -1    0    0    0  501 -0.00000000000E+00  0.00000000000E+00  0.57678687751E+02  0.57678687751E+02  0.00000000000E+00 0.  1.
          2   -1    0    0  501    0  0.00000000000E+00 -0.00000000000E+00 -0.31252889149E+03  0.31252889149E+03  0.00000000000E+00 0. -1.
         25    2    1    2    0    0 -0.49106546054E+02 -0.28687553051E+02 -0.65254553928E+02  0.15212275550E+03  0.12509495341E+03 0.  0.
         23    2    1    2    0    0  0.49106546054E+02  0.28687553051E+02 -0.18959564981E+03  0.21808482374E+03  0.91542620417E+02 0.  0.
          5    1    3    3  502    0  0.28034550148E+02  0.14118952941E+02 -0.54657755063E+02  0.63168215288E+02  0.41800000000E+01 0. -1.
         -5    1    3    3    0  502 -0.77141096202E+02 -0.42806505992E+02 -0.10596798865E+02  0.88954540214E+02  0.41800000000E+01 0. -1.
        -11    1    4    4    0    0 -0.25722215999E+02  0.10387650157E+02 -0.75348607878E+02  0.80292891222E+02  0.00000000000E+00 0. -1.
         11    1    4    4    0    0  0.74828762053E+02  0.18299902895E+02 -0.11424704193E+03  0.13779193252E+03  0.00000000000E+00 0.  1.
</event>
<event>
 8    1  0.6840084E-009  0.1159493E+03  0.7561462E-02  0.1249933E+00
          1   -1    0    0  501    0  0.00000000000E+00  0.00000000000E+00  0.86521369242E+02  0.86521369242E+02  0.00000000000E+00 0. -1.
         -1   -1    0    0    0  501 -0.00000000000E+00 -0.00000000000E+00 -0.20464929771E+03  0.20464929771E+03  0.00000000000E+00 0.  1.
         25    2    1    2    0    0 -0.28776884892E+02 -0.58241440229E+02 -0.11080030027E+03  0.17928832784E+03  0.12508966183E+03 0.  0.
         23    2    1    2    0    0  0.28776884892E+02  0.58241440229E+02 -0.73276281952E+01  0.11188233911E+03  0.90795314885E+02 0.  0.
          5    1    3    3  502    0  0.48980381101E+02 -0.13408880841E+02 -0.44030834739E+02  0.67342873610E+02  0.41800000000E+01 0. -1.
         -5    1    3    3    0  502 -0.77757265993E+02 -0.44832559388E+02 -0.66769465532E+02  0.11194545423E+03  0.41800000000E+01 0. -1.
        -11    1    4    4    0    0 -0.71029892404E+01  0.54562450460E+02  0.27702427511E+02  0.61603067670E+02  0.00000000000E+00 0. -1.
         11    1    4    4    0    0  0.35879874132E+02  0.36789897691E+01 -0.35030055706E+02  0.50279271437E+02  0.00000000000E+00 0.  1.
</event>
<event>
 8    1  0.6840084E-009  0.1272007E+03  0.7561462E-02  0.1231670E+00
          1   -1    0    0  501    0  0.00000000000E+00  0.00000000000E+00  0.49960435052E+03  0.49960435052E+03  0.00000000000E+00 0. -1.
         -1   -1    0    0    0  501 -0.00000000000E+00 -0.00000000000E+00 -0.43383059124E+02  0.43383059124E+02  0.00000000000E+00 0.  1.
         25    2    1    2    0    0  0.66384950545E+02  0.49882996649E+02  0.35086397113E+03  0.38164088993E+03  0.12509583374E+03 0.  0.
         23    2    1    2    0    0 -0.66384950545E+02 -0.49882996649E+02  0.10535732027E+03  0.16134651971E+03  0.89650763942E+02 0.  0.
          5    1    3    3  502    0  0.99701593874E+01  0.81291521308E+02  0.23550650503E+03  0.24937622547E+03  0.41800000000E+01 0.  1.
         -5    1    3    3    0  502  0.56414791157E+02 -0.31408524659E+02  0.11535746609E+03  0.13226466447E+03  0.41800000000E+01 0.  1.
        -11    1    4    4    0    0 -0.59290539144E+02 -0.20416064211E+01  0.18869486984E+02  0.62254266743E+02  0.00000000000E+00 0.  1.
         11    1    4    4    0    0 -0.70944114011E+01 -0.47841390228E+02  0.86487833284E+02  0.99092252967E+02  0.00000000000E+00 0. -1.
</event>
<event>
 8    1  0.6840084E-009  0.8743018E+02  0.7561462E-02  0.1309197E+00
          2   -1    0    0  501    0  0.00000000000E+00  0.00000000000E+00  0.98339838062E+03  0.98339838062E+03  0.00000000000E+00 0. -1.
         -2   -1    0    0    0  501 -0.00000000000E+00 -0.00000000000E+00 -0.12617251590E+02  0.12617251590E+02  0.00000000000E+00 0.  1.
         25    2    1    2    0    0  0.32850262224E+02 -0.38797241501E+01  0.62499212336E+03  0.63824513738E+03  0.12509000415E+03 0.  0.
         23    2    1    2    0    0 -0.32850262224E+02  0.38797241501E+01  0.34578900567E+03  0.35777049483E+03  0.85647525019E+02 0.  0.
          5    1    3    3  502    0  0.49324664025E+02  0.31057206778E+02  0.55602563130E+03  0.55908804999E+03  0.41800000000E+01 0. -1.
         -5    1    3    3    0  502 -0.16474401801E+02 -0.34936930928E+02  0.68966492053E+02  0.79157087387E+02  0.41800000000E+01 0. -1.
        -11    1    4    4    0    0 -0.46014988191E+02  0.25237730318E+02  0.30781385058E+03  0.31225580664E+03  0.00000000000E+00 0. -1.
         11    1    4    4    0    0  0.13164725967E+02 -0.21358006168E+02  0.37975155089E+02  0.45514688192E+02  0.00000000000E+00 0.  1.
</event>
<event>
 8    1  0.6840084E-009  0.1469800E+03  0.7561462E-02  0.1204234E+00
          2   -1    0    0  501    0  0.00000000000E+00  0.00000000000E+00  0.39884472323E+03  0.39884472323E+03  0.00000000000E+00 0. -1.
         -2   -1    0    0    0  501 -0.00000000000E+00 -0.00000000000E+00 -0.76561041890E+02  0.76561041890E+02  0.00000000000E+00 0.  1.
         25    2    1    2    0    0 -0.21873575147E+02  0.12711886683E+03  0.23268920782E+03  0.29399097475E+03  0.12509502869E+03 0.  0.
         23    2    1    2    0    0  0.21873575147E+02 -0.12711886683E+03  0.89594473519E+02  0.18141479037E+03  0.90810224567E+02 0.  0.
          5    1    3    3  502    0 -0.46149709603E+02  0.10228607179E+03  0.81353013144E+02  0.13866514099E+03  0.41800000000E+01 0.  1.
         -5    1    3    3    0  502  0.24276134457E+02  0.24832795044E+02  0.15133619467E+03  0.15532583376E+03  0.41800000000E+01 0.  1.
        -11    1    4    4    0    0  0.43453880476E+02 -0.48305483408E+02  0.72012997537E+01  0.65372151363E+02  0.00000000000E+00 0.  1.
         11    1    4    4    0    0 -0.21580305329E+02 -0.78813383424E+02  0.82393173765E+02  0.11604263901E+03  0.00000000000E+00 0. -1.
</event>
<event>
 8    1  0.6840084E-009  0.1287689E+03  0.7561462E-02  0.1229294E+00
         -1   -1    0    0    0  501 -0.00000000000E+00  0.00000000000E+00  0.18626891122E+03  0.18626891122E+03  0.00000000000E+00 0.  1.
          1   -1    0    0  501    0  0.00000000000E+00 -0.00000000000E+00 -0.11627233694E+03  0.11627233694E+03  0.00000000000E+00 0. -1.
         25    2    1    2    0    0 -0.82678638928E+02 -0.35923266286E+02  0.32068319990E+02  0.15748876160E+03  0.12509234384E+03 0.  0.
         23    2    1    2    0    0  0.82678638928E+02  0.35923266286E+02  0.37928254283E+02  0.14505248656E+03  0.10712344742E+03 0.  0.
          5    1    3    3  502    0 -0.57005993864E+02 -0.80702590826E+02  0.36727667521E+02  0.10549400677E+03  0.41800000000E+01 0.  1.
         -5    1    3    3    0  502 -0.25672645064E+02  0.44779324540E+02 -0.46593475303E+01  0.51994754834E+02  0.41800000000E+01 0.  1.
        -11    1    4    4    0    0 -0.74015625430E+01  0.11238375618E+02  0.49169092757E+02  0.50977288052E+02  0.00000000000E+00 0.  1.
         11    1    4    4    0    0  0.90080201471E+02  0.24684890668E+02 -0.11240838474E+02  0.94075198506E+02  0.00000000000E+00 0. -1.
</event>
<event>
 8    1  0.6840084E-009  0.1085835E+03  0.7561462E-02  0.1263216E+00
         -3   -1    0    0    0  501 -0.00000000000E+00  0.00000000000E+00  0.33286782271E+03  0.33286782271E+03  0.00000000000E+00 0.  1.
          3   -1    0    0  501    0  0.00000000000E+00 -0.00000000000E+00 -0.44334464332E+02  0.44334464332E+02  0.00000000000E+00 0. -1.
         25    2    1    2    0    0  0.11142813193E+02  0.87986635956E+01  0.24422680061E+03  0.27477033582E+03  0.12510167283E+03 0.  0.
         23    2    1    2    0    0 -0.11142813193E+02 -0.87986635956E+01  0.44306557771E+02  0.10243195122E+03  0.91255985026E+02 0.  0.
          5    1    3    3  502    0  0.20410451941E+02 -0.55911332975E+02  0.13128350437E+03  0.14420643059E+03  0.41800000000E+01 0. -1.
         -5    1    3    3    0  502 -0.92676387480E+01  0.64709996571E+02  0.11294329624E+03  0.13056390523E+03  0.41800000000E+01 0. -1.
        -11    1    4    4    0    0 -0.34012393347E+02 -0.40512259470E+02  0.20999061248E+02  0.56912622869E+02  0.00000000000E+00 0. -1.
         11    1    4    4    0    0  0.22869580153E+02  0.31713595875E+02  0.23307496523E+02  0.45519328355E+02  0.00000000000E+00 0.  1.
</event>
<event>
 8    1  0.6840084E-009  0.2753524E+03  0.7561462E-02  0.1098255E+00
         -2   -1    0    0    0  501 -0.00000000000E+00  0.00000000000E+00  0.60444469413E+02  0.60444469413E+02  0.00000000000E+00 0.  1.
          2   -1    0    0  501    0  0.00000000000E+00 -0.00000000000E+00 -0.15932299207E+04  0.15932299207E+04  0.00000000000E+00 0. -1.
         25    2    1    2    0    0  0.25880857424E+03 -0.29452026380E+02 -0.43769653315E+03  0.52447485219E+03  0.12508523293E+03 0.  0.
         23    2    1    2    0    0 -0.25880857424E+03  0.29452026380E+02 -0.10950889182E+04  0.11291995380E+04  0.89568732521E+02 0.  0.
          5    1    3    3  502    0  0.84131903246E+02  0.38575067614E+02 -0.20988237511E+03  0.22942165715E+03  0.41800000000E+01 0. -1.
         -5    1    3    3    0  502  0.17467667100E+03 -0.68027093994E+02 -0.22781415803E+03  0.29505319505E+03  0.41800000000E+01 0. -1.
        -11    1    4    4    0    0 -0.57174887471E+02  0.38148297543E+02 -0.38045814140E+03  0.38661693926E+03  0.00000000000E+00 0. -1.
         11    1    4    4    0    0 -0.20163368677E+03 -0.86962711635E+01 -0.71463077679E+03  0.74258259871E+03  0.00000000000E+00 0.  1.
</event>
<event>
 8    1  0.6840084E-009  0.1133887E+03  0.7561462E-02  0.1254420E+00
          2   -1    0    0  501    0  0.00000000000E+00  0.00000000000E+00  0.55317484746E+03  0.55317484746E+03  0.00000000000E+00 0. -1.
         -2   -1    0    0    0  501 -0.00000000000E+00 -0.00000000000E+00 -0.28171117865E+02  0.28171117865E+02  0.00000000000E+00 0.  1.
         25    2    1    2    0    0 -0.20757437104E+02 -0.35585852288E+02  0.39956917901E+03  0.42071345318E+03  0.12508819605E+03 0.  0.
         23    2    1    2    0    0  0.20757437104E+02  0.35585852288E+02  0.12543455058E+03  0.16063251215E+03  0.91497286300E+02 0.  0.
          5    1    3    3  502    0 -0.61659328575E+02  0.15350541461E+02  0.23840132678E+03  0.24675935024E+03  0.41800000000E+01 0.  1.
         -5    1    3    3    0  502  0.40901891472E+02 -0.50936393749E+02  0.16116785223E+03  0.17395410294E+03  0.41800000000E+01 0.  1.
        -11    1    4    4    0    0  0.97385161496E+01  0.65261319534E+02  0.66189171323E+02  0.93460606271E+02  0.00000000000E+00 0.  1.
         11    1    4    4    0    0  0.11018920954E+02 -0.29675467246E+02  0.59245379260E+02  0.67171905876E+02  0.00000000000E+00 0. -1.
</event>
<event>
 8    1  0.6840084E-009  0.1071787E+03  0.7561462E-02  0.1265886E+00
         -1   -1    0    0    0  501 -0.00000000000E+00  0.00000000000E+00  0.67612374853E+03  0.67612374853E+03  0.00000000000E+00 0.  1.
          1   -1    0    0  501    0  0.00000000000E+00 -0.00000000000E+00 -0.25130384941E+02  0.25130384941E+02  0.00000000000E+00 0. -1.
         25    2    1    2    0    0  0.15218068649E+02  0.51568214711E+02  0.49651059209E+03  0.51484114019E+03  0.12509101165E+03 0.  0.
         23    2    1    2    0    0 -0.15218068649E+02 -0.51568214711E+02  0.15448277150E+03  0.18641299328E+03  0.89409210888E+02 0.  0.
          5    1    3    3  502    0  0.67647708986E+02  0.41189170606E+02  0.23922147092E+03  0.25202607971E+03  0.41800000000E+01 0. -1.
         -5    1    3    3    0  502 -0.52429640337E+02  0.10379044105E+02  0.25728912117E+03  0.26281506048E+03  0.41800000000E+01 0. -1.
        -11    1    4    4    0    0  0.23253763838E+02 -0.11695408346E+02  0.43600104359E+01  0.26391851015E+02  0.00000000000E+00 0. -1.
         11    1    4    4    0    0 -0.38471832487E+02 -0.39872806364E+02  0.15012276107E+03  0.16002114227E+03  0.00000000000E+00 0.  1.
</event>
<event>
 8    1  0.6840084E-009  0.2267104E+03  0.7561462E-02  0.1128977E+00
         -1   -1    0    0    0  501 -0.00000000000E+00  0.00000000000E+00  0.44951950081E+02  0.44951950081E+02  0.00000000000E+00 0.  1.
          1   -1    0    0  501    0  0.00000000000E+00 -0.00000000000E+00 -0.12695323264E+04  0.12695323264E+04  0.00000000000E+00 0. -1.
         25    2    1    2    0    0 -0.89114241067E+02  0.19182218336E+03 -0.58072697673E+03  0.63057784559E+03  0.12508996705E+03 0.  0.
         23    2    1    2    0    0  0.89114241067E+02 -0.19182218336E+03 -0.64385339962E+03  0.68390643093E+03  0.91889651584E+02 0.  0.
          5    1    3    3  502    0 -0.93799349217E+01 -0.10593435980E+02 -0.12167459897E+03  0.12256583740E+03  0.41800000000E+01 0.  1.
         -5    1    3    3    0  502 -0.79734306146E+02  0.20241561934E+03 -0.45905237776E+03  0.50801200818E+03  0.41800000000E+01 0.  1.
        -11    1    4    4    0    0  0.94598637968E+02 -0.14001620315E+03 -0.56223812364E+03  0.58708189133E+03  0.00000000000E+00 0. -1.
         11    1    4    4    0    0 -0.54843969002E+01 -0.51805980212E+02 -0.81615275980E+02  0.96824539598E+02  0.00000000000E+00 0.  1.
</event>
<event>
 8    1  0.6840084E-009  0.1937732E+03  0.7561462E-02  0.1155102E+00
          2   -1    0    0  501    0  0.00000000000E+00  0.00000000000E+00  0.10538247409E+04  0.10538247409E+04  0.00000000000E+00 0.  1.
         -2   -1    0    0    0  501 -0.00000000000E+00 -0.00000000000E+00 -0.49494442791E+02  0.49494442791E+02  0.00000000000E+00 0. -1.
         25    2    1    2    0    0  0.24638762319E+02  0.19136751006E+03  0.66050733365E+03  0.69939059594E+03  0.12509466564E+03 0.  0.
         23    2    1    2    0    0 -0.24638762319E+02 -0.19136751006E+03  0.34382296448E+03  0.40392858777E+03  0.87837808462E+02 0.  0.
          5    1    3    3  502    0  0.25813238943E+02  0.10848510390E+03  0.18012311961E+03  0.21188947990E+03  0.41800000000E+01 0.  1.
         -5    1    3    3    0  502 -0.11744766242E+01  0.82882406160E+02  0.48038421403E+03  0.48750111604E+03  0.41800000000E+01 0.  1.
        -11    1    4    4    0    0 -0.21452675057E+02 -0.16072404100E+03  0.20318150602E+03  0.25995222448E+03  0.00000000000E+00 0. -1.
         11    1    4    4    0    0 -0.31860872613E+01 -0.30643469064E+02  0.14064145846E+03  0.14397636329E+03  0.00000000000E+00 0.  1.
</event>
<event>
 8    1  0.6840084E-009  0.5874720E+02  0.7561462E-02  0.1403166E+00
         -1   -1    0    0    0  501 -0.00000000000E+00  0.00000000000E+00  0.13670122307E+03  0.13670122307E+03  0.00000000000E+00 0.  1.
          1   -1    0    0  501    0  0.00000000000E+00 -0.00000000000E+00 -0.93895862112E+02  0.93895862112E+02  0.00000000000E+00 0. -1.
         25    2    1    2    0    0  0.12542315625E+02  0.92820439486E+01  0.71059038081E+01  0.12625948934E+03  0.12508996266E+03 0.  0.
         23    2    1    2    0    0 -0.12542315625E+02 -0.92820439486E+01  0.35699457154E+02  0.10433759584E+03  0.96790581383E+02 0.  0.
          5    1    3    3  502    0 -0.24221921545E+02  0.96917179784E+01 -0.50961732317E+02  0.57403845180E+02  0.41800000000E+01 0.  1.
         -5    1    3    3    0  502  0.36764237170E+02 -0.40967402985E+00  0.58067636125E+02  0.68855644160E+02  0.41800000000E+01 0.  1.
        -11    1    4    4    0    0  0.41493051018E+01 -0.28393475813E+02  0.61676014816E+02  0.68024532378E+02  0.00000000000E+00 0.  1.
         11    1    4    4    0    0 -0.16691620726E+02  0.19111431865E+02 -0.25976557662E+02  0.36313063467E+02  0.00000000000E+00 0. -1.
</event>
<event>
 8    1  0.6840084E-009  0.2029694E+03  0.7561462E-02  0.1147258E+00
         -1   -1    0    0    0  501 -0.00000000000E+00  0.00000000000E+00  0.23732908148E+03  0.23732908148E+03  0.00000000000E+00 0.  1.
          1   -1    0    0  501    0  0.00000000000E+00 -0.00000000000E+00 -0.21561149818E+03  0.21561149818E+03  0.00000000000E+00 0. -1.
         25    2    1    2    0    0 -0.10522679705E+03 -0.13080384318E+03  0.10808432580E+03  0.23560903455E+03  0.12508825473E+03 0.  0.
         23    2    1    2    0    0  0.10522679705E+03  0.13080384318E+03 -0.86366742494E+02  0.21733154511E+03  0.10766365257E+03 0.  0.
          5    1    3    3  502    0  0.27217390986E+02 -0.26877895687E+02  0.35054338542E+02  0.52052729989E+02  0.41800000000E+01 0. -1.
         -5    1    3    3    0  502 -0.13244418804E+03 -0.10392594749E+03  0.73029987255E+02  0.18355630456E+03  0.41800000000E+01 0. -1.
        -11    1    4    4    0    0  0.33840694054E+02 -0.14768395975E+02 -0.21323430383E+02  0.42637856150E+02  0.00000000000E+00 0. -1.
         11    1    4    4    0    0  0.71386102997E+02  0.14557223915E+03 -0.65043312111E+02  0.17469368896E+03  0.00000000000E+00 0.  1.
</event>
<event>
 8    1  0.6840084E-009  0.8441770E+02  0.7561462E-02  0.1316962E+00
         -1   -1    0    0    0  501 -0.00000000000E+00  0.00000000000E+00  0.78776807845E+02  0.78776807845E+02  0.00000000000E+00 0.  1.
          1   -1    0    0  501    0  0.00000000000E+00 -0.00000000000E+00 -0.30904385175E+03  0.30904385175E+03  0.00000000000E+00 0. -1.
         25    2    1    2    0    0  0.68767265428E+02 -0.57643559866E+01 -0.14661259549E+02  0.14361303112E+03  0.12509030970E+03 0.  0.
         23    2    1    2    0    0 -0.68767265428E+02  0.57643559866E+01 -0.21560578436E+03  0.24420762848E+03  0.91593378392E+02 0.  0.
          5    1    3    3  502    0  0.11187264463E+02  0.10869662422E+02  0.51659838374E+02  0.54125001138E+02  0.41800000000E+01 0. -1.
         -5    1    3    3    0  502  0.57580000965E+02 -0.16634018408E+02 -0.66321097923E+02  0.89488029978E+02  0.41800000000E+01 0. -1.
        -11    1    4    4    0    0 -0.31453976509E+02 -0.28129656618E+02 -0.29732973348E+02  0.51620537810E+02  0.00000000000E+00 0.  1.
         11    1    4    4    0    0 -0.37313288919E+02  0.33894012604E+02 -0.18587281101E+03  0.19258709067E+03  0.00000000000E+00 0. -1.
</event>
<event>
 8    1  0.6840084E-009  0.1015848E+03  0.7561462E-02  0.1276998E+00
          2   -1    0    0  501    0  0.00000000000E+00  0.00000000000E+00  0.30574172272E+03  0.30574172272E+03  0.00000000000E+00 0. -1.
         -2   -1    0    0    0  501 -0.00000000000E+00 -0.00000000000E+00 -0.51358769613E+02  0.51358769613E+02  0.00000000000E+00 0.  1.
         25    2    1    2    0    0  0.61873374301E+02 -0.23973287906E+01  0.15497212022E+03  0.20856600779E+03  0.12509740176E+03 0.  0.
         23    2    1    2    0    0 -0.61873374301E+02  0.23973287906E+01  0.99410832889E+02  0.14853448455E+03  0.91355994718E+02 0.  0.
          5    1    3    3  502    0  0.86591966426E+02  0.19987552017E+02  0.58677694491E+02  0.10657492724E+03  0.41800000000E+01 0.  1.
         -5    1    3    3    0  502 -0.24718592125E+02 -0.22384880808E+02  0.96294425730E+02  0.10199108055E+03  0.41800000000E+01 0.  1.
        -11    1    4    4    0    0 -0.12765137623E+02  0.23813143749E+02 -0.82751465399E+01  0.28257611434E+02  0.00000000000E+00 0.  1.
         11    1    4    4    0    0 -0.49108236678E+02 -0.21415814958E+02  0.10768597943E+03  0.12027687311E+03  0.00000000000E+00 0. -1.
</event>
<event>
 8    1  0.6840084E-009  0.1542935E+03  0.7561462E-02  0.1195294E+00
         -1   -1    0    0    0  501 -0.00000000000E+00  0.00000000000E+00  0.51370936018E+02  0.51370936018E+02  0.00000000000E+00 0.  1.
          1   -1    0    0  501    0  0.00000000000E+00 -0.00000000000E+00 -0.59803652293E+03  0.59803652293E+03  0.00000000000E+00 0. -1.
         25    2    1    2    0    0  0.11291111297E+03 -0.81592837379E+01 -0.42067285032E+03  0.45324340234E+03  0.12509373057E+03 0.  0.
         23    2    1    2    0    0 -0.11291111297E+03  0.81592837379E+01 -0.12599273660E+03  0.19616405661E+03  0.98947835185E+02 0.  0.
          5    1    3    3  502    0 -0.24676587687E+02  0.14749473477E+02 -0.66294884932E+02  0.72380695741E+02  0.41800000000E+01 0. -1.
         -5    1    3    3    0  502  0.13758770065E+03 -0.22908757215E+02 -0.35437796538E+03  0.38086270660E+03  0.41800000000E+01 0. -1.
        -11    1    4    4    0    0 -0.68562298124E+02  0.45274045817E+02 -0.10779756894E+03  0.13553908594E+03  0.00000000000E+00 0. -1.
         11    1    4    4    0    0 -0.44348814842E+02 -0.37114762080E+02 -0.18195167654E+02  0.60624970664E+02  0.00000000000E+00 0.  1.
</event>
<event>
 8    1  0.6840084E-009  0.9123184E+02  0.7561462E-02  0.1299896E+00
          3   -1    0    0  501    0  0.00000000000E+00  0.00000000000E+00  0.93000773591E+02  0.93000773591E+02  0.00000000000E+00 0. -1.
         -3   -1    0    0    0  501 -0.00000000000E+00 -0.00000000000E+00 -0.13148044010E+03  0.13148044010E+03  0.00000000000E+00 0.  1.
         25    2    1    2    0    0  0.26294721970E+01 -0.28628267915E+01  0.15557911430E+02  0.12610889844E+03  0.12508515402E+03 0.  0.
         23    2    1    2    0    0 -0.26294721970E+01  0.28628267915E+01 -0.54037577940E+02  0.98372315252E+02  0.82109333679E+02 0.  0.
          5    1    3    3  502    0  0.25659389076E+00 -0.63839214984E+02  0.74774441785E+01  0.64411922667E+02  0.41800000000E+01 0. -1.
         -5    1    3    3    0  502  0.23728783062E+01  0.60976388193E+02  0.80804672517E+01  0.61696975773E+02  0.41800000000E+01 0. -1.
        -11    1    4    4    0    0  0.27289202529E+02  0.26518164302E+00  0.88438243862E+01  0.28687699904E+02  0.00000000000E+00 0. -1.
         11    1    4    4    0    0 -0.29918674726E+02  0.25976451485E+01 -0.62881402327E+02  0.69684615348E+02  0.00000000000E+00 0.  1.
</event>
<event>
 8    1  0.6840084E-009  0.1117080E+03  0.7561462E-02  0.1257439E+00
         -2   -1    0    0    0  501 -0.00000000000E+00  0.00000000000E+00  0.49826458034E+02  0.49826458034E+02  0.00000000000E+00 0.  1.
          2   -1    0    0  501    0  0.00000000000E+00 -0.00000000000E+00 -0.51715768127E+03  0.51715768127E+03  0.00000000000E+00 0. -1.
         25    2    1    2    0    0  0.98305920561E+01  0.68405212351E+02 -0.41948766437E+03  0.44316194579E+03  0.12508675397E+03 0.  0.
         23    2    1    2    0    0 -0.98305920561E+01 -0.68405212351E+02 -0.47843558865E+02  0.12382219352E+03  0.90923131630E+02 0.  0.
          5    1    3    3  502    0  0.36682014372E+02 -0.82275320798E+01 -0.39962547311E+02  0.55024903908E+02  0.41800000000E+01 0. -1.
         -5    1    3    3    0  502 -0.26851422316E+02  0.76632744431E+02 -0.37952511706E+03  0.38813704188E+03  0.41800000000E+01 0. -1.
        -11    1    4    4    0    0 -0.43647352246E+02 -0.29231154564E+02 -0.49312100132E+02  0.72050225361E+02  0.00000000000E+00 0. -1.
         11    1    4    4    0    0  0.33816760190E+02 -0.39174057787E+02  0.14685412665E+01  0.51771968156E+02  0.00000000000E+00 0.  1.
</event>
<event>
 8    1  0.6840084E-009  0.1080086E+03  0.7561462E-02  0.1264303E+00
          3   -1    0    0  501    0  0.00000000000E+00  0.00000000000E+00  0.35715436011E+03  0.35715436011E+03  0.00000000000E+00 0. -1.
         -3   -1    0    0    0  501 -0.00000000000E+00 -0.00000000000E+00 -0.53336283425E+02  0.53336283425E+02  0.00000000000E+00 0.  1.
         25    2    1    2    0    0  0.28120639117E+02 -0.78121182592E+02  0.13362731627E+03  0.20099083383E+03  0.12508943246E+03 0.  0.
         23    2    1    2    0    0 -0.28120639117E+02  0.78121182592E+02  0.17019076041E+03  0.20949980971E+03  0.89619115288E+02 0.  0.
          5    1    3    3  502    0  0.45471297526E+02  0.57442262752E+01  0.48472582429E+01  0.46277460461E+02  0.41800000000E+01 0. -1.
         -5    1    3    3    0  502 -0.17350658409E+02 -0.83865408868E+02  0.12878005803E+03  0.15471337337E+03  0.41800000000E+01 0. -1.
        -11    1    4    4    0    0 -0.22897868500E+02  0.42749468467E+02  0.16665799066E+03  0.17357049083E+03  0.00000000000E+00 0. -1.
         11    1    4    4    0    0 -0.52227706175E+01  0.35371714125E+02  0.35327697522E+01  0.35929318880E+02  0.00000000000E+00 0.  1.
</event>
<event>
 8    1  0.6840084E-009  0.1060642E+03  0.7561462E-02  0.1268037E+00
         -2   -1    0    0    0  501 -0.00000000000E+00  0.00000000000E+00  0.22788656072E+03  0.22788656072E+03  0.00000000000E+00 0.  1.
          2   -1    0    0  501    0  0.00000000000E+00 -0.00000000000E+00 -0.70014431939E+02  0.70014431939E+02  0.00000000000E+00 0. -1.
         25    2    1    2    0    0 -0.39416551216E+02 -0.26224371123E+02  0.36289986027E+02  0.13859038348E+03  0.12509575995E+03 0.  0.
         23    2    1    2    0    0  0.39416551216E+02  0.26224371123E+02  0.12158214276E+03  0.15931060918E+03  0.91412639219E+02 0.  0.
          5    1    3    3  502    0 -0.58934021326E+02  0.17084203871E+02 -0.20133838658E+02  0.64714239164E+02  0.41800000000E+01 0. -1.
         -5    1    3    3    0  502  0.19517470109E+02 -0.43308574994E+02  0.56423824685E+02  0.73876144320E+02  0.41800000000E+01 0. -1.
        -11    1    4    4    0    0 -0.29878551985E+02  0.12004300459E+02  0.37241413800E+02  0.49231636171E+02  0.00000000000E+00 0.  1.
         11    1    4    4    0    0  0.69295103202E+02  0.14220070664E+02  0.84340728957E+02  0.11007897301E+03  0.00000000000E+00 0. -1.
</event>
<event>
 7    1  0.6840084E-009  0.6237136E+02  0.7561462E-02  0.1388141E+00
          2   -1    0    0  501    0  0.00000000000E+00  0.00000000000E+00  0.77126123335E+03  0.77126123335E+03  0.00000000000E+00 0. -1.
         -2   -1    0    0    0  501 -0.00000000000E+00 -0.00000000000E+00 -0.32306627008E+02  0.32306627008E+02  0.00000000000E+00 0.  1.
         23    2    1    2    0    0  0.94807477325E+01  0.80802312408E+01  0.40159272485E+02  0.93592025422E+02  0.83615341544E+02 0.  0.
          5    1    1    2  502    0  0.16332695441E+02 -0.21868480818E+02  0.30952823532E+02  0.41479357254E+02  0.41800000000E+01 0.  1.
         -5    1    1    2    0  502 -0.25813443174E+02  0.13788249577E+02  0.66784251032E+03  0.66849647768E+03  0.41800000000E+01 0.  1.
        -11    1    3    3    0    0 -0.26743244572E+02 -0.80302870222E+01 -0.99978195005E+01  0.29658776688E+02  0.00000000000E+00 0.  1.
         11    1    3    3    0    0  0.36223992304E+02  0.16110518263E+02  0.50157091985E+02  0.63933248733E+02  0.00000000000E+00 0. -1.
</event>
<event>
 8    1  0.6840084E-009  0.8811228E+02  0.7561462E-02  0.1307489E+00
         -2   -1    0    0    0  501 -0.00000000000E+00  0.00000000000E+00  0.15527451883E+02  0.15527451883E+02  0.00000000000E+00 0.  1.
          2   -1    0    0  501    0  0.00000000000E+00 -0.00000000000E+00 -0.11822226883E+04  0.11822226883E+04  0.00000000000E+00 0. -1.
         25    2    1    2    0    0  0.15664823056E+02  0.53743828211E+02 -0.90111715584E+03  0.91147882442E+03  0.12509089922E+03 0.  0.
         23    2    1    2    0    0 -0.15664823056E+02 -0.53743828211E+02 -0.26557808055E+03  0.28627131574E+03  0.91026169816E+02 0.  0.
          5    1    3    3  502    0  0.10223047005E+02  0.71225572919E+02 -0.25239429922E+03  0.26248418544E+03  0.41800000000E+01 0. -1.
         -5    1    3    3    0  502  0.54417760503E+01 -0.17481744708E+02 -0.64872285662E+03  0.64899463898E+03  0.41800000000E+01 0. -1.
        -11    1    4    4    0    0 -0.24833357541E+02 -0.65736989813E+02 -0.26129493321E+03  0.27057917436E+03  0.00000000000E+00 0. -1.
         11    1    4    4    0    0  0.91685344849E+01  0.11993161602E+02 -0.42831473429E+01  0.15692141376E+02  0.00000000000E+00 0.  1.
</event>
<event>
 8    1  0.6840084E-009  0.5617943E+02  0.7561462E-02  0.1414602E+00
          3   -1    0    0  501    0  0.00000000000E+00  0.00000000000E+00  0.11162270142E+03  0.11162270142E+03  0.00000000000E+00 0. -1.
         -3   -1    0    0    0  501 -0.00000000000E+00 -0.00000000000E+00 -0.17923261250E+03  0.17923261250E+03  0.00000000000E+00 0.  1.
         25    2    1    2    0    0  0.50255666400E+01  0.22597144423E+02 -0.12630434033E+03  0.17926662492E+03  0.12509136328E+03 0.  0.
         23    2    1    2    0    0 -0.50255666400E+01 -0.22597144423E+02  0.58694429258E+02  0.11158868900E+03  0.92038645308E+02 0.  0.
          5    1    3    3  502    0  0.10699201627E+02  0.50731466837E-01 -0.14724899375E+03  0.14769635761E+03  0.41800000000E+01 0. -1.
         -5    1    3    3    0  502 -0.56736349874E+01  0.22546412956E+02  0.20944653421E+02  0.31570267311E+02  0.41800000000E+01 0. -1.
        -11    1    4    4    0    0 -0.99673158565E+01 -0.49196174886E+02  0.66605034828E+02  0.83401688672E+02  0.00000000000E+00 0.  1.
         11    1    4    4    0    0  0.49417492165E+01  0.26599030463E+02 -0.79106055701E+01  0.28187000326E+02  0.00000000000E+00 0. -1.
</event>
<event>
 8    1  0.6840084E-009  0.8502834E+02  0.7561462E-02  0.1315358E+00
          2   -1    0    0  501    0  0.00000000000E+00  0.00000000000E+00  0.54733919323E+03  0.54733919323E+03  0.00000000000E+00 0. -1.
         -2   -1    0    0    0  501 -0.00000000000E+00 -0.00000000000E+00 -0.38141677240E+02  0.38141677240E+02  0.00000000000E+00 0.  1.
         25    2    1    2    0    0  0.70849011183E+02 -0.40647600927E+02  0.38448000497E+03  0.41248526564E+03  0.12508960910E+03 0.  0.
         23    2    1    2    0    0 -0.70849011183E+02  0.40647600927E+02  0.12471751103E+03  0.17299560483E+03  0.87756548977E+02 0.  0.
          5    1    3    3  502    0  0.11796019151E+02  0.50835126231E+01  0.29731210157E+03  0.29761879361E+03  0.41800000000E+01 0.  1.
         -5    1    3    3    0  502  0.59052992032E+02 -0.45731113551E+02  0.87167903397E+02  0.11486647203E+03  0.41800000000E+01 0.  1.
        -11    1    4    4    0    0 -0.47506332257E+02  0.28950835982E+02  0.11503078469E+02  0.56809535492E+02  0.00000000000E+00 0.  1.
         11    1    4    4    0    0 -0.23342678926E+02  0.11696764945E+02  0.11321443256E+03  0.11618606934E+03  0.00000000000E+00 0. -1.
</event>
<event>
 8    1  0.6840084E-009  0.1033586E+03  0.7561462E-02  0.1273388E+00
         -1   -1    0    0    0  501 -0.00000000000E+00  0.00000000000E+00  0.44332757357E+02  0.44332757357E+02  0.00000000000E+00 0.  1.
          1   -1    0    0  501    0  0.00000000000E+00 -0.00000000000E+00 -0.28056576115E+03  0.28056576115E+03  0.00000000000E+00 0. -1.
         25    2    1    2    0    0 -0.23830961645E+02 -0.13935727007E+02 -0.14083666912E+03  0.19038008812E+03  0.12508993310E+03 0.  0.
         23    2    1    2    0    0  0.23830961645E+02  0.13935727007E+02 -0.95396334680E+02  0.13451843039E+03  0.90733831754E+02 0.  0.
          5    1    3    3  502    0  0.44607314049E+02  0.71520013876E+01 -0.94925999203E+02  0.10521112734E+03  0.41800000000E+01 0. -1.
         -5    1    3    3    0  502 -0.68438275694E+02 -0.21087728394E+02 -0.45910669914E+02  0.85168960782E+02  0.41800000000E+01 0. -1.
        -11    1    4    4    0    0 -0.24933232350E+02 -0.18498675093E+02 -0.13544261664E+02  0.33872025030E+02  0.00000000000E+00 0.  1.
         11    1    4    4    0    0  0.48764193995E+02  0.32434402100E+02 -0.81852073015E+02  0.10064640536E+03  0.00000000000E+00 0. -1.
</event>
<event>
 8    1  0.6840084E-009  0.1028891E+03  0.7561462E-02  0.1274335E+00
          1   -1    0    0  501    0  0.00000000000E+00  0.00000000000E+00  0.57116477329E+03  0.57116477329E+03  0.00000000000E+00 0. -1.
         -1   -1    0    0    0  501 -0.00000000000E+00 -0.00000000000E+00 -0.21151909584E+02  0.21151909584E+02  0.00000000000E+00 0.  1.
         25    2    1    2    0    0 -0.85378804085E+01 -0.27958160017E+01  0.37807057085E+03  0.39832875629E+03  0.12509088519E+03 0.  0.
         23    2    1    2    0    0  0.85378804085E+01  0.27958160017E+01  0.17194229285E+03  0.19398792658E+03  0.89366949137E+02 0.  0.
          5    1    3    3  502    0 -0.25069030183E+02  0.57354737263E+02  0.17933483658E+03  0.18999073181E+03  0.41800000000E+01 0.  1.
         -5    1    3    3    0  502  0.16531149775E+02 -0.60150553264E+02  0.19873573427E+03  0.20833802448E+03  0.41800000000E+01 0.  1.
        -11    1    4    4    0    0  0.10583479855E+02  0.40959880658E+02  0.13239997843E+03  0.13899451845E+03  0.00000000000E+00 0.  1.
         11    1    4    4    0    0 -0.20455994466E+01 -0.38164064656E+02  0.39542314415E+02  0.54993408128E+02  0.00000000000E+00 0. -1.
</event>
<event>
 8    1  0.6840084E-009  0.1819344E+03  0.7561462E-02  0.1165944E+00
          1   -1    0    0  501    0  0.00000000000E+00  0.00000000000E+00  0.29573535325E+04  0.29573535325E+04  0.00000000000E+00 0.  1.
         -1   -1    0    0    0  501 -0.00000000000E+00 -0.00000000000E+00 -0.17234785685E+02  0.17234785685E+02  0.00000000000E+00 0. -1.
         25    2    1    2    0    0 -0.64626100404E+02 -0.15165717077E+03  0.22150825897E+04  0.22247280230E+04  0.12508983536E+03 0.  0.
         23    2    1    2    0    0  0.64626100404E+02  0.15165717077E+03  0.72503615711E+03  0.74986029516E+03  0.97142178490E+02 0.  0.
          5    1    3    3  502    0 -0.45205939934E+02 -0.39283629886E+02  0.28397935160E+03  0.29025596483E+03  0.41800000000E+01 0. -1.
         -5    1    3    3    0  502 -0.19420160471E+02 -0.11237354089E+03  0.19311032381E+04  0.19344720581E+04  0.41800000000E+01 0. -1.
        -11    1    4    4    0    0  0.47246314874E+02  0.11684239933E+02  0.14625146606E+03  0.15413703986E+03  0.00000000000E+00 0.  1.
         11    1    4    4    0    0  0.17379785530E+02  0.13997293084E+03  0.57878469106E+03  0.59572325531E+03  0.00000000000E+00 0. -1.
</event>
<event>
 8    1  0.6840084E-009  0.8108962E+02  0.7561462E-02  0.1325987E+00
          2   -1    0    0  501    0  0.00000000000E+00  0.00000000000E+00  0.50807098863E+03  0.50807098863E+03  0.00000000000E+00 0. -1.
         -2   -1    0    0    0  501 -0.00000000000E+00 -0.00000000000E+00 -0.27136251864E+02  0.27136251864E+02  0.00000000000E+00 0.  1.
         25    2    1    2    0    0 -0.29484018118E+02 -0.31883536536E+02  0.29526769175E+03  0.32359967573E+03  0.12509145901E+03 0.  0.
         23    2    1    2    0    0  0.29484018118E+02  0.31883536536E+02  0.18566704502E+03  0.21160756476E+03  0.91758610676E+02 0.  0.
          5    1    3    3  502    0 -0.49891286631E+02  0.49756058820E+01  0.26924066742E+03  0.27390127150E+03  0.41800000000E+01 0.  1.
         -5    1    3    3    0  502  0.20407268514E+02 -0.36859142418E+02  0.26027024332E+02  0.49698404236E+02  0.41800000000E+01 0.  1.
        -11    1    4    4    0    0  0.37582506082E+02  0.99492312913E+00  0.19407844897E+02  0.42309562500E+02  0.00000000000E+00 0.  1.
         11    1    4    4    0    0 -0.80984879642E+01  0.30888613407E+02  0.16625920012E+03  0.16929800226E+03  0.00000000000E+00 0. -1.
</event>
<event>
 8    1  0.6840084E-009  0.9041169E+02  0.7561462E-02  0.1301858E+00
         -1   -1    0    0    0  501 -0.00000000000E+00  0.00000000000E+00  0.18975635936E+03  0.18975635936E+03  0.00000000000E+00 0.  1.
          1   -1    0    0  501    0  0.00000000000E+00 -0.00000000000E+00 -0.68717667214E+02  0.68717667214E+02  0.00000000000E+00 0. -1.
         25    2    1    2    0    0  0.31243040954E+02  0.50234239016E+01  0.56155375381E+02  0.14072444579E+03  0.12509428870E+03 0.  0.
         23    2    1    2    0    0 -0.31243040954E+02 -0.50234239016E+01  0.64883316768E+02  0.11774958078E+03  0.93025569518E+02 0.  0.
          5    1    3    3  502    0  0.51214977401E+02 -0.49173675607E+02  0.30736188912E+02  0.77480384560E+02  0.41800000000E+01 0. -1.
         -5    1    3    3    0  502 -0.19971936447E+02  0.54197099508E+02  0.25419186470E+02  0.63244061234E+02  0.41800000000E+01 0. -1.
        -11    1    4    4    0    0 -0.28101481211E+02  0.14771074285E+02 -0.15198662856E+02  0.35197687913E+02  0.00000000000E+00 0. -1.
         11    1    4    4    0    0 -0.31415597425E+01 -0.19794498187E+02  0.80081979624E+02  0.82551892871E+02  0.00000000000E+00 0.  1.
</event>
<event>
 8    1  0.6840084E-009  0.8409122E+02  0.7561462E-02  0.1317826E+00
         -1   -1    0    0    0  501 -0.00000000000E+00  0.00000000000E+00  0.15023464456E+03  0.15023464456E+03  0.00000000000E+00 0.  1.
          1   -1    0    0  501    0  0.00000000000E+00 -0.00000000000E+00 -0.14227466005E+03  0.14227466005E+03  0.00000000000E+00 0. -1.
         25    2    1    2    0    0  0.66082648423E+02 -0.16301987172E+02  0.74006367065E+02  0.16049559149E+03  0.12509684773E+03 0.  0.
         23    2    1    2    0    0 -0.66082648423E+02  0.16301987172E+02 -0.66046382555E+02  0.13201371313E+03  0.91830412155E+02 0.  0.
          5    1    3    3  502    0 -0.94238365520E+01  0.75698649232E+01  0.79955744446E+02  0.80972248457E+02  0.41800000000E+01 0.  1.
         -5    1    3    3    0  502  0.75506484975E+02 -0.23871852095E+02 -0.59493773812E+01  0.79523343032E+02  0.41800000000E+01 0.  1.
        -11    1    4    4    0    0 -0.15778919564E+02 -0.10636617531E+02 -0.72157677722E+02  0.74624676813E+02  0.00000000000E+00 0. -1.
         11    1    4    4    0    0 -0.50303728859E+02  0.26938604703E+02  0.61112951676E+01  0.57389036314E+02  0.00000000000E+00 0.  1.
</event>
<event>
 8    1  0.6840084E-009  0.1548946E+03  0.7561462E-02  0.1194584E+00
         -2   -1    0    0    0  501 -0.00000000000E+00  0.00000000000E+00  0.17700297915E+03  0.17700297915E+03  0.00000000000E+00 0.  1.
          2   -1    0    0  501    0  0.00000000000E+00 -0.00000000000E+00 -0.15259462342E+03  0.15259462342E+03  0.00000000000E+00 0. -1.
         25    2    1    2    0    0 -0.82430904731E+02 -0.83950365056E+02 -0.24133998534E+02  0.17341790583E+03  0.12509517309E+03 0.  0.
         23    2    1    2    0    0  0.82430904731E+02  0.83950365056E+02  0.48542354265E+02  0.15617969674E+03  0.90516405522E+02 0.  0.
          5    1    3    3  502    0 -0.86549915298E+02 -0.90387326379E+01 -0.41186824664E+02  0.96366038892E+02  0.41800000000E+01 0.  1.
         -5    1    3    3    0  502  0.41190105674E+01 -0.74911632418E+02  0.17052826130E+02  0.77051866938E+02  0.41800000000E+01 0.  1.
        -11    1    4    4    0    0 -0.95425963114E+01  0.47736564164E+02  0.24277217641E+02  0.54398749975E+02  0.00000000000E+00 0.  1.
         11    1    4    4    0    0  0.91973501042E+02  0.36213800892E+02  0.24265136624E+02  0.10178094677E+03  0.00000000000E+00 0. -1.
</event>
<event>
 8    1  0.6840084E-009  0.1077898E+03  0.7561462E-02  0.1264718E+00
         -1   -1    0    0    0  501 -0.00000000000E+00  0.00000000000E+00  0.11452780910E+03  0.11452780910E+03  0.00000000000E+00 0.  1.
          1   -1    0    0  501    0  0.00000000000E+00 -0.00000000000E+00 -0.17168804817E+03  0.17168804817E+03  0.00000000000E+00 0. -1.
         25    2    1    2    0    0  0.36053133628E+02 -0.61354716043E+02  0.37754920856E+02  0.14878130855E+03  0.12508482762E+03 0.  0.
         23    2    1    2    0    0 -0.36053133628E+02  0.61354716043E+02 -0.94915159931E+02  0.13743454872E+03  0.69391195197E+02 0.  0.
          5    1    3    3  502    0  0.67498912112E+02 -0.80431551128E+02  0.38055847798E+02  0.11176339967E+03  0.41800000000E+01 0.  1.
         -5    1    3    3    0  502 -0.31445778484E+02  0.19076835086E+02 -0.30092694204E+00  0.37017908887E+02  0.41800000000E+01 0.  1.
        -11    1    4    4    0    0 -0.25102661512E+02  0.55828022773E+02 -0.10501014629E+03  0.12154851939E+03  0.00000000000E+00 0. -1.
         11    1    4    4    0    0 -0.10950472116E+02  0.55266932695E+01  0.10094986362E+02  0.15886029325E+02  0.00000000000E+00 0.  1.
</event>
<event>
 8    1  0.6840084E-009  0.1341750E+03  0.7561462E-02  0.1221389E+00
         -1   -1    0    0    0  501 -0.00000000000E+00  0.00000000000E+00  0.23934334009E+02  0.23934334009E+02  0.00000000000E+00 0.  1.
          1   -1    0    0  501    0  0.00000000000E+00 -0.00000000000E+00 -0.96655570726E+03  0.96655570726E+03  0.00000000000E+00 0. -1.
         25    2    1    2    0    0  0.53288829474E+02  0.83380181104E+02 -0.38504624614E+03  0.41677354854E+03  0.12509046784E+03 0.  0.
         23    2    1    2    0    0 -0.53288829474E+02 -0.83380181104E+02 -0.55757512711E+03  0.57371649273E+03  0.92025201522E+02 0.  0.
          5    1    3    3  502    0  0.76444237656E+02  0.79309392738E+02 -0.18533026049E+03  0.21563506000E+03  0.41800000000E+01 0.  1.
         -5    1    3    3    0  502 -0.23155408182E+02  0.40707883653E+01 -0.19971598566E+03  0.20113848854E+03  0.41800000000E+01 0.  1.
        -11    1    4    4    0    0  0.16819651888E+02 -0.56837142878E+02 -0.21392319736E+03  0.22198309816E+03  0.00000000000E+00 0.  1.
         11    1    4    4    0    0 -0.70108481362E+02 -0.26543038225E+02 -0.34365192975E+03  0.35173339457E+03  0.00000000000E+00 0. -1.
</event>
<event>
 8    1  0.6840084E-009  0.1443720E+03  0.7561462E-02  0.1207564E+00
         -1   -1    0    0    0  501 -0.00000000000E+00  0.00000000000E+00  0.59715810735E+02  0.59715810735E+02  0.00000000000E+00 0.  1.
          1   -1    0    0  501    0  0.00000000000E+00 -0.00000000000E+00 -0.38773651254E+03  0.38773651254E+03  0.00000000000E+00 0. -1.
         25    2    1    2    0    0  0.85808262331E+02  0.60389089447E+02 -0.15365131577E+03  0.22419982539E+03  0.12508770867E+03 0.  0.
         23    2    1    2    0    0 -0.85808262331E+02 -0.60389089447E+02 -0.17436938604E+03  0.22325249788E+03  0.91799210319E+02 0.  0.
          5    1    3    3  502    0  0.11375546797E+03  0.35099737089E+02 -0.86974692470E+02  0.14749361873E+03  0.41800000000E+01 0.  1.
         -5    1    3    3    0  502 -0.27947205640E+02  0.25289352358E+02 -0.66676623298E+02  0.76706206660E+02  0.41800000000E+01 0.  1.
        -11    1    4    4    0    0 -0.41067143533E+02 -0.74260211127E+02 -0.74411775758E+02  0.11286364165E+03  0.00000000000E+00 0.  1.
         11    1    4    4    0    0 -0.44741118798E+02  0.13871121680E+02 -0.99957610281E+02  0.11038885624E+03  0.00000000000E+00 0. -1.
</event>
<event>
 8    1  0.6840084E-009  0.7725733E+02  0.7561462E-02  0.1337020E+00
          2   -1    0    0  501    0  0.00000000000E+00  0.00000000000E+00  0.10575627155E+03  0.10575627155E+03  0.00000000000E+00 0. -1.
         -2   -1    0    0    0  501 -0.00000000000E+00 -0.00000000000E+00 -0.11678165165E+03  0.11678165165E+03  0.00000000000E+00 0.  1.
         25    2    1    2    0    0  0.95566085826E+01  0.99887259584E+01 -0.26165040122E+02  0.12854261848E+03  0.12508993575E+03 0.  0.
         23    2    1    2    0    0 -0.95566085826E+01 -0.99887259584E+01  0.15139660020E+02  0.93995304724E+02  0.91732244008E+02 0.  0.
          5    1    3    3  502    0 -0.12250122808E+02  0.38200629819E+02  0.37744088844E+02  0.55239861242E+02  0.41800000000E+01 0.  1.
         -5    1    3    3    0  502  0.21806731391E+02 -0.28211903860E+02 -0.63909128965E+02  0.73302757237E+02  0.41800000000E+01 0.  1.
        -11    1    4    4    0    0 -0.13259436162E+02  0.32774978407E+02  0.32185067433E+02  0.47810986422E+02  0.00000000000E+00 0. -1.
         11    1    4    4    0    0  0.37028275796E+01 -0.42763704365E+02 -0.17045407413E+02  0.46184318302E+02  0.00000000000E+00 0.  1.
</event>
<event>
 8    1  0.6840084E-009  0.1054507E+03  0.7561462E-02  0.1269234E+00
         -1   -1    0    0    0  501 -0.00000000000E+00  0.00000000000E+00  0.10069870331E+03  0.10069870331E+03  0.00000000000E+00 0.  1.
          1   -1    0    0  501    0  0.00000000000E+00 -0.00000000000E+00 -0.13658309637E+03  0.13658309637E+03  0.00000000000E+00 0. -1.
         25    2    1    2    0    0 -0.11368834795E+02  0.45844475785E+02 -0.19186933243E+02  0.13508441471E+03  0.12509474140E+03 0.  0.
         23    2    1    2    0    0  0.11368834795E+02 -0.45844475785E+02 -0.16697459821E+02  0.10219738496E+03  0.89076001057E+02 0.  0.
          5    1    3    3  502    0  0.55445302734E+02  0.24035681642E+02  0.46441951659E+01  0.60753078407E+02  0.41800000000E+01 0.  1.
         -5    1    3    3    0  502 -0.66814137529E+02  0.21808794143E+02 -0.23831128409E+02  0.74331336305E+02  0.41800000000E+01 0.  1.
        -11    1    4    4    0    0  0.32437153195E+02 -0.48848302288E+02 -0.39736866397E+02  0.70833213219E+02  0.00000000000E+00 0. -1.
         11    1    4    4    0    0 -0.21068318400E+02  0.30038265029E+01  0.23039406576E+02  0.31364171745E+02  0.00000000000E+00 0.  1.
</event>
<event>
 8    1  0.6840084E-009  0.2145656E+03  0.7561462E-02  0.1138001E+00
         -1   -1    0    0    0  501 -0.00000000000E+00  0.00000000000E+00  0.10613383780E+03  0.10613383780E+03  0.00000000000E+00 0.  1.
          1   -1    0    0  501    0  0.00000000000E+00 -0.00000000000E+00 -0.59713376024E+03  0.59713376024E+03  0.00000000000E+00 0. -1.
         25    2    1    2    0    0 -0.90241114377E+02  0.18922971035E+03 -0.37230374906E+03  0.44520591330E+03  0.12508749605E+03 0.  0.
         23    2    1    2    0    0  0.90241114377E+02 -0.18922971035E+03 -0.11869617338E+03  0.25806168475E+03  0.92497078638E+02 0.  0.
          5    1    3    3  502    0 -0.71710592645E+02  0.86797069267E+02 -0.29409515360E+03  0.31493740981E+03  0.41800000000E+01 0. -1.
         -5    1    3    3    0  502 -0.18530521732E+02  0.10243264109E+03 -0.78208595460E+02  0.13026850348E+03  0.41800000000E+01 0. -1.
        -11    1    4    4    0    0  0.39067720333E+02 -0.11997858123E+03 -0.21135936014E+02  0.12793699433E+03  0.00000000000E+00 0.  1.
         11    1    4    4    0    0  0.51173394044E+02 -0.69251129118E+02 -0.97560237362E+02  0.13012469042E+03  0.00000000000E+00 0. -1.
</event>
<event>
 8    1  0.6840084E-009  0.1091818E+03  0.7561462E-02  0.1262093E+00
         -1   -1    0    0    0  501 -0.00000000000E+00  0.00000000000E+00  0.14674829168E+03  0.14674829168E+03  0.00000000000E+00 0.  1.
          1   -1    0    0  501    0  0.00000000000E+00 -0.00000000000E+00 -0.88372710985E+02  0.88372710985E+02  0.00000000000E+00 0. -1.
         25    2    1    2    0    0 -0.23289941888E+02  0.13852147752E+02  0.38369034488E+02  0.13361961420E+03  0.12509082740E+03 0.  0.
         23    2    1    2    0    0  0.23289941888E+02 -0.13852147752E+02  0.20006546202E+02  0.10150138846E+03  0.95749499102E+02 0.  0.
          5    1    3    3  502    0 -0.41183691171E+02 -0.47464594236E+02  0.10690064714E+02  0.63880623103E+02  0.41800000000E+01 0. -1.
         -5    1    3    3    0  502  0.17893749283E+02  0.61316741988E+02  0.27678969774E+02  0.69738991097E+02  0.41800000000E+01 0. -1.
        -11    1    4    4    0    0 -0.47167776511E+01 -0.47421079395E+02 -0.97175852863E+01  0.48635771056E+02  0.00000000000E+00 0.  1.
         11    1    4    4    0    0  0.28006719539E+02  0.33568931643E+02  0.29724131489E+02  0.52865617406E+02  0.00000000000E+00 0. -1.
</event>
<event>
 8    1  0.6840084E-009  0.7707048E+02  0.7561462E-02  0.1337577E+00
          1   -1    0    0  501    0  0.00000000000E+00  0.00000000000E+00  0.21016587162E+03  0.21016587162E+03  0.00000000000E+00 0. -1.
         -1   -1    0    0    0  501 -0.00000000000E+00 -0.00000000000E+00 -0.87320583527E+02  0.87320583527E+02  0.00000000000E+00 0.  1.
         25    2    1    2    0    0 -0.59044492635E+02  0.44946426427E+02  0.32827881159E+02  0.14909863081E+03  0.12508516527E+03 0.  0.
         23    2    1    2    0    0  0.59044492635E+02 -0.44946426427E+02  0.90017406930E+02  0.14838782433E+03  0.91702668990E+02 0.  0.
          5    1    3    3  502    0 -0.22752835771E+02  0.57799055727E+01  0.76412524264E+02  0.80046518403E+02  0.41800000000E+01 0. -1.
         -5    1    3    3    0  502 -0.36291656864E+02  0.39166520854E+02 -0.43584643105E+02  0.69052112410E+02  0.41800000000E+01 0. -1.
        -11    1    4    4    0    0  0.55375188684E+01 -0.13695258089E+02  0.84940419373E+02  0.86215422359E+02  0.00000000000E+00 0. -1.
         11    1    4    4    0    0  0.53506973766E+02 -0.31251168338E+02  0.50769875568E+01  0.62172401971E+02  0.00000000000E+00 0.  1.
</event>
<event>
 8    1  0.6840084E-009  0.1267098E+03  0.7561462E-02  0.1232421E+00
         -3   -1    0    0    0  501 -0.00000000000E+00  0.00000000000E+00  0.14114877349E+03  0.14114877349E+03  0.00000000000E+00 0.  1.
          3   -1    0    0  501    0  0.00000000000E+00 -0.00000000000E+00 -0.15320811497E+03  0.15320811497E+03  0.00000000000E+00 0. -1.
         25    2    1    2    0    0 -0.49593390790E+02  0.46668979778E+02 -0.79064997145E+02  0.16290064384E+03  0.12509135824E+03 0.  0.
         23    2    1    2    0    0  0.49593390790E+02 -0.46668979778E+02  0.67005655661E+02  0.13145624462E+03  0.90296668128E+02 0.  0.
          5    1    3    3  502    0 -0.85909669911E+02  0.57212131183E+02 -0.48612130996E+02  0.11416790713E+03  0.41800000000E+01 0. -1.
         -5    1    3    3    0  502  0.36316279121E+02 -0.10543151406E+02 -0.30452866149E+02  0.48732736712E+02  0.41800000000E+01 0. -1.
        -11    1    4    4    0    0  0.50167907228E+01 -0.64035752520E+02  0.29578098378E+02  0.70714989172E+02  0.00000000000E+00 0. -1.
         11    1    4    4    0    0  0.44576600067E+02  0.17366772742E+02  0.37427557282E+02  0.60741255446E+02  0.00000000000E+00 0.  1.
</event>
<event>
 8    1  0.6840084E-009  0.1563603E+03  0.7561462E-02  0.1192868E+00
         -2   -1    0    0    0  501 -0.00000000000E+00  0.00000000000E+00  0.42755207219E+02  0.42755207219E+02  0.00000000000E+00 0.  1.
          2   -1    0    0  501    0  0.00000000000E+00 -0.00000000000E+00 -0.71813507252E+03  0.71813507252E+03  0.00000000000E+00 0. -1.
         25    2    1    2    0    0  0.12105779269E+03 -0.33810575101E+02 -0.47087632582E+03  0.50316007423E+03  0.12508957561E+03 0.  0.
         23    2    1    2    0    0 -0.12105779269E+03  0.33810575101E+02 -0.20450353949E+03  0.25773020551E+03  0.93835052134E+02 0.  0.
          5    1    3    3  502    0  0.90904381528E+02  0.25488734297E+02 -0.37269440443E+03  0.38448910732E+03  0.41800000000E+01 0.  1.
         -5    1    3    3    0  502  0.30153411163E+02 -0.59299309398E+02 -0.98181921388E+02  0.11867096691E+03  0.41800000000E+01 0.  1.
        -11    1    4    4    0    0 -0.11468345373E+02 -0.24770843553E+02 -0.67262891982E+02  0.72590731321E+02  0.00000000000E+00 0. -1.
         11    1    4    4    0    0 -0.10958944732E+03  0.58581418654E+02 -0.13724064750E+03  0.18513947419E+03  0.00000000000E+00 0.  1.
</event>
<event>
 8    1  0.6840084E-009  0.1227413E+03  0.7561462E-02  0.1238642E+00
         -3   -1    0    0    0  501 -0.00000000000E+00  0.00000000000E+00  0.17465030846E+03  0.17465030846E+03  0.00000000000E+00 0.  1.
          3   -1    0    0  501    0  0.00000000000E+00 -0.00000000000E+00 -0.14924401020E+03  0.14924401020E+03  0.00000000000E+00 0. -1.
         25    2    1    2    0    0 -0.35701313588E+02 -0.59796531212E+02  0.11140400844E+03  0.18140580454E+03  0.12508798459E+03 0.  0.
         23    2    1    2    0    0  0.35701313588E+02  0.59796531212E+02 -0.85997710181E+02  0.14248851411E+03  0.89761693169E+02 0.  0.
          5    1    3    3  502    0  0.23766897451E+02  0.26051848353E+02  0.12889918062E+02  0.37778123361E+02  0.41800000000E+01 0.  1.
         -5    1    3    3    0  502 -0.59468211039E+02 -0.85848379565E+02  0.98514090381E+02  0.14362768118E+03  0.41800000000E+01 0.  1.
        -11    1    4    4    0    0 -0.16740069953E+02  0.49177189882E+02 -0.15946639855E+02  0.54340788266E+02  0.00000000000E+00 0.  1.
         11    1    4    4    0    0  0.52441383541E+02  0.10619341330E+02 -0.70051070326E+02  0.88147725846E+02  0.00000000000E+00 0. -1.
</event>
<event>
 8    1  0.6840084E-009  0.1279779E+03  0.7561462E-02  0.1230487E+00
         -3   -1    0    0    0  501 -0.00000000000E+00  0.00000000000E+00  0.25265027391E+03  0.25265027391E+03  0.00000000000E+00 0.  1.
          3   -1    0    0  501    0  0.00000000000E+00 -0.00000000000E+00 -0.84014692301E+02  0.84014692301E+02  0.00000000000E+00 0. -1.
         25    2    1    2    0    0  0.90442268374E+02 -0.44795823371E+02  0.89585786895E+02  0.18401228188E+03  0.12509371274E+03 0.  0.
         23    2    1    2    0    0 -0.90442268374E+02  0.44795823371E+02  0.79049794718E+02  0.15265268434E+03  0.82870394541E+02 0.  0.
          5    1    3    3  502    0  0.10950395634E+03 -0.39788293696E+01  0.84597426722E+02  0.13849600913E+03  0.41800000000E+01 0. -1.
         -5    1    3    3    0  502 -0.19061687966E+02 -0.40816994001E+02  0.49883601734E+01  0.45516272745E+02  0.41800000000E+01 0. -1.
        -11    1    4    4    0    0 -0.18230899109E+02  0.11365986849E+02 -0.17377231773E+02  0.27631857040E+02  0.00000000000E+00 0. -1.
         11    1    4    4    0    0 -0.72211369264E+02  0.33429836522E+02  0.96427026491E+02  0.12502082730E+03  0.00000000000E+00 0.  1.
</event>
<event>
 8    1  0.6840084E-009  0.4481013E+03  0.7561462E-02  0.1028290E+00
         -1   -1    0    0    0  501 -0.00000000000E+00  0.00000000000E+00  0.59131992632E+03  0.59131992632E+03  0.00000000000E+00 0.  1.
          1   -1    0    0  501    0  0.00000000000E+00 -0.00000000000E+00 -0.41762554350E+03  0.41762554350E+03  0.00000000000E+00 0. -1.
         25    2    1    2    0    0 -0.35703955546E+03 -0.25794349088E+03  0.29275014317E+03  0.54347335132E+03  0.12509415900E+03 0.  0.
         23    2    1    2    0    0  0.35703955546E+03  0.25794349088E+03 -0.11905576035E+03  0.46547211850E+03  0.92075677454E+02 0.  0.
          5    1    3    3  502    0 -0.14094001943E+03 -0.60319604521E+02  0.16094176049E+03  0.22231119278E+03  0.41800000000E+01 0.  1.
         -5    1    3    3    0  502 -0.21609953603E+03 -0.19762388636E+03  0.13180838268E+03  0.32116215854E+03  0.41800000000E+01 0.  1.
        -11    1    4    4    0    0  0.21588874894E+03  0.99317634863E+02 -0.64876005083E+02  0.24633481392E+03  0.00000000000E+00 0.  1.
         11    1    4    4    0    0  0.14115080652E+03  0.15862585602E+03 -0.54179755270E+02  0.21913730458E+03  0.00000000000E+00 0. -1.
</event>
<event>
 8    1  0.6840084E-009  0.9897249E+02  0.7561462E-02  0.1282472E+00
         -1   -1    0    0    0  501 -0.00000000000E+00  0.00000000000E+00  0.72689617982E+02  0.72689617982E+02  0.00000000000E+00 0.  1.
          1   -1    0    0  501    0  0.00000000000E+00 -0.00000000000E+00 -0.20195909837E+03  0.20195909837E+03  0.00000000000E+00 0. -1.
         25    2    1    2    0    0  0.46628315109E+02  0.26111482719E+02 -0.63708909118E+02  0.15020796842E+03  0.12509036485E+03 0.  0.
         23    2    1    2    0    0 -0.46628315109E+02 -0.26111482719E+02 -0.65560571273E+02  0.12444074793E+03  0.91275965842E+02 0.  0.
          5    1    3    3  502    0  0.42428405688E+02  0.57881067624E+02  0.72339488066E+01  0.72250882444E+02  0.41800000000E+01 0.  1.
         -5    1    3    3    0  502  0.41999094203E+01 -0.31769584905E+02 -0.70942857925E+02  0.77957085981E+02  0.41800000000E+01 0.  1.
        -11    1    4    4    0    0 -0.18108230871E+02 -0.52098478542E+02 -0.88681543296E+01  0.55864153559E+02  0.00000000000E+00 0.  1.
         11    1    4    4    0    0 -0.28520084238E+02  0.25986995822E+02 -0.56692416944E+02  0.68576594373E+02  0.00000000000E+00 0. -1.
</event>
<event>
 7    1  0.6840084E-009  0.1417548E+03  0.7561462E-02  0.1210987E+00
          3   -1    0    0  501    0  0.00000000000E+00  0.00000000000E+00  0.37041365230E+02  0.37041365230E+02  0.00000000000E+00 0. -1.
         -3   -1    0    0    0  501 -0.00000000000E+00 -0.00000000000E+00 -0.74398814887E+03  0.74398814887E+03  0.00000000000E+00 0.  1.
         25    2    1    2    0    0 -0.78712086577E+02 -0.69089937544E+02 -0.38716891591E+03  0.42013856281E+03  0.12509048912E+03 0.  0.
          5    1    3    3  502    0 -0.79339441344E+02 -0.22208012304E+02 -0.10235449309E+03  0.13146047855E+03  0.41800000000E+01 0.  1.
         -5    1    3    3    0  502  0.62735476650E+00 -0.46881925240E+02 -0.28481442282E+03  0.28867808426E+03  0.41800000000E+01 0.  1.
        -11    1    1    2    0    0  0.91507873451E+02  0.83709492224E+01 -0.11664634230E+03  0.14849287143E+03  0.00000000000E+00 0. -1.
         11    1    1    2    0    0 -0.12795786874E+02  0.60718988322E+02 -0.20313152543E+03  0.21239807986E+03  0.00000000000E+00 0.  1.
</event>
<event>
 8    1  0.6840084E-009  0.1194265E+03  0.7561462E-02  0.1244046E+00
          1   -1    0    0  501    0  0.00000000000E+00  0.00000000000E+00  0.60068555295E+03  0.60068555295E+03  0.00000000000E+00 0. -1.
         -1   -1    0    0    0  501 -0.00000000000E+00 -0.00000000000E+00 -0.27662111461E+02  0.27662111461E+02  0.00000000000E+00 0.  1.
         25    2    1    2    0    0 -0.41869281168E+02  0.55901874759E+02  0.33744774452E+03  0.36660147281E+03  0.12509038042E+03 0.  0.
         23    2    1    2    0    0  0.41869281168E+02 -0.55901874759E+02  0.23557569696E+03  0.26174619160E+03  0.90205895100E+02 0.  0.
          5    1    3    3  502    0 -0.72766865175E+02 -0.33507001609E+01  0.13626944264E+03  0.15457385696E+03  0.41800000000E+01 0. -1.
         -5    1    3    3    0  502  0.30897584008E+02  0.59252574920E+02  0.20117830188E+03  0.21202761584E+03  0.41800000000E+01 0. -1.
        -11    1    4    4    0    0 -0.19754594228E+02 -0.16967161851E+02  0.16418838521E+02  0.30784847454E+02  0.00000000000E+00 0.  1.
         11    1    4    4    0    0  0.61623875395E+02 -0.38934712908E+02  0.21915685844E+03  0.23096134415E+03  0.00000000000E+00 0. -1.
</event>
<event>
 8    1  0.6840084E-009  0.4419945E+03  0.7561462E-02  0.1030137E+00
          2   -1    0    0  501    0  0.00000000000E+00  0.00000000000E+00  0.18143896593E+04  0.18143896593E+04  0.00000000000E+00 0. -1.
         -2   -1    0    0    0  501 -0.00000000000E+00 -0.00000000000E+00 -0.11287588811E+03  0.11287588811E+03  0.00000000000E+00 0.  1.
         25    2    1    2    0    0 -0.43638938969E+03 -0.14438700521E+02  0.93755801729E+03  0.10417803308E+04  0.12508815416E+03 0.  0.
         23    2    1    2    0    0  0.43638938969E+03  0.14438700521E+02  0.76395575391E+03  0.88548521664E+03  0.99053013353E+02 0.  0.
          5    1    3    3  502    0 -0.28579515603E+03 -0.51599969562E+01  0.46643363998E+03  0.54706792054E+03  0.41800000000E+01 0. -1.
         -5    1    3    3    0  502 -0.15059423366E+03 -0.92787035652E+01  0.47112437731E+03  0.49471241024E+03  0.41800000000E+01 0. -1.
        -11    1    4    4    0    0  0.18540031631E+03 -0.41600166807E+02  0.30318491612E+03  0.35780573574E+03  0.00000000000E+00 0.  1.
         11    1    4    4    0    0  0.25098907338E+03  0.56038867328E+02  0.46077083779E+03  0.52767948090E+03  0.00000000000E+00 0. -1.
</event>
<event>
 8    1  0.6840084E-009  0.5567687E+02  0.7561462E-02  0.1416925E+00
         -2   -1    0    0    0  501 -0.00000000000E+00  0.00000000000E+00  0.22883300327E+03  0.22883300327E+03  0.00000000000E+00 0.  1.
          2   -1    0    0  501    0  0.00000000000E+00 -0.00000000000E+00 -0.53370266133E+02  0.53370266133E+02  0.00000000000E+00 0. -1.
         25    2    1    2    0    0  0.46005351539E+01  0.20054286365E+02  0.93782732680E+02  0.15769320882E+03  0.12509439569E+03 0.  0.
         23    2    1    2    0    0 -0.46005351539E+01 -0.20054286365E+02  0.81680004455E+02  0.12451006058E+03  0.91694016886E+02 0.  0.
          5    1    3    3  502    0  0.24466326289E+02 -0.16246988170E+02  0.10933535326E+03  0.11328838254E+03  0.41800000000E+01 0. -1.
         -5    1    3    3    0  502 -0.19865791136E+02  0.36301274535E+02 -0.15552620576E+02  0.44404826282E+02  0.41800000000E+01 0. -1.
        -11    1    4    4    0    0  0.12606002086E+02 -0.19072056392E+02  0.98086213661E+02  0.10071524182E+03  0.00000000000E+00 0.  1.
         11    1    4    4    0    0 -0.17206537240E+02 -0.98222997262E+00 -0.16406209207E+02  0.23794818764E+02  0.00000000000E+00 0. -1.
</event>
<event>
 8    1  0.6840084E-009  0.1369881E+03  0.7561462E-02  0.1217440E+00
          2   -1    0    0  501    0  0.00000000000E+00  0.00000000000E+00  0.33282659663E+03  0.33282659663E+03  0.00000000000E+00 0.  1.
         -2   -1    0    0    0  501 -0.00000000000E+00 -0.00000000000E+00 -0.72842680160E+02  0.72842680160E+02  0.00000000000E+00 0. -1.
         25    2    1    2    0    0 -0.10438215189E+03  0.21301902195E+02  0.17549892441E+03  0.24041005362E+03  0.12509083396E+03 0.  0.
         23    2    1    2    0    0  0.10438215189E+03 -0.21301902195E+02  0.84484992063E+02  0.16525922318E+03  0.93933446074E+02 0.  0.
          5    1    3    3  502    0 -0.67427619517E+01 -0.23470784794E+02  0.11379944223E+03  0.11646513654E+03  0.41800000000E+01 0.  1.
         -5    1    3    3    0  502 -0.97639389936E+02  0.44772686989E+02  0.61699482179E+02  0.12394491707E+03  0.41800000000E+01 0.  1.
        -11    1    4    4    0    0  0.91086381309E+02 -0.54358954728E+02  0.68010863662E+02  0.12600437451E+03  0.00000000000E+00 0.  1.
         11    1    4    4    0    0  0.13295770579E+02  0.33057052533E+02  0.16474128400E+02  0.39254848668E+02  0.00000000000E+00 0. -1.
</event>
<event>
 8    1  0.6840084E-009  0.9966474E+02  0.7561462E-02  0.1281003E+00
         -2   -1    0    0    0  501 -0.00000000000E+00  0.00000000000E+00  0.10788122783E+03  0.10788122783E+03  0.00000000000E+00 0.  1.
          2   -1    0    0  501    0  0.00000000000E+00 -0.00000000000E+00 -0.13311821584E+03  0.13311821584E+03  0.00000000000E+00 0. -1.
         25    2    1    2    0    0 -0.20313150729E+02  0.45507585466E+02 -0.35109580310E+01  0.13473985643E+03  0.12513567699E+03 0.  0.
         23    2    1    2    0    0  0.20313150729E+02 -0.45507585466E+02 -0.21726029977E+02  0.10625958724E+03  0.91299042023E+02 0.  0.
          5    1    3    3  502    0 -0.52197647593E+02  0.37901230448E+02  0.43034980454E+02  0.77656806698E+02  0.41800000000E+01 0.  1.
         -5    1    3    3    0  502  0.31884496864E+02  0.76063550172E+01 -0.46545938485E+02  0.57083049729E+02  0.41800000000E+01 0.  1.
        -11    1    4    4    0    0 -0.33678471807E+02 -0.30909759803E+02 -0.21046983591E+02  0.50325224616E+02  0.00000000000E+00 0. -1.
         11    1    4    4    0    0  0.53991622536E+02 -0.14597825663E+02 -0.67904638539E+00  0.55934362624E+02  0.00000000000E+00 0.  1.
</event>
<event>
 8    1  0.6840084E-009  0.8565837E+02  0.7561462E-02  0.1313720E+00
         -2   -1    0    0    0  501 -0.00000000000E+00  0.00000000000E+00  0.64293817523E+02  0.64293817523E+02  0.00000000000E+00 0.  1.
          2   -1    0    0  501    0  0.00000000000E+00 -0.00000000000E+00 -0.32806185027E+03  0.32806185027E+03  0.00000000000E+00 0. -1.
         25    2    1    2    0    0  0.64556555577E+02 -0.12233878813E+02 -0.47232941508E+02  0.14898212935E+03  0.12508999738E+03 0.  0.
         23    2    1    2    0    0 -0.64556555577E+02  0.12233878813E+02 -0.21653509123E+03  0.24337353844E+03  0.89588039479E+02 0.  0.
          5    1    3    3  502    0  0.51316518986E+02 -0.78157465316E+01  0.36754401533E+02  0.63740328260E+02  0.41800000000E+01 0. -1.
         -5    1    3    3    0  502  0.13240036592E+02 -0.44181322810E+01 -0.83987343042E+02  0.85241801090E+02  0.41800000000E+01 0. -1.
        -11    1    4    4    0    0 -0.80654967075E+02  0.24652509183E+02 -0.13368634336E+03  0.15806646806E+03  0.00000000000E+00 0.  1.
         11    1    4    4    0    0  0.16098411498E+02 -0.12418630370E+02 -0.82848747869E+02  0.85307070378E+02  0.00000000000E+00 0. -1.
</event>
<event>
 8    1  0.6840084E-009  0.9635948E+02  0.7561462E-02  0.1288143E+00
         -1   -1    0    0    0  501 -0.00000000000E+00  0.00000000000E+00  0.10768489672E+03  0.10768489672E+03  0.00000000000E+00 0.  1.
          1   -1    0    0  501    0  0.00000000000E+00 -0.00000000000E+00 -0.11047575856E+03  0.11047575856E+03  0.00000000000E+00 0. -1.
         25    2    1    2    0    0  0.79157053683E+01  0.15748284959E+02  0.13338427278E+02  0.12702865798E+03  0.12509076479E+03 0.  0.
         23    2    1    2    0    0 -0.79157053683E+01 -0.15748284959E+02 -0.16129289124E+02  0.91131997300E+02  0.87944414795E+02 0.  0.
          5    1    3    3  502    0  0.63182556883E+02 -0.60816790751E+00 -0.11094118616E+02  0.64288080002E+02  0.41800000000E+01 0. -1.
         -5    1    3    3    0  502 -0.55266851515E+02  0.16356452867E+02  0.24432545894E+02  0.62740577982E+02  0.41800000000E+01 0. -1.
        -11    1    4    4    0    0  0.24504594186E+02 -0.27764871656E+02 -0.35669619586E+02  0.51416777376E+02  0.00000000000E+00 0. -1.
         11    1    4    4    0    0 -0.32420299554E+02  0.12016586697E+02  0.19540330463E+02  0.39715219924E+02  0.00000000000E+00 0.  1.
</event>
<event>
 8    1  0.6840084E-009  0.7561794E+02  0.7561462E-02  0.1341968E+00
          1   -1    0    0  501    0  0.00000000000E+00  0.00000000000E+00  0.12287842315E+03  0.12287842315E+03  0.00000000000E+00 0. -1.
         -1   -1    0    0    0  501 -0.00000000000E+00 -0.00000000000E+00 -0.10576818581E+03  0.10576818581E+03  0.00000000000E+00 0.  1.
         25    2    1    2    0    0  0.30369256456E+02  0.22245508473E+01 -0.78103373340E+01  0.12898206150E+03  0.12509248760E+03 0.  0.
         23    2    1    2    0    0 -0.30369256456E+02 -0.22245508473E+01  0.24920574672E+02  0.99664547456E+02  0.91568262043E+02 0.  0.
          5    1    3    3  502    0  0.36971967159E+02  0.25871011400E+02  0.49126700043E+02  0.66836671398E+02  0.41800000000E+01 0. -1.
         -5    1    3    3    0  502 -0.66027107025E+01 -0.23646460553E+02 -0.56937037377E+02  0.62145390099E+02  0.41800000000E+01 0. -1.
        -11    1    4    4    0    0 -0.27931067850E+02 -0.36885283932E+02  0.40589897564E+02  0.61548424076E+02  0.00000000000E+00 0.  1.
         11    1    4    4    0    0 -0.24381886057E+01  0.34660733084E+02 -0.15669322892E+02  0.38116123380E+02  0.00000000000E+00 0. -1.
</event>
<event>
 8    1  0.6840084E-009  0.1375773E+03  0.7561462E-02  0.1216627E+00
          2   -1    0    0  501    0  0.00000000000E+00  0.00000000000E+00  0.13253236062E+04  0.13253236062E+04  0.00000000000E+00 0.  1.
         -2   -1    0    0    0  501 -0.00000000000E+00 -0.00000000000E+00 -0.16511138141E+02  0.16511138141E+02  0.00000000000E+00 0. -1.
         25    2    1    2    0    0  0.56440091748E+02  0.72035339424E+02  0.90334554346E+03  0.91654512784E+03  0.12508887399E+03 0.  0.
         23    2    1    2    0    0 -0.56440091748E+02 -0.72035339424E+02  0.40546692459E+03  0.42528961650E+03  0.89962530403E+02 0.  0.
          5    1    3    3  502    0  0.65870362913E+02 -0.80194116417E+01  0.55509881746E+03  0.55906653023E+03  0.41800000000E+01 0. -1.
         -5    1    3    3    0  502 -0.94302711655E+01  0.80054751066E+02  0.34824672600E+03  0.35747859761E+03  0.41800000000E+01 0. -1.
        -11    1    4    4    0    0 -0.57137201488E+02 -0.12395914686E+01  0.19743476991E+03  0.20553998334E+03  0.00000000000E+00 0. -1.
         11    1    4    4    0    0  0.69710974029E+00 -0.70795747956E+02  0.20803215469E+03  0.21974963316E+03  0.00000000000E+00 0.  1.
</event>
<event>
 8    1  0.6840084E-009  0.1085246E+03  0.7561462E-02  0.1263327E+00
          3   -1    0    0  501    0  0.00000000000E+00  0.00000000000E+00  0.42189622204E+02  0.42189622204E+02  0.00000000000E+00 0. -1.
         -3   -1    0    0    0  501 -0.00000000000E+00 -0.00000000000E+00 -0.43463123620E+03  0.43463123620E+03  0.00000000000E+00 0.  1.
         25    2    1    2    0    0 -0.16583066319E+02  0.76837435496E+02 -0.20105303811E+03  0.24949522661E+03  0.12508618783E+03 0.  0.
         23    2    1    2    0    0  0.16583066319E+02 -0.76837435496E+02 -0.19138857589E+03  0.22732563180E+03  0.94172003849E+02 0.  0.
          5    1    3    3  502    0 -0.26003875056E+02 -0.24506811318E+02 -0.18523951422E+02  0.40464731498E+02  0.41800000000E+01 0.  1.
         -5    1    3    3    0  502  0.94208087367E+01  0.10134424681E+03 -0.18252908669E+03  0.20903049511E+03  0.41800000000E+01 0.  1.
        -11    1    4    4    0    0  0.13441777327E+02 -0.39247190148E+02 -0.10839176950E+02  0.42877862227E+02  0.00000000000E+00 0. -1.
         11    1    4    4    0    0  0.31412889925E+01 -0.37590245348E+02 -0.18054939894E+03  0.18444776957E+03  0.00000000000E+00 0.  1.
</event>
<event>
 8    1  0.6840084E-009  0.1072085E+03  0.7561462E-02  0.1265828E+00
          2   -1    0    0  501    0  0.00000000000E+00  0.00000000000E+00  0.16875859027E+03  0.16875859027E+03  0.00000000000E+00 0. -1.
         -2   -1    0    0    0  501 -0.00000000000E+00 -0.00000000000E+00 -0.83935391672E+02  0.83935391672E+02  0.00000000000E+00 0.  1.
         25    2    1    2    0    0  0.44264588383E+02  0.85108948867E+01  0.60458374695E+02  0.14606407368E+03  0.12509080475E+03 0.  0.
         23    2    1    2    0    0 -0.44264588383E+02 -0.85108948867E+01  0.24364823898E+02  0.10662990826E+03  0.93512050427E+02 0.  0.
          5    1    3    3  502    0  0.76840954357E+02  0.11076936886E+02  0.76805512490E+02  0.10928764773E+03  0.41800000000E+01 0.  1.
         -5    1    3    3    0  502 -0.32576365975E+02 -0.25660419993E+01 -0.16347137794E+02  0.36776425951E+02  0.41800000000E+01 0.  1.
        -11    1    4    4    0    0 -0.63645766631E+02  0.22203547688E+02  0.17864291744E+02  0.69734597292E+02  0.00000000000E+00 0.  1.
         11    1    4    4    0    0  0.19381178249E+02 -0.30714442574E+02  0.65005321539E+01  0.36895310966E+02  0.00000000000E+00 0. -1.
</event>
<event>
 8    1  0.6840084E-009  0.1242017E+03  0.7561462E-02  0.1236322E+00
         -1   -1    0    0    0  501 -0.00000000000E+00  0.00000000000E+00  0.39167982467E+03  0.39167982467E+03  0.00000000000E+00 0.  1.
          1   -1    0    0  501    0  0.00000000000E+00 -0.00000000000E+00 -0.46276335408E+02  0.46276335408E+02  0.00000000000E+00 0. -1.
         25    2    1    2    0    0 -0.13050114856E+02  0.70947394309E+02  0.24393638599E+03  0.28346787938E+03  0.12508093368E+03 0.  0.
         23    2    1    2    0    0  0.13050114856E+02 -0.70947394309E+02  0.10146710327E+03  0.15448828070E+03  0.91472496256E+02 0.  0.
          5    1    3    3  502    0  0.36062883779E+02  0.74397693047E+02  0.92304673049E+02  0.12398860183E+03  0.41800000000E+01 0. -1.
         -5    1    3    3    0  502 -0.49112998634E+02 -0.34502987378E+01  0.15163171294E+03  0.15947927755E+03  0.41800000000E+01 0. -1.
        -11    1    4    4    0    0  0.37373580570E+02  0.38358040931E+01  0.37949671232E+02  0.53401081115E+02  0.00000000000E+00 0. -1.
         11    1    4    4    0    0 -0.24323465714E+02 -0.74783198402E+02  0.63517432035E+02  0.10108719959E+03  0.00000000000E+00 0.  1.
</event>
<event>
 8    1  0.6840084E-009  0.8278905E+02  0.7561462E-02  0.1321318E+00
         -3   -1    0    0    0  501 -0.00000000000E+00  0.00000000000E+00  0.12348442515E+03  0.12348442515E+03  0.00000000000E+00 0.  1.
          3   -1    0    0  501    0  0.00000000000E+00 -0.00000000000E+00 -0.10190040488E+03  0.10190040488E+03  0.00000000000E+00 0. -1.
         25    2    1    2    0    0 -0.19710624434E+02  0.60695080380E+01 -0.10851769910E+02  0.12723821615E+03  0.12508579094E+03 0.  0.
         23    2    1    2    0    0  0.19710624434E+02 -0.60695080380E+01  0.32435790184E+02  0.98146613885E+02  0.90306864018E+02 0.  0.
          5    1    3    3  502    0  0.14868338481E+02 -0.29185506459E+02 -0.52823055578E+02  0.62294533284E+02  0.41800000000E+01 0. -1.
         -5    1    3    3    0  502 -0.34578962915E+02  0.35255014497E+02  0.41971285668E+02  0.64943682866E+02  0.41800000000E+01 0. -1.
        -11    1    4    4    0    0 -0.22835945707E+02  0.22254711961E+02 -0.81140607337E+01  0.32902744603E+02  0.00000000000E+00 0. -1.
         11    1    4    4    0    0  0.42546570141E+02 -0.28324219999E+02  0.40549850918E+02  0.65243869281E+02  0.00000000000E+00 0.  1.
</event>
<event>
 8    1  0.6840084E-009  0.8123936E+02  0.7561462E-02  0.1325571E+00
          3   -1    0    0  501    0  0.00000000000E+00  0.00000000000E+00  0.37991071778E+02  0.37991071778E+02  0.00000000000E+00 0. -1.
         -3   -1    0    0    0  501 -0.00000000000E+00 -0.00000000000E+00 -0.39446879081E+03  0.39446879081E+03  0.00000000000E+00 0.  1.
         25    2    1    2    0    0  0.13992651704E+02 -0.24605393356E+02 -0.11297644816E+03  0.17091763970E+03  0.12509173449E+03 0.  0.
         23    2    1    2    0    0 -0.13992651704E+02  0.24605393356E+02 -0.24350127087E+03  0.26154222289E+03  0.91160549329E+02 0.  0.
          5    1    3    3  502    0 -0.28009887736E+02 -0.85071897227E+00 -0.11880158401E+03  0.12213339550E+03  0.41800000000E+01 0. -1.
         -5    1    3    3    0  502  0.42002539440E+02 -0.23754674384E+02  0.58251358460E+01  0.48784244200E+02  0.41800000000E+01 0. -1.
        -11    1    4    4    0    0  0.23325839600E+02 -0.17712275392E+02 -0.14585858281E+03  0.14877011014E+03  0.00000000000E+00 0.  1.
         11    1    4    4    0    0 -0.37318491304E+02  0.42317668749E+02 -0.97642688068E+02  0.11277211275E+03  0.00000000000E+00 0. -1.
</event>
<event>
 8    1  0.6840084E-009  0.1077956E+03  0.7561462E-02  0.1264707E+00
          1   -1    0    0  501    0  0.00000000000E+00  0.00000000000E+00  0.65503487819E+02  0.65503487819E+02  0.00000000000E+00 0. -1.
         -1   -1    0    0    0  501 -0.00000000000E+00 -0.00000000000E+00 -0.28512092166E+03  0.28512092166E+03  0.00000000000E+00 0.  1.
         25    2    1    2    0    0 -0.25218785022E+01 -0.78508816932E+02 -0.71887911463E+02  0.16427327954E+03  0.12509134403E+03 0.  0.
         23    2    1    2    0    0  0.25218785022E+01  0.78508816932E+02 -0.14772952238E+03  0.18635112994E+03  0.82053260989E+02 0.  0.
          5    1    3    3  502    0  0.32190863850E+02 -0.62314118624E+02 -0.95890294059E+02  0.11887691950E+03  0.41800000000E+01 0.  1.
         -5    1    3    3    0  502 -0.34712742352E+02 -0.16194698308E+02  0.24002382596E+02  0.45396360044E+02  0.41800000000E+01 0.  1.
        -11    1    4    4    0    0  0.14456183140E+02 -0.99419241855E+01 -0.54089359936E+01  0.18359729738E+02  0.00000000000E+00 0. -1.
         11    1    4    4    0    0 -0.11934304637E+02  0.88450741118E+02 -0.14232058639E+03  0.16799140020E+03  0.00000000000E+00 0.  1.
</event>
<event>
 8    1  0.6840084E-009  0.1731732E+03  0.7561462E-02  0.1174579E+00
         -1   -1    0    0    0  501 -0.00000000000E+00  0.00000000000E+00  0.19691423635E+03  0.19691423635E+03  0.00000000000E+00 0.  1.
          1   -1    0    0  501    0  0.00000000000E+00 -0.00000000000E+00 -0.21741598447E+03  0.21741598447E+03  0.00000000000E+00 0. -1.
         25    2    1    2    0    0 -0.14992123488E+03 -0.64536426594E+02  0.55246191708E+02  0.21293460412E+03  0.12509067475E+03 0.  0.
         23    2    1    2    0    0  0.14992123488E+03  0.64536426594E+02 -0.75747939831E+02  0.20139561670E+03  0.90449527432E+02 0.  0.
          5    1    3    3  502    0 -0.12279248170E+02 -0.21839995725E+02  0.63635515973E+02  0.68518002321E+02  0.41800000000E+01 0.  1.
         -5    1    3    3    0  502 -0.13764198671E+03 -0.42696430869E+02 -0.83893242653E+01  0.14441660180E+03  0.41800000000E+01 0.  1.
        -11    1    4    4    0    0  0.12165391692E+03  0.78965267467E+02 -0.34023029626E+02  0.14897233137E+03  0.00000000000E+00 0.  1.
         11    1    4    4    0    0  0.28267317960E+02 -0.14428840873E+02 -0.41724910206E+02  0.52423285334E+02  0.00000000000E+00 0. -1.
</event>
<event>
 8    1  0.6840084E-009  0.1214495E+03  0.7561462E-02  0.1240725E+00
          2   -1    0    0  501    0  0.00000000000E+00  0.00000000000E+00  0.45671557169E+03  0.45671557169E+03  0.00000000000E+00 0. -1.
         -2   -1    0    0    0  501 -0.00000000000E+00 -0.00000000000E+00 -0.40138513669E+02  0.40138513669E+02  0.00000000000E+00 0.  1.
         25    2    1    2    0    0  0.55581090023E+02 -0.30393798300E+02  0.14230189093E+03  0.19977710612E+03  0.12509205979E+03 0.  0.
         23    2    1    2    0    0 -0.55581090023E+02  0.30393798300E+02  0.27427516709E+03  0.29707697924E+03  0.94946425784E+02 0.  0.
          5    1    3    3  502    0  0.69691978822E+02  0.31207373846E+02  0.85386228999E+02  0.11462614273E+03  0.41800000000E+01 0. -1.
         -5    1    3    3    0  502 -0.14110888799E+02 -0.61601172147E+02  0.56915661931E+02  0.85150963387E+02  0.41800000000E+01 0. -1.
        -11    1    4    4    0    0 -0.60313899700E+01  0.49587143654E+02  0.69947667743E+02  0.85953119219E+02  0.00000000000E+00 0.  1.
         11    1    4    4    0    0 -0.49549700053E+02 -0.19193345354E+02  0.20432749934E+03  0.21112386002E+03  0.00000000000E+00 0. -1.
</event>
<event>
 8    1  0.6840084E-009  0.1297367E+03  0.7561462E-02  0.1227847E+00
          1   -1    0    0  501    0  0.00000000000E+00  0.00000000000E+00  0.97867937200E+03  0.97867937200E+03  0.00000000000E+00 0. -1.
         -1   -1    0    0    0  501 -0.00000000000E+00 -0.00000000000E+00 -0.34238450088E+02  0.34238450088E+02  0.00000000000E+00 0.  1.
         25    2    1    2    0    0 -0.23046785023E+02 -0.71267182982E+02  0.85399875504E+03  0.86635513448E+03  0.12508868755E+03 0.  0.
         23    2    1    2    0    0  0.23046785023E+02  0.71267182982E+02  0.90442166876E+02  0.14656268762E+03  0.87696466189E+02 0.  0.
          5    1    3    3  502    0 -0.25124089000E+02 -0.10679218491E+03  0.62471600938E+03  0.63428964628E+03  0.41800000000E+01 0. -1.
         -5    1    3    3    0  502  0.20773039766E+01  0.35525001923E+02  0.22928274566E+03  0.23206548819E+03  0.41800000000E+01 0. -1.
        -11    1    4    4    0    0  0.22340913467E+02  0.91207060544E+02  0.64886822398E+02  0.11414089551E+03  0.00000000000E+00 0. -1.
         11    1    4    4    0    0  0.70587155558E+00 -0.19939877561E+02  0.25555344478E+02  0.32421792104E+02  0.00000000000E+00 0.  1.
</event>
<event>
 8    1  0.6840084E-009  0.1685689E+03  0.7561462E-02  0.1179349E+00
         -1   -1    0    0    0  501 -0.00000000000E+00  0.00000000000E+00  0.76275668634E+03  0.76275668634E+03  0.00000000000E+00 0.  1.
          1   -1    0    0  501    0  0.00000000000E+00 -0.00000000000E+00 -0.46193060950E+02  0.46193060950E+02  0.00000000000E+00 0. -1.
         25    2    1    2    0    0  0.14764741790E+03 -0.68949708033E+00  0.46133887559E+03  0.50028169368E+03  0.12509188417E+03 0.  0.
         23    2    1    2    0    0 -0.14764741790E+03  0.68949708033E+00  0.25522474980E+03  0.30866805361E+03  0.91302020723E+02 0.  0.
          5    1    3    3  502    0  0.53117120074E+02  0.33497424966E+02  0.32387595701E+03  0.32993425686E+03  0.41800000000E+01 0.  1.
         -5    1    3    3    0  502  0.94530297825E+02 -0.34186922046E+02  0.13746291858E+03  0.17034743682E+03  0.41800000000E+01 0.  1.
        -11    1    4    4    0    0 -0.72866356720E+02 -0.45301563142E+02  0.12488699383E+03  0.15152062168E+03  0.00000000000E+00 0.  1.
         11    1    4    4    0    0 -0.74781061178E+02  0.45991060222E+02  0.13033775597E+03  0.15714743193E+03  0.00000000000E+00 0. -1.
</event>
<event>
 8    1  0.6840084E-009  0.1460036E+03  0.7561462E-02  0.1205472E+00
         -2   -1    0    0    0  501 -0.00000000000E+00  0.00000000000E+00  0.26090511854E+03  0.26090511854E+03  0.00000000000E+00 0. -1.
          2   -1    0    0  501    0  0.00000000000E+00 -0.00000000000E+00 -0.15050613692E+03  0.15050613692E+03  0.00000000000E+00 0.  1.
         25    2    1    2    0    0  0.93836686262E+02  0.10739672847E+03 -0.34517179164E+02  0.19281158807E+03  0.12508194058E+03 0.  0.
         23    2    1    2    0    0 -0.93836686262E+02 -0.10739672847E+03  0.14491616079E+03  0.21859966739E+03  0.80285365726E+02 0.  0.
          5    1    3    3  502    0  0.66129418231E+02  0.98406958793E+02  0.29592073236E+02  0.12227098058E+03  0.41800000000E+01 0. -1.
         -5    1    3    3    0  502  0.27707268031E+02  0.89897696811E+01 -0.64109252400E+02  0.70540607482E+02  0.41800000000E+01 0. -1.
        -11    1    4    4    0    0 -0.65644547587E+02 -0.60762085175E+02  0.13688106406E+03  0.16351655366E+03  0.00000000000E+00 0. -1.
         11    1    4    4    0    0 -0.28192138675E+02 -0.46634643299E+02  0.80350967284E+01  0.55083113729E+02  0.00000000000E+00 0.  1.
</event>
<event>
 8    1  0.6840084E-009  0.9745375E+02  0.7561462E-02  0.1285743E+00
         -2   -1    0    0    0  501 -0.00000000000E+00  0.00000000000E+00  0.15693546277E+02  0.15693546277E+02  0.00000000000E+00 0.  1.
          2   -1    0    0  501    0  0.00000000000E+00 -0.00000000000E+00 -0.93122025855E+03  0.93122025855E+03  0.00000000000E+00 0. -1.
         25    2    1    2    0    0  0.11775290190E+01 -0.43897383319E+02 -0.64139773397E+03  0.65495503868E+03  0.12508670078E+03 0.  0.
         23    2    1    2    0    0 -0.11775290190E+01  0.43897383319E+02 -0.27412897830E+03  0.29195876615E+03  0.90359601308E+02 0.  0.
          5    1    3    3  502    0  0.61361612567E+02 -0.10929129804E+02 -0.25902435717E+03  0.26645033943E+03  0.41800000000E+01 0. -1.
         -5    1    3    3    0  502 -0.60184083548E+02 -0.32968253515E+02 -0.38237337680E+03  0.38850469925E+03  0.41800000000E+01 0. -1.
        -11    1    4    4    0    0 -0.18737655179E+02  0.27312928573E+01 -0.56293941193E+01  0.19754740202E+02  0.00000000000E+00 0.  1.
         11    1    4    4    0    0  0.17560126160E+02  0.41166090461E+02 -0.26849958418E+03  0.27220402595E+03  0.00000000000E+00 0. -1.
</event>
<event>
 8    1  0.6840084E-009  0.9229267E+02  0.7561462E-02  0.1297393E+00
          2   -1    0    0  501    0  0.00000000000E+00  0.00000000000E+00  0.21886181754E+03  0.21886181754E+03  0.00000000000E+00 0.  1.
         -2   -1    0    0    0  501 -0.00000000000E+00 -0.00000000000E+00 -0.67617578694E+02  0.67617578694E+02  0.00000000000E+00 0. -1.
         25    2    1    2    0    0  0.49840745808E+02 -0.17696456008E+02  0.72651094470E+02  0.15402255086E+03  0.12508996821E+03 0.  0.
         23    2    1    2    0    0 -0.49840745808E+02  0.17696456008E+02  0.78593144380E+02  0.13245684538E+03  0.92577907983E+02 0.  0.
          5    1    3    3  502    0  0.13489058207E+02  0.29494146442E+02  0.86713231416E+02  0.92674248140E+02  0.41800000000E+01 0.  1.
         -5    1    3    3    0  502  0.36351687601E+02 -0.47190602450E+02 -0.14062136946E+02  0.61348302719E+02  0.41800000000E+01 0.  1.
        -11    1    4    4    0    0 -0.60943689597E+02 -0.10522234466E+02  0.81143832121E+02  0.10202535083E+03  0.00000000000E+00 0.  1.
         11    1    4    4    0    0  0.11102943789E+02  0.28218690474E+02 -0.25506877405E+01  0.30431494554E+02  0.00000000000E+00 0. -1.
</event>
<event>
 8    1  0.6840084E-009  0.1057133E+03  0.7561462E-02  0.1268720E+00
          1   -1    0    0  501    0  0.00000000000E+00  0.00000000000E+00  0.79011564227E+02  0.79011564227E+02  0.00000000000E+00 0. -1.
         -1   -1    0    0    0  501 -0.00000000000E+00 -0.00000000000E+00 -0.31770487309E+03  0.31770487309E+03  0.00000000000E+00 0.  1.
         25    2    1    2    0    0  0.33375617983E+02  0.31606330861E+02  0.38972782071E+01  0.13330401918E+03  0.12506750468E+03 0.  0.
         23    2    1    2    0    0 -0.33375617983E+02 -0.31606330861E+02 -0.24259058707E+03  0.26341241814E+03  0.91776996396E+02 0.  0.
          5    1    3    3  502    0  0.75398448187E+02  0.22497039436E+02 -0.23406989564E+02  0.82197337748E+02  0.41800000000E+01 0.  1.
         -5    1    3    3    0  502 -0.42022830204E+02  0.91092914243E+01  0.27304267771E+02  0.51106681433E+02  0.41800000000E+01 0.  1.
        -11    1    4    4    0    0 -0.13598502636E+02 -0.56228587481E+02 -0.21082994771E+03  0.21862259758E+03  0.00000000000E+00 0.  1.
         11    1    4    4    0    0 -0.19777115347E+02  0.24622256620E+02 -0.31760639366E+02  0.44789820556E+02  0.00000000000E+00 0. -1.
</event>
<event>
 8    1  0.6840084E-009  0.1686511E+03  0.7561462E-02  0.1179262E+00
          2   -1    0    0  501    0  0.00000000000E+00  0.00000000000E+00  0.65757295939E+03  0.65757295939E+03  0.00000000000E+00 0. -1.
         -2   -1    0    0    0  501 -0.00000000000E+00 -0.00000000000E+00 -0.50791484884E+02  0.50791484884E+02  0.00000000000E+00 0.  1.
         25    2    1    2    0    0  0.14384548586E+03 -0.20808710675E+01  0.37269855986E+03  0.41862580775E+03  0.12508995390E+03 0.  0.
         23    2    1    2    0    0 -0.14384548586E+03  0.20808710675E+01  0.23408291465E+03  0.28973863652E+03  0.91966367429E+02 0.  0.
          5    1    3    3  502    0 -0.63015796754E+01  0.34195661544E+02  0.87651047696E+02  0.94388726747E+02  0.41800000000E+01 0.  1.
         -5    1    3    3    0  502  0.15014706554E+03 -0.36276532612E+02  0.28504751216E+03  0.32423708100E+03  0.41800000000E+01 0.  1.
        -11    1    4    4    0    0 -0.55490688470E+02  0.17248087048E+02  0.16968400476E+03  0.17935822949E+03  0.00000000000E+00 0. -1.
         11    1    4    4    0    0 -0.88354797389E+02 -0.15167215980E+02  0.64398909882E+02  0.11038040703E+03  0.00000000000E+00 0.  1.
</event>
<event>
 8    1  0.6840084E-009  0.1707817E+03  0.7561462E-02  0.1177035E+00
         -1   -1    0    0    0  501 -0.00000000000E+00  0.00000000000E+00  0.18800626055E+03  0.18800626055E+03  0.00000000000E+00 0. -1.
          1   -1    0    0  501    0  0.00000000000E+00 -0.00000000000E+00 -0.30471171957E+03  0.30471171957E+03  0.00000000000E+00 0.  1.
         25    2    1    2    0    0  0.22786013103E+00  0.16000724352E+03 -0.20424721937E+03  0.28803833307E+03  0.12508710884E+03 0.  0.
         23    2    1    2    0    0 -0.22786013103E+00 -0.16000724352E+03  0.87541760355E+02  0.20467964705E+03  0.92886103452E+02 0.  0.
          5    1    3    3  502    0  0.38171649253E+02  0.40970984242E+02 -0.13249301738E+03  0.14390124534E+03  0.41800000000E+01 0. -1.
         -5    1    3    3    0  502 -0.37943789121E+02  0.11903625927E+03 -0.71754201987E+02  0.14413708772E+03  0.41800000000E+01 0. -1.
        -11    1    4    4    0    0  0.40280016012E+01 -0.24493307054E+02 -0.19799053133E+02  0.31751368353E+02  0.00000000000E+00 0.  1.
         11    1    4    4    0    0 -0.42558617322E+01 -0.13551393646E+03  0.10734081349E+03  0.17292827870E+03  0.00000000000E+00 0. -1.
</event>
<event>
 8    1  0.6840084E-009  0.1069819E+03  0.7561462E-02  0.1266263E+00
          1   -1    0    0  501    0  0.00000000000E+00  0.00000000000E+00  0.30954615890E+03  0.30954615890E+03  0.00000000000E+00 0. -1.
         -1   -1    0    0    0  501 -0.00000000000E+00 -0.00000000000E+00 -0.40387439302E+02  0.40387439302E+02  0.00000000000E+00 0.  1.
         25    2    1    2    0    0 -0.18910392568E+01  0.56094810064E+01  0.19103865799E+03  0.22842883395E+03  0.12509564752E+03 0.  0.
         23    2    1    2    0    0  0.18910392568E+01 -0.56094810064E+01  0.78120061602E+02  0.12150476424E+03  0.92874223565E+02 0.  0.
          5    1    3    3  502    0 -0.43796662485E+02 -0.42565345776E+02  0.90819585489E+02  0.10952454435E+03  0.41800000000E+01 0. -1.
         -5    1    3    3    0  502  0.41905623228E+02  0.48174826783E+02  0.10021907250E+03  0.11890428961E+03  0.41800000000E+01 0. -1.
        -11    1    4    4    0    0 -0.54071595132E+01 -0.46707405430E+02  0.59402340607E+02  0.75759205154E+02  0.00000000000E+00 0.  1.
         11    1    4    4    0    0  0.72981987700E+01  0.41097924424E+02  0.18717720995E+02  0.45745559090E+02  0.00000000000E+00 0. -1.
</event>
<event>
 8    1  0.6840084E-009  0.1022290E+03  0.7561462E-02  0.1275677E+00
         -1   -1    0    0    0  501 -0.00000000000E+00  0.00000000000E+00  0.28316359298E+03  0.28316359298E+03  0.00000000000E+00 0.  1.
          1   -1    0    0  501    0  0.00000000000E+00 -0.00000000000E+00 -0.58459219739E+02  0.58459219739E+02  0.00000000000E+00 0. -1.
         25    2    1    2    0    0  0.55686499616E+02 -0.39432175321E+02  0.11126144953E+03  0.18078724041E+03  0.12509609687E+03 0.  0.
         23    2    1    2    0    0 -0.55686499616E+02  0.39432175321E+02  0.11344292370E+03  0.16083557230E+03  0.91339485932E+02 0.  0.
          5    1    3    3  502    0  0.61787254330E+02 -0.61716443880E+01  0.12836974647E+03  0.14266049979E+03  0.41800000000E+01 0.  1.
         -5    1    3    3    0  502 -0.61007547141E+01 -0.33260530933E+02 -0.17108296938E+02  0.38126740617E+02  0.41800000000E+01 0.  1.
        -11    1    4    4    0    0 -0.42962863919E+02 -0.19986461154E+02  0.75685365916E+02  0.89294685841E+02  0.00000000000E+00 0.  1.
         11    1    4    4    0    0 -0.12723635696E+02  0.59418636475E+02  0.37757557785E+02  0.71540886462E+02  0.00000000000E+00 0. -1.
</event>
<event>
 8    1  0.6840084E-009  0.9275688E+02  0.7561462E-02  0.1296310E+00
          2   -1    0    0  501    0  0.00000000000E+00  0.00000000000E+00  0.16662122457E+03  0.16662122457E+03  0.00000000000E+00 0.  1.
         -2   -1    0    0    0  501 -0.00000000000E+00 -0.00000000000E+00 -0.10601067691E+03  0.10601067691E+03  0.00000000000E+00 0. -1.
         25    2    1    2    0    0 -0.65102341895E+02 -0.17353515490E+02  0.47878040967E+02  0.14992913845E+03  0.12508789042E+03 0.  0.
         23    2    1    2    0    0  0.65102341895E+02  0.17353515490E+02  0.12732506690E+02  0.12270276303E+03  0.10175653251E+03 0.  0.
          5    1    3    3  502    0 -0.39341749975E+01 -0.27896169033E+02 -0.35744732111E+02  0.45703744412E+02  0.41800000000E+01 0.  1.
         -5    1    3    3    0  502 -0.61168166898E+02  0.10542653543E+02  0.83622773078E+02  0.10422539404E+03  0.41800000000E+01 0.  1.
        -11    1    4    4    0    0  0.60917093359E+02 -0.14562256887E+02  0.45001648864E+02  0.77123926180E+02  0.00000000000E+00 0.  1.
         11    1    4    4    0    0  0.41852485364E+01  0.31915772377E+02 -0.32269142174E+02  0.45578836848E+02  0.00000000000E+00 0. -1.
</event>
<event>
 8    1  0.6840084E-009  0.1018826E+03  0.7561462E-02  0.1276386E+00
         -2   -1    0    0    0  501 -0.00000000000E+00  0.00000000000E+00  0.12086698186E+03  0.12086698186E+03  0.00000000000E+00 0.  1.
          2   -1    0    0  501    0  0.00000000000E+00 -0.00000000000E+00 -0.12618494693E+03  0.12618494693E+03  0.00000000000E+00 0. -1.
         25    2    1    2    0    0  0.23731516418E+02 -0.49526703658E+02  0.16236462752E+02  0.13757506877E+03  0.12508875880E+03 0.  0.
         23    2    1    2    0    0 -0.23731516418E+02  0.49526703658E+02 -0.21554427828E+02  0.10947686002E+03  0.92219901723E+02 0.  0.
          5    1    3    3  502    0  0.41414587114E+02  0.30478255608E+02 -0.75834098363E+01  0.52144727399E+02  0.41800000000E+01 0.  1.
         -5    1    3    3    0  502 -0.17683070696E+02 -0.80004959266E+02  0.23819872588E+02  0.85430341370E+02  0.41800000000E+01 0.  1.
        -11    1    4    4    0    0 -0.28417697168E+02  0.96949679177E+01  0.31138518956E+02  0.43256967971E+02  0.00000000000E+00 0.  1.
         11    1    4    4    0    0  0.46861807494E+01  0.39831735741E+02 -0.52692946784E+02  0.66219892049E+02  0.00000000000E+00 0. -1.
</event>
<event>
 8    1  0.6840084E-009  0.1879271E+03  0.7561462E-02  0.1160344E+00
          1   -1    0    0  501    0  0.00000000000E+00  0.00000000000E+00  0.72519113236E+03  0.72519113236E+03  0.00000000000E+00 0. -1.
         -1   -1    0    0    0  501 -0.00000000000E+00 -0.00000000000E+00 -0.66647061688E+02  0.66647061688E+02  0.00000000000E+00 0.  1.
         25    2    1    2    0    0 -0.17727074963E+03  0.52351129134E+02  0.42538143092E+03  0.48037736338E+03  0.12508992797E+03 0.  0.
         23    2    1    2    0    0  0.17727074963E+03 -0.52351129134E+02  0.23316263975E+03  0.31146083066E+03  0.92073194085E+02 0.  0.
          5    1    3    3  502    0 -0.15119192892E+03  0.58562608351E+02  0.42313200856E+03  0.45315201372E+03  0.41800000000E+01 0.  1.
         -5    1    3    3    0  502 -0.26078820703E+02 -0.62114792170E+01  0.22494223621E+01  0.27225349663E+02  0.41800000000E+01 0.  1.
        -11    1    4    4    0    0  0.15471628053E+03 -0.36501031096E+02  0.23513084979E+03  0.28382383490E+03  0.00000000000E+00 0. -1.
         11    1    4    4    0    0  0.22554469093E+02 -0.15850098037E+02 -0.19682100492E+01  0.27636995761E+02  0.00000000000E+00 0.  1.
</event>
<event>
 8    1  0.6840084E-009  0.1269277E+03  0.7561462E-02  0.1232087E+00
         -2   -1    0    0    0  501 -0.00000000000E+00  0.00000000000E+00  0.35184808542E+02  0.35184808542E+02  0.00000000000E+00 0.  1.
          2   -1    0    0  501    0  0.00000000000E+00 -0.00000000000E+00 -0.59876525737E+03  0.59876525737E+03  0.00000000000E+00 0. -1.
         25    2    1    2    0    0 -0.79451734251E+02 -0.23606031913E+02 -0.21456988518E+03  0.26183564590E+03  0.12509135469E+03 0.  0.
         23    2    1    2    0    0  0.79451734251E+02  0.23606031913E+02 -0.34901056365E+03  0.37211442001E+03  0.98949205281E+02 0.  0.
          5    1    3    3  502    0 -0.82862510870E+02 -0.51163803057E+02 -0.85227886913E+02  0.12948048331E+03  0.41800000000E+01 0. -1.
         -5    1    3    3    0  502  0.34107766190E+01  0.27557771143E+02 -0.12934199827E+03  0.13235516259E+03  0.41800000000E+01 0. -1.
        -11    1    4    4    0    0  0.11420159516E+02 -0.36050566453E+02 -0.85117763663E+02  0.93140201181E+02  0.00000000000E+00 0. -1.
         11    1    4    4    0    0  0.68031574735E+02  0.59656598366E+02 -0.26389279998E+03  0.27897421883E+03  0.00000000000E+00 0.  1.
</event>
<event>
 8    1  0.6840084E-009  0.1310192E+03  0.7561462E-02  0.1225951E+00
          2   -1    0    0  501    0  0.00000000000E+00  0.00000000000E+00  0.29250580121E+02  0.29250580121E+02  0.00000000000E+00 0. -1.
         -2   -1    0    0    0  501 -0.00000000000E+00 -0.00000000000E+00 -0.70252103514E+03  0.70252103514E+03  0.00000000000E+00 0.  1.
         25    2    1    2    0    0 -0.74164918980E+02  0.15381881560E+02 -0.22622487534E+03  0.26937533737E+03  0.12509332785E+03 0.  0.
         23    2    1    2    0    0  0.74164918980E+02 -0.15381881560E+02 -0.44704557967E+03  0.46239627788E+03  0.90683681058E+02 0.  0.
          5    1    3    3  502    0 -0.61974803080E+02  0.67960814808E+02 -0.13974880949E+03  0.16735217573E+03  0.41800000000E+01 0. -1.
         -5    1    3    3    0  502 -0.12190115900E+02 -0.52578933248E+02 -0.86476065850E+02  0.10202316164E+03  0.41800000000E+01 0. -1.
        -11    1    4    4    0    0  0.76435099450E+02  0.21088932762E+02 -0.34532979182E+03  0.35431586562E+03  0.00000000000E+00 0.  1.
         11    1    4    4    0    0 -0.22701804695E+01 -0.36470814322E+02 -0.10171578785E+03  0.10808041226E+03  0.00000000000E+00 0. -1.
</event>
<event>
 8    1  0.6840084E-009  0.1216817E+03  0.7561462E-02  0.1240348E+00
          1   -1    0    0  501    0  0.00000000000E+00  0.00000000000E+00  0.13263140075E+03  0.13263140075E+03  0.00000000000E+00 0. -1.
         -1   -1    0    0    0  501 -0.00000000000E+00 -0.00000000000E+00 -0.19935619980E+03  0.19935619980E+03  0.00000000000E+00 0.  1.
         25    2    1    2    0    0 -0.59219956977E+02  0.97764200702E+01  0.72464706184E+02  0.15652579685E+03  0.12508640911E+03 0.  0.
         23    2    1    2    0    0  0.59219956977E+02 -0.97764200702E+01 -0.13918950523E+03  0.17546180370E+03  0.88377284963E+02 0.  0.
          5    1    3    3  502    0  0.36481648381E+02  0.20944964973E+02  0.23481888732E+02  0.48357767988E+02  0.41800000000E+01 0. -1.
         -5    1    3    3    0  502 -0.95701605358E+02 -0.11168544903E+02  0.48982817453E+02  0.10816802887E+03  0.41800000000E+01 0. -1.
        -11    1    4    4    0    0  0.45740192390E+02  0.35186176351E+02 -0.58906211797E+02  0.82463167501E+02  0.00000000000E+00 0.  1.
         11    1    4    4    0    0  0.13479764587E+02 -0.44962596421E+02 -0.80283293431E+02  0.92998636196E+02  0.00000000000E+00 0. -1.
</event>
<event>
 8    1  0.6840084E-009  0.1858060E+03  0.7561462E-02  0.1162299E+00
          3   -1    0    0  501    0  0.00000000000E+00  0.00000000000E+00  0.24010063238E+03  0.24010063238E+03  0.00000000000E+00 0. -1.
         -3   -1    0    0    0  501 -0.00000000000E+00 -0.00000000000E+00 -0.16901144591E+03  0.16901144591E+03  0.00000000000E+00 0.  1.
         25    2    1    2    0    0 -0.14973437698E+03  0.78379118996E+02  0.21316147295E+02  0.21134268175E+03  0.12509069129E+03 0.  0.
         23    2    1    2    0    0  0.14973437698E+03 -0.78379118996E+02  0.49773039178E+02  0.19776939655E+03  0.89842689395E+02 0.  0.
          5    1    3    3  502    0 -0.10563510800E+02 -0.24598469907E+02  0.26756953342E+02  0.38079908538E+02  0.41800000000E+01 0.  1.
         -5    1    3    3    0  502 -0.13917086618E+03  0.10297758890E+03 -0.54408060464E+01  0.17326277321E+03  0.41800000000E+01 0.  1.
        -11    1    4    4    0    0  0.60166490437E+02 -0.47299433098E+02 -0.21113759172E+02  0.79391647982E+02  0.00000000000E+00 0.  1.
         11    1    4    4    0    0  0.89567886543E+02 -0.31079685899E+02  0.70886798350E+02  0.11837774857E+03  0.00000000000E+00 0. -1.
</event>
<event>
 8    1  0.6840084E-009  0.1082756E+03  0.7561462E-02  0.1263797E+00
          3   -1    0    0  501    0  0.00000000000E+00  0.00000000000E+00  0.11014693545E+04  0.11014693545E+04  0.00000000000E+00 0. -1.
         -3   -1    0    0    0  501 -0.00000000000E+00 -0.00000000000E+00 -0.10839986426E+02  0.10839986426E+02  0.00000000000E+00 0.  1.
         25    2    1    2    0    0  0.20087988058E+02 -0.57765205420E+01  0.62101927476E+03  0.63383359985E+03  0.12507276770E+03 0.  0.
         23    2    1    2    0    0 -0.20087988058E+02  0.57765205420E+01  0.46961009329E+03  0.47847574105E+03  0.89266452839E+02 0.  0.
          5    1    3    3  502    0  0.65168394090E+02  0.26126703825E+02  0.30568232596E+03  0.31366970055E+03  0.41800000000E+01 0.  1.
         -5    1    3    3    0  502 -0.45080406033E+02 -0.31903224367E+02  0.31533694881E+03  0.32016389930E+03  0.41800000000E+01 0.  1.
        -11    1    4    4    0    0  0.22303786009E+02  0.33451513254E+02  0.17607475916E+03  0.18060670924E+03  0.00000000000E+00 0.  1.
         11    1    4    4    0    0 -0.42391774066E+02 -0.27674992712E+02  0.29353533413E+03  0.29786903181E+03  0.00000000000E+00 0. -1.
</event>
<event>
 8    1  0.6840084E-009  0.1808439E+03  0.7561462E-02  0.1166989E+00
          1   -1    0    0  501    0  0.00000000000E+00  0.00000000000E+00  0.71808469351E+03  0.71808469351E+03  0.00000000000E+00 0. -1.
         -1   -1    0    0    0  501 -0.00000000000E+00 -0.00000000000E+00 -0.51286506671E+02  0.51286506671E+02  0.00000000000E+00 0.  1.
         25    2    1    2    0    0  0.78094342255E+02  0.13160556145E+03  0.42967553100E+03  0.47295628699E+03  0.12509131609E+03 0.  0.
         23    2    1    2    0    0 -0.78094342255E+02 -0.13160556145E+03  0.23712265584E+03  0.29641491320E+03  0.90641584041E+02 0.  0.
          5    1    3    3  502    0  0.74269069678E+02  0.21501114729E+02  0.25409664455E+03  0.26563277248E+03  0.41800000000E+01 0. -1.
         -5    1    3    3    0  502  0.38252725766E+01  0.11010444672E+03  0.17557888646E+03  0.20732351450E+03  0.41800000000E+01 0. -1.
        -11    1    4    4    0    0 -0.58611024511E+02 -0.21876625057E+02  0.11619067539E+03  0.13196254001E+03  0.00000000000E+00 0.  1.
         11    1    4    4    0    0 -0.19483317744E+02 -0.10972893639E+03  0.12093198045E+03  0.16445237319E+03  0.00000000000E+00 0. -1.
</event>
<event>
 8    1  0.6840084E-009  0.6277227E+02  0.7561462E-02  0.1386553E+00
         -2   -1    0    0    0  501 -0.00000000000E+00  0.00000000000E+00  0.23647150160E+03  0.23647150160E+03  0.00000000000E+00 0. -1.
          2   -1    0    0  501    0  0.00000000000E+00 -0.00000000000E+00 -0.64825142780E+02  0.64825142780E+02  0.00000000000E+00 0.  1.
         25    2    1    2    0    0  0.32785587531E+01 -0.18125146464E+02  0.26453279198E+02  0.12917232767E+03  0.12508574809E+03 0.  0.
         23    2    1    2    0    0 -0.32785587531E+01  0.18125146464E+02  0.14519307962E+03  0.17212431670E+03  0.90589624953E+02 0.  0.
          5    1    3    3  502    0  0.26805134190E+02  0.12181918982E+02  0.66933469800E+02  0.73242584256E+02  0.41800000000E+01 0.  1.
         -5    1    3    3    0  502 -0.23526575437E+02 -0.30307065446E+02 -0.40480190602E+02  0.55929743419E+02  0.41800000000E+01 0.  1.
        -11    1    4    4    0    0  0.73219463468E+01  0.35833154905E+02  0.14692945913E+03  0.15141298442E+03  0.00000000000E+00 0. -1.
         11    1    4    4    0    0 -0.10600505100E+02 -0.17708008441E+02 -0.17363795124E+01  0.20711332287E+02  0.00000000000E+00 0.  1.
</event>
<event>
 8    1  0.6840084E-009  0.9556786E+02  0.7561462E-02  0.1289902E+00
         -4   -1    0    0    0  501 -0.00000000000E+00  0.00000000000E+00  0.55900016584E+02  0.55900016584E+02  0.00000000000E+00 0.  1.
          4   -1    0    0  501    0  0.00000000000E+00 -0.00000000000E+00 -0.25657408295E+03  0.25657408295E+03  0.00000000000E+00 0. -1.
         25    2    1    2    0    0 -0.39630528085E+02  0.13501756030E+01 -0.15885867625E+03  0.20604604088E+03  0.12508593131E+03 0.  0.
         23    2    1    2    0    0  0.39630528085E+02 -0.13501756030E+01 -0.41815390119E+02  0.10642805866E+03  0.89476271094E+02 0.  0.
          5    1    3    3  502    0  0.31254213440E+02  0.37075979506E+02 -0.82712311512E+02  0.95970062988E+02  0.41800000000E+01 0.  1.
         -5    1    3    3    0  502 -0.70884741525E+02 -0.35725803903E+02 -0.76146364739E+02  0.11007597789E+03  0.41800000000E+01 0.  1.
        -11    1    4    4    0    0 -0.45297898793E+01 -0.15858597170E+02 -0.55559778260E+02  0.57956044214E+02  0.00000000000E+00 0. -1.
         11    1    4    4    0    0  0.44160317964E+02  0.14508421567E+02  0.13744388142E+02  0.48472014446E+02  0.00000000000E+00 0.  1.
</event>
<event>
 8    1  0.6840084E-009  0.1065405E+03  0.7561462E-02  0.1267114E+00
         -1   -1    0    0    0  501 -0.00000000000E+00  0.00000000000E+00  0.58703956104E+02  0.58703956104E+02  0.00000000000E+00 0.  1.
          1   -1    0    0  501    0  0.00000000000E+00 -0.00000000000E+00 -0.27472589300E+03  0.27472589300E+03  0.00000000000E+00 0. -1.
         25    2    1    2    0    0  0.38122572803E+02 -0.45046042327E+02 -0.16698285383E+03  0.21683465194E+03  0.12510602033E+03 0.  0.
         23    2    1    2    0    0 -0.38122572803E+02  0.45046042327E+02 -0.49039083065E+02  0.11659519716E+03  0.87790271935E+02 0.  0.
          5    1    3    3  502    0 -0.18956718164E+02  0.34445676534E+02 -0.37663037169E+02  0.54606213605E+02  0.41800000000E+01 0.  1.
         -5    1    3    3    0  502  0.57079290967E+02 -0.79491718861E+02 -0.12931981666E+03  0.16222843834E+03  0.41800000000E+01 0.  1.
        -11    1    4    4    0    0 -0.11376227250E+02 -0.95122108020E+01  0.19824788980E+02  0.24757280927E+02  0.00000000000E+00 0.  1.
         11    1    4    4    0    0 -0.26746345553E+02  0.54558253129E+02 -0.68863872046E+02  0.91837916233E+02  0.00000000000E+00 0. -1.
</event>
<event>
 8    1  0.6840084E-009  0.3035413E+03  0.7561462E-02  0.1083484E+00
          1   -1    0    0  501    0  0.00000000000E+00  0.00000000000E+00  0.70291040115E+03  0.70291040115E+03  0.00000000000E+00 0. -1.
         -1   -1    0    0    0  501 -0.00000000000E+00 -0.00000000000E+00 -0.14731110551E+03  0.14731110551E+03  0.00000000000E+00 0.  1.
         25    2    1    2    0    0  0.42678199819E+02  0.28502535236E+03  0.40451698101E+03  0.51219280851E+03  0.12508638990E+03 0.  0.
         23    2    1    2    0    0 -0.42678199819E+02 -0.28502535236E+03  0.15108231462E+03  0.33802869814E+03  0.91524066492E+02 0.  0.
          5    1    3    3  502    0  0.83923600568E+01  0.27525412620E+03  0.37739005630E+03  0.46720016341E+03  0.41800000000E+01 0.  1.
         -5    1    3    3    0  502  0.34285839763E+02  0.97712261608E+01  0.27126924708E+02  0.44992645099E+02  0.41800000000E+01 0.  1.
        -11    1    4    4    0    0 -0.52859887153E+02 -0.12891265458E+03  0.36262402969E+02  0.14397083750E+03  0.00000000000E+00 0.  1.
         11    1    4    4    0    0  0.10181687333E+02 -0.15611269778E+03  0.11481991166E+03  0.19405786064E+03  0.00000000000E+00 0. -1.
</event>
<event>
 8    1  0.6840084E-009  0.1135742E+03  0.7561462E-02  0.1254091E+00
         -2   -1    0    0    0  501 -0.00000000000E+00  0.00000000000E+00  0.77521227555E+02  0.77521227555E+02  0.00000000000E+00 0.  1.
          2   -1    0    0  501    0  0.00000000000E+00 -0.00000000000E+00 -0.18820060519E+03  0.18820060519E+03  0.00000000000E+00 0. -1.
         25    2    1    2    0    0 -0.20280210050E+02  0.52730429846E+02 -0.50119780870E+02  0.14611714997E+03  0.12508574631E+03 0.  0.
         23    2    1    2    0    0  0.20280210050E+02 -0.52730429846E+02 -0.60559596767E+02  0.11960468278E+03  0.86290383183E+02 0.  0.
          5    1    3    3  502    0 -0.42976123273E+02 -0.21510583505E+02  0.81960028766E+01  0.48931577100E+02  0.41800000000E+01 0.  1.
         -5    1    3    3    0  502  0.22695913223E+02  0.74241013350E+02 -0.58315783747E+02  0.97185572871E+02  0.41800000000E+01 0.  1.
        -11    1    4    4    0    0 -0.46462948340E+01  0.21947944681E+02 -0.43060093390E+01  0.22843862367E+02  0.00000000000E+00 0. -1.
         11    1    4    4    0    0  0.24926504884E+02 -0.74678374527E+02 -0.56253587428E+02  0.96760820409E+02  0.00000000000E+00 0.  1.
</event>
<event>
 8    1  0.6840084E-009  0.1165324E+03  0.7561462E-02  0.1248930E+00
         -1   -1    0    0    0  501 -0.00000000000E+00  0.00000000000E+00  0.67734402005E+03  0.67734402005E+03  0.00000000000E+00 0.  1.
          1   -1    0    0  501    0  0.00000000000E+00 -0.00000000000E+00 -0.29140099415E+02  0.29140099415E+02  0.00000000000E+00 0. -1.
         25    2    1    2    0    0  0.47436246101E+02 -0.72584646924E+02  0.30282603259E+03  0.33892432952E+03  0.12508943486E+03 0.  0.
         23    2    1    2    0    0 -0.47436246101E+02  0.72584646924E+02  0.34537788804E+03  0.36755978994E+03  0.91080103322E+02 0.  0.
          5    1    3    3  502    0  0.63013105570E+02 -0.46184303682E+02  0.29739539216E+03  0.30751444366E+03  0.41800000000E+01 0.  1.
         -5    1    3    3    0  502 -0.15576859469E+02 -0.26400343242E+02  0.54306404269E+01  0.31409885859E+02  0.41800000000E+01 0.  1.
        -11    1    4    4    0    0  0.13296170461E+02 -0.13231480506E+02  0.78752668967E+02  0.80955809518E+02  0.00000000000E+00 0.  1.
         11    1    4    4    0    0 -0.60732416561E+02  0.85816127430E+02  0.26662521908E+03  0.28660398043E+03  0.00000000000E+00 0. -1.
</event>
<event>
 8    1  0.6840084E-009  0.2619943E+03  0.7561462E-02  0.1105951E+00
          2   -1    0    0  501    0  0.00000000000E+00  0.00000000000E+00  0.14914831213E+04  0.14914831213E+04  0.00000000000E+00 0.  1.
         -2   -1    0    0    0  501 -0.00000000000E+00 -0.00000000000E+00 -0.52293513686E+02  0.52293513686E+02  0.00000000000E+00 0. -1.
         25    2    1    2    0    0  0.23411885137E+03  0.67792732817E+02  0.95926874022E+03  0.99762304534E+03  0.12509090068E+03 0.  0.
         23    2    1    2    0    0 -0.23411885137E+03 -0.67792732817E+02  0.47992086742E+03  0.54615358968E+03  0.92478177669E+02 0.  0.
          5    1    3    3  502    0  0.26831380222E+02  0.55029057071E+02  0.30715826202E+03  0.31322801665E+03  0.41800000000E+01 0. -1.
         -5    1    3    3    0  502  0.20728747114E+03  0.12763675746E+02  0.65211047820E+03  0.68439502868E+03  0.41800000000E+01 0. -1.
        -11    1    4    4    0    0 -0.12137219603E+03 -0.73708063531E+02  0.20928023989E+03  0.25290770531E+03  0.00000000000E+00 0. -1.
         11    1    4    4    0    0 -0.11274665534E+03  0.59153307136E+01  0.27064062753E+03  0.29324588437E+03  0.00000000000E+00 0.  1.
</event>
<event>
 8    1  0.6840084E-009  0.1642174E+03  0.7561462E-02  0.1184016E+00
         -2   -1    0    0    0  501 -0.00000000000E+00  0.00000000000E+00  0.24497539228E+03  0.24497539228E+03  0.00000000000E+00 0.  1.
          2   -1    0    0  501    0  0.00000000000E+00 -0.00000000000E+00 -0.13239288271E+03  0.13239288271E+03  0.00000000000E+00 0. -1.
         25    2    1    2    0    0  0.86102808751E+02 -0.11486283339E+03  0.50466597583E+02  0.19698041013E+03  0.12508892971E+03 0.  0.
         23    2    1    2    0    0 -0.86102808751E+02  0.11486283339E+03  0.62115911991E+02  0.18038786485E+03  0.89856725377E+02 0.  0.
          5    1    3    3  502    0  0.30598077087E+02 -0.12015675295E+03  0.37485148548E+01  0.12411853756E+03  0.41800000000E+01 0.  1.
         -5    1    3    3    0  502  0.55504731664E+02  0.52939195671E+01  0.46718082728E+02  0.72861872576E+02  0.41800000000E+01 0.  1.
        -11    1    4    4    0    0 -0.65518851388E+02  0.56301844648E+02 -0.79846389461E+01  0.86754665909E+02  0.00000000000E+00 0. -1.
         11    1    4    4    0    0 -0.20583957363E+02  0.58560988737E+02  0.70100550937E+02  0.93633198943E+02  0.00000000000E+00 0.  1.
</event>
<event>
 8    1  0.6840084E-009  0.3218172E+02  0.7561462E-02  0.1575153E+00
          1   -1    0    0  501    0  0.00000000000E+00  0.00000000000E+00  0.16989204693E+03  0.16989204693E+03  0.00000000000E+00 0. -1.
         -1   -1    0    0    0  501 -0.00000000000E+00 -0.00000000000E+00 -0.78767185231E+02  0.78767185231E+02  0.00000000000E+00 0.  1.
         25    2    1    2    0    0  0.11715001424E+02  0.36705069812E+01  0.89818068196E+02  0.15448494625E+03  0.12509036480E+03 0.  0.
         23    2    1    2    0    0 -0.11715001424E+02 -0.36705069812E+01  0.13067935042E+01  0.94174285907E+02  0.93361526000E+02 0.  0.
          5    1    3    3  502    0  0.11948535584E+01 -0.10802753068E+02  0.11923430190E+03  0.11980157887E+03  0.41800000000E+01 0.  1.
         -5    1    3    3    0  502  0.10520147866E+02  0.14473260049E+02 -0.29416233709E+02  0.34683367385E+02  0.41800000000E+01 0.  1.
        -11    1    4    4    0    0  0.91280927809E+01 -0.90123827678E+01 -0.43025120248E+02  0.44896615611E+02  0.00000000000E+00 0.  1.
         11    1    4    4    0    0 -0.20843094205E+02  0.53418757866E+01  0.44331913752E+02  0.49277670296E+02  0.00000000000E+00 0. -1.
</event>
<event>
 8    1  0.6840084E-009  0.7528067E+02  0.7561462E-02  0.1343004E+00
         -1   -1    0    0    0  501 -0.00000000000E+00  0.00000000000E+00  0.58637571598E+02  0.58637571598E+02  0.00000000000E+00 0.  1.
          1   -1    0    0  501    0  0.00000000000E+00 -0.00000000000E+00 -0.28598423571E+03  0.28598423571E+03  0.00000000000E+00 0. -1.
         25    2    1    2    0    0  0.42918917988E+02 -0.30950190285E+02 -0.18627585434E+03  0.23053400438E+03  0.12508911011E+03 0.  0.
         23    2    1    2    0    0 -0.42918917988E+02  0.30950190285E+02 -0.41070809776E+02  0.11408780292E+03  0.92354033807E+02 0.  0.
          5    1    3    3  502    0  0.10685941251E+02  0.51368407254E+00 -0.18492003264E+03  0.18527639915E+03  0.41800000000E+01 0. -1.
         -5    1    3    3    0  502  0.32232976736E+02 -0.31463874358E+02 -0.13558216977E+01  0.45257605232E+02  0.41800000000E+01 0. -1.
        -11    1    4    4    0    0 -0.65711278414E+02  0.24747356524E+02 -0.42549078264E+01  0.70345632461E+02  0.00000000000E+00 0.  1.
         11    1    4    4    0    0  0.22792360426E+02  0.62028337612E+01 -0.36815901950E+02  0.43742170463E+02  0.00000000000E+00 0. -1.
</event>
<event>
 8    1  0.6840084E-009  0.1093513E+03  0.7561462E-02  0.1261776E+00
          2   -1    0    0  501    0  0.00000000000E+00  0.00000000000E+00  0.96010437414E+03  0.96010437414E+03  0.00000000000E+00 0. -1.
         -2   -1    0    0    0  501 -0.00000000000E+00 -0.00000000000E+00 -0.20837716655E+02  0.20837716655E+02  0.00000000000E+00 0.  1.
         25    2    1    2    0    0  0.32094917652E+02 -0.26313420986E+02  0.78969301754E+03  0.80061548968E+03  0.12509044930E+03 0.  0.
         23    2    1    2    0    0 -0.32094917652E+02  0.26313420986E+02  0.14957363995E+03  0.18032660111E+03  0.91776518997E+02 0.  0.
          5    1    3    3  502    0  0.55117575567E+01  0.48721723768E+02  0.38628929968E+03  0.38941119820E+03  0.41800000000E+01 0.  1.
         -5    1    3    3    0  502  0.26583160095E+02 -0.75035144754E+02  0.40340371786E+03  0.41120429148E+03  0.41800000000E+01 0.  1.
        -11    1    4    4    0    0  0.24533447873E+02  0.22054794354E+02  0.19316569214E+02  0.38228704722E+02  0.00000000000E+00 0.  1.
         11    1    4    4    0    0 -0.56628365525E+02  0.42586266320E+01  0.13025707073E+03  0.14209789639E+03  0.00000000000E+00 0. -1.
</event>
<event>
 8    1  0.6840084E-009  0.9875879E+02  0.7561462E-02  0.1282928E+00
          2   -1    0    0  501    0  0.00000000000E+00  0.00000000000E+00  0.25641281502E+03  0.25641281502E+03  0.00000000000E+00 0.  1.
         -2   -1    0    0    0  501 -0.00000000000E+00 -0.00000000000E+00 -0.55820814699E+02  0.55820814699E+02  0.00000000000E+00 0. -1.
         25    2    1    2    0    0 -0.93321768984E+01  0.51019857903E+02  0.88275226979E+02  0.16163536706E+03  0.12507342148E+03 0.  0.
         23    2    1    2    0    0  0.93321768984E+01 -0.51019857903E+02  0.11231677334E+03  0.15059826266E+03  0.85875862240E+02 0.  0.
          5    1    3    3  502    0 -0.66290842092E+02  0.33108412306E+02  0.60008501212E+02  0.95441790262E+02  0.41800000000E+01 0. -1.
         -5    1    3    3    0  502  0.56958665193E+02  0.17911445597E+02  0.28266725767E+02  0.66193576800E+02  0.41800000000E+01 0. -1.
        -11    1    4    4    0    0  0.22290456892E+02 -0.42341225016E+02  0.12280877468E+03  0.13180151343E+03  0.00000000000E+00 0.  1.
         11    1    4    4    0    0 -0.12958279994E+02 -0.86786328871E+01 -0.10492001342E+02  0.18796749223E+02  0.00000000000E+00 0. -1.
</event>
<event>
 8    1  0.6840084E-009  0.1584033E+03  0.7561462E-02  0.1190511E+00
         -2   -1    0    0    0  501 -0.00000000000E+00  0.00000000000E+00  0.39896767999E+02  0.39896767999E+02  0.00000000000E+00 0.  1.
          2   -1    0    0  501    0  0.00000000000E+00 -0.00000000000E+00 -0.90871941455E+03  0.90871941455E+03  0.00000000000E+00 0. -1.
         25    2    1    2    0    0 -0.11929740834E+03 -0.80467889875E+02 -0.60154901953E+03  0.63104311741E+03  0.12508892914E+03 0.  0.
         23    2    1    2    0    0  0.11929740834E+03  0.80467889875E+02 -0.26727362702E+03  0.31757306514E+03  0.93330097309E+02 0.  0.
          5    1    3    3  502    0 -0.35941536669E+01 -0.26431382703E+02 -0.15302448713E+02  0.31035032927E+02  0.41800000000E+01 0.  1.
         -5    1    3    3    0  502 -0.11570325467E+03 -0.54036507172E+02 -0.58624657082E+03  0.60000808448E+03  0.41800000000E+01 0.  1.
        -11    1    4    4    0    0  0.14026486750E+02 -0.14562585822E+02 -0.80833622776E+02  0.83323980987E+02  0.00000000000E+00 0. -1.
         11    1    4    4    0    0  0.10527092159E+03  0.95030475697E+02 -0.18644000424E+03  0.23424908415E+03  0.00000000000E+00 0.  1.
</event>
<event>
 8    1  0.6840084E-009  0.1474087E+03  0.7561462E-02  0.1203694E+00
         -2   -1    0    0    0  501 -0.00000000000E+00  0.00000000000E+00  0.31026168549E+02  0.31026168549E+02  0.00000000000E+00 0.  1.
          2   -1    0    0  501    0  0.00000000000E+00 -0.00000000000E+00 -0.94668125468E+03  0.94668125468E+03  0.00000000000E+00 0. -1.
         25    2    1    2    0    0  0.11754878642E+03  0.58416159286E+01 -0.31487592758E+03  0.35867421851E+03  0.12509397902E+03 0.  0.
         23    2    1    2    0    0 -0.11754878642E+03 -0.58416159286E+01 -0.60077915855E+03  0.61903320472E+03  0.91731507865E+02 0.  0.
          5    1    3    3  502    0  0.95290976126E+02 -0.45643914231E+02 -0.25731710736E+03  0.27819651899E+03  0.41800000000E+01 0. -1.
         -5    1    3    3    0  502  0.22257810291E+02  0.51485530159E+02 -0.57558820226E+02  0.80477699524E+02  0.41800000000E+01 0. -1.
        -11    1    4    4    0    0 -0.11145225649E+02  0.20392955127E+02 -0.30636552853E+02  0.38453700008E+02  0.00000000000E+00 0. -1.
         11    1    4    4    0    0 -0.10640356077E+03 -0.26234571056E+02 -0.57014260570E+03  0.58057950471E+03  0.00000000000E+00 0.  1.
</event>
<event>
 8    1  0.6840084E-009  0.1286858E+03  0.7561462E-02  0.1229419E+00
          1   -1    0    0  501    0  0.00000000000E+00  0.00000000000E+00  0.22508977711E+03  0.22508977711E+03  0.00000000000E+00 0. -1.
         -1   -1    0    0    0  501 -0.00000000000E+00 -0.00000000000E+00 -0.96814358298E+02  0.96814358298E+02  0.00000000000E+00 0.  1.
         25    2    1    2    0    0  0.98683995583E+02 -0.11710941708E+01  0.73527654375E+02  0.17548089370E+03  0.12508927072E+03 0.  0.
         23    2    1    2    0    0 -0.98683995583E+02  0.11710941708E+01  0.54747764436E+02  0.14642324171E+03  0.93287435141E+02 0.  0.
          5    1    3    3  502    0  0.20649318781E+02 -0.49653104608E+02  0.62970125113E+02  0.82912810953E+02  0.41800000000E+01 0. -1.
         -5    1    3    3    0  502  0.78034676802E+02  0.48482010437E+02  0.10557529262E+02  0.92568082748E+02  0.41800000000E+01 0. -1.
        -11    1    4    4    0    0 -0.28662627582E+02  0.24456057416E+02 -0.18913117603E+02  0.42158640653E+02  0.00000000000E+00 0.  1.
         11    1    4    4    0    0 -0.70021368001E+02 -0.23284963245E+02  0.73660882039E+02  0.10426460105E+03  0.00000000000E+00 0. -1.
</event>
<event>
 8    1  0.6840084E-009  0.1055334E+03  0.7561462E-02  0.1269072E+00
          1   -1    0    0  501    0  0.00000000000E+00  0.00000000000E+00  0.12747933835E+03  0.12747933835E+03  0.00000000000E+00 0. -1.
         -1   -1    0    0    0  501 -0.00000000000E+00 -0.00000000000E+00 -0.15624593162E+03  0.15624593162E+03  0.00000000000E+00 0.  1.
         25    2    1    2    0    0 -0.34589198223E+02 -0.83915005624E+02 -0.10342828520E+02  0.15489631213E+03  0.12509097732E+03 0.  0.
         23    2    1    2    0    0  0.34589198223E+02  0.83915005624E+02 -0.18423764752E+02  0.12882895784E+03  0.89550681006E+02 0.  0.
          5    1    3    3  502    0  0.78710694173E+01 -0.66974461213E+02 -0.57767043279E+02  0.88893396143E+02  0.41800000000E+01 0.  1.
         -5    1    3    3    0  502 -0.42460267640E+02 -0.16940544411E+02  0.47424214759E+02  0.66002915985E+02  0.41800000000E+01 0.  1.
        -11    1    4    4    0    0  0.14292087221E+02  0.35755053913E+01  0.29593627775E+02  0.33057991482E+02  0.00000000000E+00 0. -1.
         11    1    4    4    0    0  0.20297111001E+02  0.80339500233E+02 -0.48017392527E+02  0.95770966361E+02  0.00000000000E+00 0.  1.
</event>
<event>
 8    1  0.6840084E-009  0.1162327E+03  0.7561462E-02  0.1249445E+00
          2   -1    0    0  501    0  0.00000000000E+00  0.00000000000E+00  0.96521180550E+02  0.96521180550E+02  0.00000000000E+00 0. -1.
         -2   -1    0    0    0  501 -0.00000000000E+00 -0.00000000000E+00 -0.21862078084E+03  0.21862078084E+03  0.00000000000E+00 0.  1.
         25    2    1    2    0    0  0.92406010842E+02  0.18219076284E+02 -0.44063524466E+02  0.16267394583E+03  0.12510161023E+03 0.  0.
         23    2    1    2    0    0 -0.92406010842E+02 -0.18219076284E+02 -0.78036075827E+02  0.15246801557E+03  0.91027803776E+02 0.  0.
          5    1    3    3  502    0  0.63143535628E+02  0.45102750345E+02  0.26062217956E+02  0.81963868778E+02  0.41800000000E+01 0.  1.
         -5    1    3    3    0  502  0.29262475215E+02 -0.26883674061E+02 -0.70125742422E+02  0.80710077047E+02  0.41800000000E+01 0.  1.
        -11    1    4    4    0    0 -0.19763163247E+02  0.23755365089E+02  0.83873591121E+01  0.32019490703E+02  0.00000000000E+00 0. -1.
         11    1    4    4    0    0 -0.72642847596E+02 -0.41974441373E+02 -0.86423434940E+02  0.12044852487E+03  0.00000000000E+00 0.  1.
</event>
<event>
 8    1  0.6840084E-009  0.9492143E+02  0.7561462E-02  0.1291353E+00
          2   -1    0    0  501    0  0.00000000000E+00  0.00000000000E+00  0.10142459371E+04  0.10142459371E+04  0.00000000000E+00 0. -1.
         -2   -1    0    0    0  501 -0.00000000000E+00 -0.00000000000E+00 -0.45174023885E+02  0.45174023885E+02  0.00000000000E+00 0.  1.
         25    2    1    2    0    0 -0.65723680428E+02  0.43238836725E+01  0.94910942018E+03  0.95958181453E+03  0.12510103582E+03 0.  0.
         23    2    1    2    0    0  0.65723680428E+02 -0.43238836725E+01  0.19962493010E+02  0.99838146430E+02  0.72324658426E+02 0.  0.
          5    1    3    3  502    0  0.11979507578E+02 -0.28344543699E+02  0.71872583820E+02  0.78294715430E+02  0.41800000000E+01 0. -1.
         -5    1    3    3    0  502 -0.77703188005E+02  0.32668427371E+02  0.87723683636E+03  0.88128709910E+03  0.41800000000E+01 0. -1.
        -11    1    4    4    0    0  0.34071542789E+01 -0.11192348711E+02 -0.21637516806E+02  0.24597957303E+02  0.00000000000E+00 0.  1.
         11    1    4    4    0    0  0.62316526149E+02  0.68684650382E+01  0.41600009816E+02  0.75240189127E+02  0.00000000000E+00 0. -1.
</event>
<event>
 8    1  0.6840084E-009  0.1184907E+03  0.7561462E-02  0.1245608E+00
          2   -1    0    0  501    0  0.00000000000E+00  0.00000000000E+00  0.11947488042E+03  0.11947488042E+03  0.00000000000E+00 0.  1.
         -2   -1    0    0    0  501 -0.00000000000E+00 -0.00000000000E+00 -0.14087695324E+03  0.14087695324E+03  0.00000000000E+00 0. -1.
         25    2    1    2    0    0  0.27185542503E+02  0.54357820804E+02 -0.18508906474E+02  0.14030048239E+03  0.12509124404E+03 0.  0.
         23    2    1    2    0    0 -0.27185542503E+02 -0.54357820804E+02 -0.28931663458E+01  0.12005135127E+03  0.10348975856E+03 0.  0.
          5    1    3    3  502    0  0.70288581463E+02  0.93007960863E+01  0.97936769855E+01  0.71696429485E+02  0.41800000000E+01 0. -1.
         -5    1    3    3    0  502 -0.43103038960E+02  0.45057024718E+02 -0.28302583459E+02  0.68604052901E+02  0.41800000000E+01 0. -1.
        -11    1    4    4    0    0 -0.17767702800E+02  0.21006315326E+02 -0.28775669992E+02  0.39812004846E+02  0.00000000000E+00 0. -1.
         11    1    4    4    0    0 -0.94178397024E+01 -0.75364136131E+02  0.25882503646E+02  0.80239346423E+02  0.00000000000E+00 0.  1.
</event>
<event>
 8    1  0.6840084E-009  0.1019756E+03  0.7561462E-02  0.1276196E+00
         -1   -1    0    0    0  501 -0.00000000000E+00  0.00000000000E+00  0.15857600479E+03  0.15857600479E+03  0.00000000000E+00 0.  1.
          1   -1    0    0  501    0  0.00000000000E+00 -0.00000000000E+00 -0.12399434506E+03  0.12399434506E+03  0.00000000000E+00 0. -1.
         25    2    1    2    0    0 -0.76540215147E+02  0.31434462508E+02  0.56935966050E+02  0.16043188170E+03  0.12510057741E+03 0.  0.
         23    2    1    2    0    0  0.76540215147E+02 -0.31434462508E+02 -0.22354306323E+02  0.12213846815E+03  0.87014713825E+02 0.  0.
          5    1    3    3  502    0 -0.15122589118E+02  0.11672974447E+02 -0.39646280097E+02  0.44206910767E+02  0.41800000000E+01 0. -1.
         -5    1    3    3    0  502 -0.61417626029E+02  0.19761488062E+02  0.96582246147E+02  0.11622497093E+03  0.41800000000E+01 0. -1.
        -11    1    4    4    0    0  0.68663620060E+02 -0.59336157164E+02 -0.20811619791E+02  0.93105294077E+02  0.00000000000E+00 0. -1.
         11    1    4    4    0    0  0.78765950872E+01  0.27901694656E+02 -0.15426865313E+01  0.29033174070E+02  0.00000000000E+00 0.  1.
</event>
<event>
 8    1  0.6840084E-009  0.1226245E+03  0.7561462E-02  0.1238829E+00
         -1   -1    0    0    0  501 -0.00000000000E+00  0.00000000000E+00  0.31207305119E+02  0.31207305119E+02  0.00000000000E+00 0.  1.
          1   -1    0    0  501    0  0.00000000000E+00 -0.00000000000E+00 -0.57657892285E+03  0.57657892285E+03  0.00000000000E+00 0. -1.
         25    2    1    2    0    0 -0.67708928376E+02  0.11088199275E+02 -0.38017513207E+03  0.40606462768E+03  0.12509158111E+03 0.  0.
         23    2    1    2    0    0  0.67708928376E+02 -0.11088199275E+02 -0.16519648566E+03  0.20172160029E+03  0.93243112363E+02 0.  0.
          5    1    3    3  502    0 -0.60393788767E+02 -0.44844832134E+02 -0.28992476308E+03  0.29955351666E+03  0.41800000000E+01 0. -1.
         -5    1    3    3    0  502 -0.73151396093E+01  0.55933031409E+02 -0.90250368987E+02  0.10651111103E+03  0.41800000000E+01 0. -1.
        -11    1    4    4    0    0  0.57272290216E+02 -0.48162150924E+02 -0.88489887742E+02  0.11588860272E+03  0.00000000000E+00 0. -1.
         11    1    4    4    0    0  0.10436638161E+02  0.37073951649E+02 -0.76706597921E+02  0.85832997568E+02  0.00000000000E+00 0.  1.
</event>
<event>
 8    1  0.6840084E-009  0.1064911E+03  0.7561462E-02  0.1267209E+00
          2   -1    0    0  501    0  0.00000000000E+00  0.00000000000E+00  0.31843876793E+03  0.31843876793E+03  0.00000000000E+00 0. -1.
         -2   -1    0    0    0  501 -0.00000000000E+00 -0.00000000000E+00 -0.86784633472E+02  0.86784633472E+02  0.00000000000E+00 0.  1.
         25    2    1    2    0    0  0.10482057646E+03 -0.16803701854E+02  0.20774370441E+03  0.26471563974E+03  0.12508879067E+03 0.  0.
         23    2    1    2    0    0 -0.10482057646E+03  0.16803701854E+02  0.23910430044E+02  0.14050776167E+03  0.88887596311E+02 0.  0.
          5    1    3    3  502    0  0.56564670797E+02 -0.13307795568E+02  0.75859919454E+01  0.58750992154E+02  0.41800000000E+01 0.  1.
         -5    1    3    3    0  502  0.48255905666E+02 -0.34959062856E+01  0.20015771247E+03  0.20596464758E+03  0.41800000000E+01 0.  1.
        -11    1    4    4    0    0 -0.38487230638E+02  0.64413455725E+01 -0.34067254593E+02  0.51800923645E+02  0.00000000000E+00 0.  1.
         11    1    4    4    0    0 -0.66333345825E+02  0.10362356281E+02  0.57977684637E+02  0.88706838022E+02  0.00000000000E+00 0. -1.
</event>
<event>
 8    1  0.6840084E-009  0.9681480E+02  0.7561462E-02  0.1287140E+00
          2   -1    0    0  501    0  0.00000000000E+00  0.00000000000E+00  0.45745115308E+03  0.45745115308E+03  0.00000000000E+00 0. -1.
         -2   -1    0    0    0  501 -0.00000000000E+00 -0.00000000000E+00 -0.43728531374E+02  0.43728531374E+02  0.00000000000E+00 0.  1.
         25    2    1    2    0    0  0.73372300960E+02 -0.50055810492E+02  0.19245620945E+03  0.24611419614E+03  0.12507488267E+03 0.  0.
         23    2    1    2    0    0 -0.73372300960E+02  0.50055810492E+02  0.22126641226E+03  0.25506548831E+03  0.90611806202E+02 0.  0.
          5    1    3    3  502    0  0.31468414312E+02 -0.32459658230E+02 -0.29025897305E+01  0.45494922122E+02  0.41800000000E+01 0.  1.
         -5    1    3    3    0  502  0.41903886648E+02 -0.17596152261E+02  0.19535879918E+03  0.20061927402E+03  0.41800000000E+01 0.  1.
        -11    1    4    4    0    0 -0.54981298942E+02  0.65702608545E+01  0.41488708292E+02  0.69191216760E+02  0.00000000000E+00 0.  1.
         11    1    4    4    0    0 -0.18391002019E+02  0.43485549637E+02  0.17977770396E+03  0.18587427155E+03  0.00000000000E+00 0. -1.
</event>
<event>
 8    1  0.6840084E-009  0.1566751E+03  0.7561462E-02  0.1192502E+00
         -2   -1    0    0    0  501 -0.00000000000E+00  0.00000000000E+00  0.10168669478E+03  0.10168669478E+03  0.00000000000E+00 0.  1.
          2   -1    0    0  501    0  0.00000000000E+00 -0.00000000000E+00 -0.28766368706E+03  0.28766368706E+03  0.00000000000E+00 0. -1.
         25    2    1    2    0    0 -0.77732255082E+02 -0.10592627068E+03 -0.91586530246E+02  0.20321870840E+03  0.12508825932E+03 0.  0.
         23    2    1    2    0    0  0.77732255082E+02  0.10592627068E+03 -0.94390462029E+02  0.18613167344E+03  0.92047608516E+02 0.  0.
          5    1    3    3  502    0 -0.91053793608E+02 -0.23467508669E+02 -0.28125786688E+02  0.98234665828E+02  0.41800000000E+01 0. -1.
         -5    1    3    3    0  502  0.13321538526E+02 -0.82458762015E+02 -0.63460743558E+02  0.10498404257E+03  0.41800000000E+01 0. -1.
        -11    1    4    4    0    0  0.69460457709E+02  0.69566862530E+02 -0.10836349261E+03  0.14631114134E+03  0.00000000000E+00 0. -1.
         11    1    4    4    0    0  0.82717973727E+01  0.36359408154E+02  0.13973030586E+02  0.39820532102E+02  0.00000000000E+00 0.  1.
</event>
<event>
 8    1  0.6840084E-009  0.1555455E+03  0.7561462E-02  0.1193820E+00
         -1   -1    0    0    0  501 -0.00000000000E+00  0.00000000000E+00  0.10677814242E+03  0.10677814242E+03  0.00000000000E+00 0.  1.
          1   -1    0    0  501    0  0.00000000000E+00 -0.00000000000E+00 -0.26429854966E+03  0.26429854966E+03  0.00000000000E+00 0. -1.
         25    2    1    2    0    0 -0.11514466589E+03  0.48397917365E+02 -0.52850330457E+02  0.18450422181E+03  0.12509195796E+03 0.  0.
         23    2    1    2    0    0  0.11514466589E+03 -0.48397917365E+02 -0.10467007678E+03  0.18657247027E+03  0.90844973445E+02 0.  0.
          5    1    3    3  502    0  0.88832901295E+01  0.45266359682E+02  0.67363447702E+01  0.46806056267E+02  0.41800000000E+01 0. -1.
         -5    1    3    3    0  502 -0.12402795602E+03  0.31315576824E+01 -0.59586675228E+02  0.13769816554E+03  0.41800000000E+01 0. -1.
        -11    1    4    4    0    0  0.65090465349E+02 -0.60796535553E+02 -0.10131149239E+03  0.13489627832E+03  0.00000000000E+00 0. -1.
         11    1    4    4    0    0  0.50054200542E+02  0.12398618188E+02 -0.33585843887E+01  0.51676191945E+02  0.00000000000E+00 0.  1.
</event>
<event>
 8    1  0.6840084E-009  0.1077360E+03  0.7561462E-02  0.1264821E+00
          3   -1    0    0  501    0  0.00000000000E+00  0.00000000000E+00  0.28438993766E+02  0.28438993766E+02  0.00000000000E+00 0. -1.
         -3   -1    0    0    0  501 -0.00000000000E+00 -0.00000000000E+00 -0.62353345631E+03  0.62353345631E+03  0.00000000000E+00 0.  1.
         25    2    1    2    0    0  0.71030669391E+02 -0.20970155765E+02 -0.36439541126E+03  0.39232258892E+03  0.12509154488E+03 0.  0.
         23    2    1    2    0    0 -0.71030669391E+02  0.20970155765E+02 -0.23069905129E+03  0.25964986116E+03  0.93332174036E+02 0.  0.
          5    1    3    3  502    0  0.53808873693E+02  0.19436901337E+02 -0.53919604221E+02  0.78727276982E+02  0.41800000000E+01 0.  1.
         -5    1    3    3    0  502  0.17221795698E+02 -0.40407057101E+02 -0.31047580704E+03  0.31359531194E+03  0.41800000000E+01 0.  1.
        -11    1    4    4    0    0 -0.22383474981E+02  0.51774143382E+02 -0.76465647147E+02  0.95018824813E+02  0.00000000000E+00 0.  1.
         11    1    4    4    0    0 -0.48647194410E+02 -0.30803987618E+02 -0.15423340414E+03  0.16463103635E+03  0.00000000000E+00 0. -1.
</event>
<event>
 8    1  0.6840084E-009  0.2097732E+03  0.7561462E-02  0.1141746E+00
          2   -1    0    0  501    0  0.00000000000E+00  0.00000000000E+00  0.67313370174E+03  0.67313370174E+03  0.00000000000E+00 0. -1.
         -2   -1    0    0    0  501 -0.00000000000E+00 -0.00000000000E+00 -0.69346400258E+02  0.69346400258E+02  0.00000000000E+00 0.  1.
         25    2    1    2    0    0  0.17190790815E+03  0.84628222505E+01  0.36729369036E+03  0.42447139862E+03  0.12508942810E+03 0.  0.
         23    2    1    2    0    0 -0.17190790815E+03 -0.84628222505E+01  0.23649361113E+03  0.31800870338E+03  0.12480528466E+03 0.  0.
          5    1    3    3  502    0  0.14639813932E+03  0.56521548763E+02  0.25168831661E+03  0.29663375025E+03  0.41800000000E+01 0. -1.
         -5    1    3    3    0  502  0.25509768830E+02 -0.48058726513E+02  0.11560537375E+03  0.12783764837E+03  0.41800000000E+01 0. -1.
        -11    1    4    4    0    0 -0.72017412000E+02 -0.61669341918E+02  0.14107473709E+03  0.16997557710E+03  0.00000000000E+00 0.  1.
         11    1    4    4    0    0 -0.99890496150E+02  0.53206519668E+02  0.95418874035E+02  0.14803312629E+03  0.00000000000E+00 0. -1.
</event>
<event>
 8    1  0.6840084E-009  0.1128820E+03  0.7561462E-02  0.1255324E+00
         -1   -1    0    0    0  501 -0.00000000000E+00  0.00000000000E+00  0.22293592381E+03  0.22293592381E+03  0.00000000000E+00 0.  1.
          1   -1    0    0  501    0  0.00000000000E+00 -0.00000000000E+00 -0.73510206611E+02  0.73510206611E+02  0.00000000000E+00 0. -1.
         25    2    1    2    0    0  0.52870862103E+02  0.21576360711E+02  0.11888187646E+03  0.18177430825E+03  0.12509249052E+03 0.  0.
         23    2    1    2    0    0 -0.52870862103E+02 -0.21576360711E+02  0.30543840732E+02  0.11467182217E+03  0.94635264001E+02 0.  0.
          5    1    3    3  502    0  0.73507449549E+02 -0.27297684958E+02  0.44315702468E+02  0.90165750862E+02  0.41800000000E+01 0. -1.
         -5    1    3    3    0  502 -0.20636587446E+02  0.48874045669E+02  0.74566173997E+02  0.91608557384E+02  0.41800000000E+01 0. -1.
        -11    1    4    4    0    0 -0.34996610860E+02  0.25740296235E+02 -0.15645782288E+02  0.46174842993E+02  0.00000000000E+00 0. -1.
         11    1    4    4    0    0 -0.17874251243E+02 -0.47316656946E+02  0.46189623021E+02  0.68496979180E+02  0.00000000000E+00 0.  1.
</event>
<event>
 8    1  0.6840084E-009  0.7900425E+02  0.7561462E-02  0.1331901E+00
         -2   -1    0    0    0  501 -0.00000000000E+00  0.00000000000E+00  0.26404442154E+03  0.26404442154E+03  0.00000000000E+00 0.  1.
          2   -1    0    0  501    0  0.00000000000E+00 -0.00000000000E+00 -0.49514585354E+02  0.49514585354E+02  0.00000000000E+00 0. -1.
         25    2    1    2    0    0  0.32941101485E+02 -0.14780963776E+02  0.12406556062E+03  0.17987490764E+03  0.12513642959E+03 0.  0.
         23    2    1    2    0    0 -0.32941101485E+02  0.14780963776E+02  0.90464275564E+02  0.13368409925E+03  0.91564513772E+02 0.  0.
          5    1    3    3  502    0 -0.11699359808E+02 -0.58147599140E+02  0.92508417228E+02  0.10996953198E+03  0.41800000000E+01 0.  1.
         -5    1    3    3    0  502  0.44640461293E+02  0.43366635364E+02  0.31557143393E+02  0.69905375662E+02  0.41800000000E+01 0.  1.
        -11    1    4    4    0    0 -0.19990577545E+02  0.10132549997E+02  0.10861745618E+03  0.11090556139E+03  0.00000000000E+00 0.  1.
         11    1    4    4    0    0 -0.12950523940E+02  0.46484137795E+01 -0.18153180613E+02  0.22778537866E+02  0.00000000000E+00 0. -1.
</event>
<event>
 8    1  0.6840084E-009  0.1693685E+03  0.7561462E-02  0.1178508E+00
         -2   -1    0    0    0  501 -0.00000000000E+00  0.00000000000E+00  0.30330301701E+02  0.30330301701E+02  0.00000000000E+00 0.  1.
          2   -1    0    0  501    0  0.00000000000E+00 -0.00000000000E+00 -0.12124804932E+04  0.12124804932E+04  0.00000000000E+00 0. -1.
         25    2    1    2    0    0  0.43026712509E+02  0.14524011727E+03 -0.74368658622E+03  0.76919740872E+03  0.12509566501E+03 0.  0.
         23    2    1    2    0    0 -0.43026712509E+02 -0.14524011727E+03 -0.43846360524E+03  0.47361338614E+03  0.95463693404E+02 0.  0.
          5    1    3    3  502    0  0.58559057450E+02  0.14243561694E+03 -0.46143267773E+03  0.48647164014E+03  0.41800000000E+01 0.  1.
         -5    1    3    3    0  502 -0.15532344941E+02  0.28045003269E+01 -0.28225390849E+03  0.28272576858E+03  0.41800000000E+01 0.  1.
        -11    1    4    4    0    0  0.18719460527E+02 -0.61632776716E+02 -0.25238410546E+03  0.26047409479E+03  0.00000000000E+00 0.  1.
         11    1    4    4    0    0 -0.61746173036E+02 -0.83607340554E+02 -0.18607949978E+03  0.21313929135E+03  0.00000000000E+00 0. -1.
</event>
<event>
 8    1  0.6840084E-009  0.9114432E+02  0.7561462E-02  0.1300104E+00
         -2   -1    0    0    0  501 -0.00000000000E+00  0.00000000000E+00  0.58966542502E+03  0.58966542502E+03  0.00000000000E+00 0. -1.
          2   -1    0    0  501    0  0.00000000000E+00 -0.00000000000E+00 -0.26067746050E+02  0.26067746050E+02  0.00000000000E+00 0.  1.
         25    2    1    2    0    0  0.27637646751E+02 -0.49687571979E+02  0.32208306627E+03  0.35016999167E+03  0.12509527233E+03 0.  0.
         23    2    1    2    0    0 -0.27637646751E+02  0.49687571979E+02  0.24151461269E+03  0.26556317939E+03  0.94666782875E+02 0.  0.
          5    1    3    3  502    0  0.27198835730E+02 -0.44464551522E+01  0.31907829858E+01  0.28057104707E+02  0.41800000000E+01 0.  1.
         -5    1    3    3    0  502  0.43881102167E+00 -0.45241116827E+02  0.31889228329E+03  0.32211288696E+03  0.41800000000E+01 0.  1.
        -11    1    4    4    0    0  0.10866323526E+02  0.66197429475E+02  0.16882942041E+03  0.18166879163E+03  0.00000000000E+00 0. -1.
         11    1    4    4    0    0 -0.38503970277E+02 -0.16509857496E+02  0.72685192282E+02  0.83894387766E+02  0.00000000000E+00 0.  1.
</event>
<event>
 7    1  0.6840084E-009  0.9833967E+02  0.7561462E-02  0.1283827E+00
         -2   -1    0    0    0  501 -0.00000000000E+00  0.00000000000E+00  0.52668389235E+02  0.52668389235E+02  0.00000000000E+00 0. -1.
          2   -1    0    0  501    0  0.00000000000E+00 -0.00000000000E+00 -0.22436285902E+03  0.22436285902E+03  0.00000000000E+00 0.  1.
         23    2    1    2    0    0  0.78802828437E+01 -0.66892959970E+01 -0.91662340775E+02  0.12810022773E+03  0.88886658671E+02 0.  0.
          5    1    1    2  502    0 -0.55870481076E+02  0.34720209363E+02 -0.24682160419E+02  0.70382419941E+02  0.41800000000E+01 0. -1.
         -5    1    1    2    0  502  0.47990198232E+02 -0.28030913366E+02 -0.55349968592E+02  0.78548600583E+02  0.41800000000E+01 0. -1.
        -11    1    3    3    0    0  0.29205711161E+02  0.23903678094E+02 -0.80925353477E+02  0.89293181298E+02  0.00000000000E+00 0.  1.
         11    1    3    3    0    0 -0.21325428317E+02 -0.30592974091E+02 -0.10736987298E+02  0.38807046433E+02  0.00000000000E+00 0. -1.
</event>
<event>
 8    1  0.6840084E-009  0.1553870E+03  0.7561462E-02  0.1194005E+00
          2   -1    0    0  501    0  0.00000000000E+00  0.00000000000E+00  0.19509338920E+03  0.19509338920E+03  0.00000000000E+00 0. -1.
         -2   -1    0    0    0  501 -0.00000000000E+00 -0.00000000000E+00 -0.16233261194E+03  0.16233261194E+03  0.00000000000E+00 0.  1.
         25    2    1    2    0    0  0.11450126346E+03  0.81655020084E+02  0.27950806283E+02  0.19027543332E+03  0.12508161861E+03 0.  0.
         23    2    1    2    0    0 -0.11450126346E+03 -0.81655020084E+02  0.48099709794E+01  0.16715056782E+03  0.90211389883E+02 0.  0.
          5    1    3    3  502    0  0.73653010516E+02  0.69047230734E+02 -0.40995984587E+02  0.10904324455E+03  0.41800000000E+01 0. -1.
         -5    1    3    3    0  502  0.40848252944E+02  0.12607789350E+02  0.68946790870E+02  0.81232188768E+02  0.41800000000E+01 0. -1.
        -11    1    4    4    0    0 -0.21787685742E+02 -0.70025884144E+02 -0.28882194774E+01  0.73393933754E+02  0.00000000000E+00 0. -1.
         11    1    4    4    0    0 -0.92713577717E+02 -0.11629135940E+02  0.76981904568E+01  0.93756634070E+02  0.00000000000E+00 0.  1.
</event>
<event>
 8    1  0.6840084E-009  0.8290049E+02  0.7561462E-02  0.1321016E+00
          2   -1    0    0  501    0  0.00000000000E+00  0.00000000000E+00  0.23078239980E+03  0.23078239980E+03  0.00000000000E+00 0. -1.
         -2   -1    0    0    0  501 -0.00000000000E+00 -0.00000000000E+00 -0.10296264472E+03  0.10296264472E+03  0.00000000000E+00 0.  1.
         25    2    1    2    0    0  0.64959716387E+02  0.46729303519E+02  0.13945987561E+03  0.20371998983E+03  0.12509750115E+03 0.  0.
         23    2    1    2    0    0 -0.64959716387E+02 -0.46729303519E+02 -0.11640120526E+02  0.13002505469E+03  0.10182155902E+03 0.  0.
          5    1    3    3  502    0  0.19209563010E+02  0.28263135283E+02 -0.17865381375E+02  0.38787322397E+02  0.41800000000E+01 0. -1.
         -5    1    3    3    0  502  0.45750153377E+02  0.18466168236E+02  0.15732525698E+03  0.16493266744E+03  0.41800000000E+01 0. -1.
        -11    1    4    4    0    0 -0.35201375701E+02 -0.14721615472E+02  0.44668215525E+02  0.58746168314E+02  0.00000000000E+00 0. -1.
         11    1    4    4    0    0 -0.29758340686E+02 -0.32007688047E+02 -0.56308336051E+02  0.71278886379E+02  0.00000000000E+00 0.  1.
</event>
<event>
 8    1  0.6840084E-009  0.9175216E+02  0.7561462E-02  0.1298663E+00
          1   -1    0    0  501    0  0.00000000000E+00  0.00000000000E+00  0.19415922305E+03  0.19415922305E+03  0.00000000000E+00 0. -1.
         -1   -1    0    0    0  501 -0.00000000000E+00 -0.00000000000E+00 -0.92587150028E+02  0.92587150028E+02  0.00000000000E+00 0.  1.
         25    2    1    2    0    0  0.41266446143E+02 -0.19010879652E+02 -0.12955726040E+02  0.13371272497E+03  0.12508760474E+03 0.  0.
         23    2    1    2    0    0 -0.41266446143E+02  0.19010879652E+02  0.11452779906E+03  0.15303364811E+03  0.90765343453E+02 0.  0.
          5    1    3    3  502    0  0.25357823822E+02 -0.65401923248E+02  0.21666692240E+02  0.73534677168E+02  0.41800000000E+01 0.  1.
         -5    1    3    3    0  502  0.15908622321E+02  0.46391043596E+02 -0.34622418279E+02  0.60178047805E+02  0.41800000000E+01 0.  1.
        -11    1    4    4    0    0 -0.42634534435E+02  0.30514037717E+02  0.12615794071E+03  0.13661857864E+03  0.00000000000E+00 0. -1.
         11    1    4    4    0    0  0.13680882919E+01 -0.11503158065E+02 -0.11630141646E+02  0.16415069471E+02  0.00000000000E+00 0.  1.
</event>
<event>
 8    1  0.6840084E-009  0.2999019E+03  0.7561462E-02  0.1085290E+00
         -1   -1    0    0    0  501 -0.00000000000E+00  0.00000000000E+00  0.42753388645E+03  0.42753388645E+03  0.00000000000E+00 0.  1.
          1   -1    0    0  501    0  0.00000000000E+00 -0.00000000000E+00 -0.25446690702E+03  0.25446690702E+03  0.00000000000E+00 0. -1.
         25    2    1    2    0    0  0.46635144572E+02  0.28781693960E+03 -0.24254316311E+02  0.31819740685E+03  0.12509152823E+03 0.  0.
         23    2    1    2    0    0 -0.46635144572E+02 -0.28781693960E+03  0.19732129574E+03  0.36380338661E+03  0.91672149127E+02 0.  0.
          5    1    3    3  502    0  0.40497259212E+02  0.71137695927E+02 -0.55733466546E+02  0.99117563927E+02  0.41800000000E+01 0.  1.
         -5    1    3    3    0  502  0.61378853594E+01  0.21667924367E+03  0.31479150235E+02  0.21907984292E+03  0.41800000000E+01 0.  1.
        -11    1    4    4    0    0  0.20764756714E+02 -0.63395632797E+02  0.19055491378E+02  0.69377900882E+02  0.00000000000E+00 0. -1.
         11    1    4    4    0    0 -0.67399901286E+02 -0.22442130680E+03  0.17826580436E+03  0.29442548573E+03  0.00000000000E+00 0.  1.
</event>
<event>
 8    1  0.6840084E-009  0.1144278E+03  0.7561462E-02  0.1252583E+00
          1   -1    0    0  501    0  0.00000000000E+00  0.00000000000E+00  0.12475572261E+04  0.12475572261E+04  0.00000000000E+00 0. -1.
         -1   -1    0    0    0  501 -0.00000000000E+00 -0.00000000000E+00 -0.24149626011E+02  0.24149626011E+02  0.00000000000E+00 0.  1.
         25    2    1    2    0    0  0.83361861107E+02 -0.40971149855E+02  0.10083050582E+04  0.10202716403E+04  0.12508914720E+03 0.  0.
         23    2    1    2    0    0 -0.83361861107E+02  0.40971149855E+02  0.21510254197E+03  0.25143521182E+03  0.91228982088E+02 0.  0.
          5    1    3    3  502    0  0.33054690663E+02  0.59853305504E+00  0.82462606350E+03  0.82529908992E+03  0.41800000000E+01 0.  1.
         -5    1    3    3    0  502  0.50307170444E+02 -0.41569682910E+02  0.18367899465E+03  0.19497255040E+03  0.41800000000E+01 0.  1.
        -11    1    4    4    0    0 -0.79130490997E+02  0.67050721777E+02  0.16842011984E+03  0.19779476905E+03  0.00000000000E+00 0.  1.
         11    1    4    4    0    0 -0.42313701107E+01 -0.26079571922E+02  0.46682422126E+02  0.53640442767E+02  0.00000000000E+00 0. -1.
</event>
<event>
 8    1  0.6840084E-009  0.9927672E+02  0.7561462E-02  0.1281824E+00
         -1   -1    0    0    0  501 -0.00000000000E+00  0.00000000000E+00  0.13372485739E+02  0.13372485739E+02  0.00000000000E+00 0.  1.
          1   -1    0    0  501    0  0.00000000000E+00 -0.00000000000E+00 -0.11030534412E+04  0.11030534412E+04  0.00000000000E+00 0. -1.
         25    2    1    2    0    0 -0.29671204090E+02 -0.49230893205E+02 -0.64618753928E+03  0.66068839679E+03  0.12508701185E+03 0.  0.
         23    2    1    2    0    0  0.29671204090E+02  0.49230893205E+02 -0.44349341615E+03  0.45573753012E+03  0.87785106902E+02 0.  0.
          5    1    3    3  502    0 -0.48233842226E+02 -0.74275801865E+00 -0.91154780362E+02  0.10321686688E+03  0.41800000000E+01 0.  1.
         -5    1    3    3    0  502  0.18562638135E+02 -0.48488135187E+02 -0.55503275892E+03  0.55747152991E+03  0.41800000000E+01 0.  1.
        -11    1    4    4    0    0 -0.18976898598E+02 -0.99569255074E+01 -0.43731758352E+02  0.48700407950E+02  0.00000000000E+00 0.  1.
         11    1    4    4    0    0  0.48648102688E+02  0.59187818713E+02 -0.39976165780E+03  0.40703712217E+03  0.00000000000E+00 0. -1.
</event>
<event>
 8    1  0.6840084E-009  0.9541159E+02  0.7561462E-02  0.1290252E+00
          2   -1    0    0  501    0  0.00000000000E+00  0.00000000000E+00  0.12008481192E+03  0.12008481192E+03  0.00000000000E+00 0.  1.
         -2   -1    0    0    0  501 -0.00000000000E+00 -0.00000000000E+00 -0.15055181497E+03  0.15055181497E+03  0.00000000000E+00 0. -1.
         25    2    1    2    0    0 -0.57934320390E+02  0.52525812082E+02 -0.26084504825E+02  0.14980948010E+03  0.12508849877E+03 0.  0.
         23    2    1    2    0    0  0.57934320390E+02 -0.52525812082E+02 -0.43824982194E+01  0.12082714679E+03  0.92003514584E+02 0.  0.
          5    1    3    3  502    0 -0.20019638514E+02  0.33720966924E+02 -0.75155256677E+02  0.84874463431E+02  0.41800000000E+01 0. -1.
         -5    1    3    3    0  502 -0.37914681876E+02  0.18804845159E+02  0.49070751852E+02  0.64935016674E+02  0.41800000000E+01 0. -1.
        -11    1    4    4    0    0  0.56417781224E+02 -0.10837128790E+00 -0.28384478289E+02  0.63155810424E+02  0.00000000000E+00 0. -1.
         11    1    4    4    0    0  0.15165391658E+01 -0.52417440795E+02  0.24001980069E+02  0.57671336362E+02  0.00000000000E+00 0.  1.
</event>
<event>
 8    1  0.6840084E-009  0.1553145E+03  0.7561462E-02  0.1194091E+00
         -2   -1    0    0    0  501 -0.00000000000E+00  0.00000000000E+00  0.42514041822E+02  0.42514041822E+02  0.00000000000E+00 0.  1.
          2   -1    0    0  501    0  0.00000000000E+00 -0.00000000000E+00 -0.71511644771E+03  0.71511644771E+03  0.00000000000E+00 0. -1.
         25    2    1    2    0    0  0.29967663774E+02 -0.11165405863E+03 -0.52620400442E+03  0.55308578240E+03  0.12509411957E+03 0.  0.
         23    2    1    2    0    0 -0.29967663774E+02  0.11165405863E+03 -0.14639840147E+03  0.20454470713E+03  0.83912785567E+02 0.  0.
          5    1    3    3  502    0  0.76456230899E+02 -0.91691294279E+02 -0.36011268323E+03  0.37940936429E+03  0.41800000000E+01 0.  1.
         -5    1    3    3    0  502 -0.46488567125E+02 -0.19962764349E+02 -0.16609132119E+03  0.17367641811E+03  0.41800000000E+01 0.  1.
        -11    1    4    4    0    0 -0.54729223853E+02  0.50663664444E+02 -0.58802440993E+02  0.94972742958E+02  0.00000000000E+00 0.  1.
         11    1    4    4    0    0  0.24761560078E+02  0.60990394184E+02 -0.87595960481E+02  0.10957196417E+03  0.00000000000E+00 0. -1.
</event>
<event>
 8    1  0.6840084E-009  0.1145256E+03  0.7561462E-02  0.1252411E+00
          2   -1    0    0  501    0  0.00000000000E+00  0.00000000000E+00  0.20238351012E+02  0.20238351012E+02  0.00000000000E+00 0. -1.
         -2   -1    0    0    0  501 -0.00000000000E+00 -0.00000000000E+00 -0.92262655526E+03  0.92262655526E+03  0.00000000000E+00 0.  1.
         25    2    1    2    0    0 -0.49187442874E+02  0.65494749126E+02 -0.50234713509E+03  0.52412667403E+03  0.12508860702E+03 0.  0.
         23    2    1    2    0    0  0.49187442874E+02 -0.65494749126E+02 -0.40004106916E+03  0.41873823223E+03  0.92735556402E+02 0.  0.
          5    1    3    3  502    0 -0.64705593687E+02  0.60194248765E+02 -0.49911767231E+03  0.50689849541E+03  0.41800000000E+01 0.  1.
         -5    1    3    3    0  502  0.15518150813E+02  0.53005003610E+01 -0.32294627734E+01  0.17228178619E+02  0.41800000000E+01 0.  1.
        -11    1    4    4    0    0  0.39938603092E+02 -0.89457966328E+02 -0.32269229123E+03  0.33723602206E+03  0.00000000000E+00 0. -1.
         11    1    4    4    0    0  0.92488397821E+01  0.23963217202E+02 -0.77348777932E+02  0.81502210176E+02  0.00000000000E+00 0.  1.
</event>
<event>
 8    1  0.6840084E-009  0.8983562E+02  0.7561462E-02  0.1303250E+00
          2   -1    0    0  501    0  0.00000000000E+00  0.00000000000E+00  0.70367125631E+02  0.70367125631E+02  0.00000000000E+00 0. -1.
         -2   -1    0    0    0  501 -0.00000000000E+00 -0.00000000000E+00 -0.17080028561E+03  0.17080028561E+03  0.00000000000E+00 0.  1.
         25    2    1    2    0    0 -0.11111476758E+02  0.13035141032E+02 -0.52080225707E+02  0.13662888370E+03  0.12514680233E+03 0.  0.
         23    2    1    2    0    0  0.11111476758E+02 -0.13035141032E+02 -0.48352934268E+02  0.10453852754E+03  0.91087417741E+02 0.  0.
          5    1    3    3  502    0  0.31989603647E+02  0.46511710701E+02 -0.58639325381E+02  0.81502864091E+02  0.41800000000E+01 0.  1.
         -5    1    3    3    0  502 -0.43101080405E+02 -0.33476569669E+02  0.65590996747E+01  0.55126019604E+02  0.41800000000E+01 0.  1.
        -11    1    4    4    0    0  0.14888786283E+02  0.25544870882E+02 -0.57547283438E+02  0.64698579710E+02  0.00000000000E+00 0.  1.
         11    1    4    4    0    0 -0.37773095246E+01 -0.38580011915E+02  0.91943491699E+01  0.39839947832E+02  0.00000000000E+00 0. -1.
</event>
<event>
 8    1  0.6840084E-009  0.1161496E+03  0.7561462E-02  0.1249588E+00
          3   -1    0    0  501    0  0.00000000000E+00  0.00000000000E+00  0.16109504223E+03  0.16109504223E+03  0.00000000000E+00 0. -1.
         -3   -1    0    0    0  501 -0.00000000000E+00 -0.00000000000E+00 -0.12294513030E+03  0.12294513030E+03  0.00000000000E+00 0.  1.
         25    2    1    2    0    0 -0.61241264522E+02 -0.64210727831E+02  0.30798041895E+02  0.15642778224E+03  0.12509045377E+03 0.  0.
         23    2    1    2    0    0  0.61241264522E+02  0.64210727831E+02  0.73518700412E+01  0.12761239029E+03  0.91418609224E+02 0.  0.
          5    1    3    3  502    0  0.10244224090E+02  0.10813118582E+02 -0.31746951062E+02  0.35315845770E+02  0.41800000000E+01 0. -1.
         -5    1    3    3    0  502 -0.71485488612E+02 -0.75023846413E+02  0.62544992957E+02  0.12111193648E+03  0.41800000000E+01 0. -1.
        -11    1    4    4    0    0 -0.10810287022E+01  0.48938087362E+02  0.32431545464E+02  0.58718908018E+02  0.00000000000E+00 0. -1.
         11    1    4    4    0    0  0.62322293225E+02  0.15272640469E+02 -0.25079675423E+02  0.68893482268E+02  0.00000000000E+00 0.  1.
</event>
<event>
 8    1  0.6840084E-009  0.1239546E+03  0.7561462E-02  0.1236712E+00
         -2   -1    0    0    0  501 -0.00000000000E+00  0.00000000000E+00  0.13452780448E+03  0.13452780448E+03  0.00000000000E+00 0. -1.
          2   -1    0    0  501    0  0.00000000000E+00 -0.00000000000E+00 -0.13673657679E+03  0.13673657679E+03  0.00000000000E+00 0.  1.
         25    2    1    2    0    0 -0.53833355931E+02  0.55298298061E+02 -0.14486685840E+02  0.14770465475E+03  0.12510343316E+03 0.  0.
         23    2    1    2    0    0  0.53833355931E+02 -0.55298298061E+02  0.12277913532E+02  0.12355972652E+03  0.95709596585E+02 0.  0.
          5    1    3    3  502    0  0.15891979912E+02 -0.21651462388E+02  0.24612024898E+02  0.36668310823E+02  0.41800000000E+01 0.  1.
         -5    1    3    3    0  502 -0.69725335842E+02  0.76949760449E+02 -0.39098710738E+02  0.11103634393E+03  0.41800000000E+01 0.  1.
        -11    1    4    4    0    0  0.62663016972E+02 -0.19123900117E+01 -0.12693790283E+02  0.63964390432E+02  0.00000000000E+00 0.  1.
         11    1    4    4    0    0 -0.88296610415E+01 -0.53385908049E+02  0.24971703815E+02  0.59595336091E+02  0.00000000000E+00 0. -1.
</event>
<event>
 8    1  0.6840084E-009  0.1315517E+03  0.7561462E-02  0.1225171E+00
          1   -1    0    0  501    0  0.00000000000E+00  0.00000000000E+00  0.25709063454E+03  0.25709063454E+03  0.00000000000E+00 0. -1.
         -1   -1    0    0    0  501 -0.00000000000E+00 -0.00000000000E+00 -0.11926247930E+03  0.11926247930E+03  0.00000000000E+00 0.  1.
         25    2    1    2    0    0  0.79054344131E+02 -0.10491629158E+03  0.11313044865E+03  0.21378284493E+03  0.12509032261E+03 0.  0.
         23    2    1    2    0    0 -0.79054344131E+02  0.10491629158E+03  0.24697706592E+02  0.16257026890E+03  0.92531605716E+02 0.  0.
          5    1    3    3  502    0  0.29920425010E+02 -0.43781885667E+02 -0.21936355094E+02  0.57539216367E+02  0.41800000000E+01 0.  1.
         -5    1    3    3    0  502  0.49133919122E+02 -0.61134405908E+02  0.13506680374E+03  0.15624362856E+03  0.41800000000E+01 0.  1.
        -11    1    4    4    0    0 -0.52596794293E+02  0.69461255622E+02 -0.30066742065E+02  0.92169939682E+02  0.00000000000E+00 0.  1.
         11    1    4    4    0    0 -0.26457549838E+02  0.35455035953E+02  0.54764448656E+02  0.70400329222E+02  0.00000000000E+00 0. -1.
</event>
<event>
 8    1  0.6840084E-009  0.1413596E+03  0.7561462E-02  0.1211511E+00
         -1   -1    0    0    0  501 -0.00000000000E+00  0.00000000000E+00  0.33819461926E+02  0.33819461926E+02  0.00000000000E+00 0.  1.
          1   -1    0    0  501    0  0.00000000000E+00 -0.00000000000E+00 -0.93292436096E+03  0.93292436096E+03  0.00000000000E+00 0. -1.
         25    2    1    2    0    0  0.38528095254E+02 -0.12941048942E+03 -0.36821261539E+03  0.41165523101E+03  0.12509200691E+03 0.  0.
         23    2    1    2    0    0 -0.38528095254E+02  0.12941048942E+03 -0.53089228365E+03  0.55508859188E+03  0.89695256846E+02 0.  0.
          5    1    3    3  502    0  0.29585617102E+02 -0.12868144664E+03 -0.37633698409E+03  0.39884987331E+03  0.41800000000E+01 0. -1.
         -5    1    3    3    0  502  0.89424781514E+01 -0.72904277578E+00  0.81243687038E+01  0.12805357695E+02  0.41800000000E+01 0. -1.
        -11    1    4    4    0    0 -0.43409499659E+01  0.82792248013E+02 -0.43723980153E+03  0.44503038572E+03  0.00000000000E+00 0. -1.
         11    1    4    4    0    0 -0.34187145288E+02  0.46618241403E+02 -0.93652482121E+02  0.11005820615E+03  0.00000000000E+00 0.  1.
</event>
<event>
 8    1  0.6840084E-009  0.1360963E+03  0.7561462E-02  0.1218680E+00
          2   -1    0    0  501    0  0.00000000000E+00  0.00000000000E+00  0.14778238943E+04  0.14778238943E+04  0.00000000000E+00 0. -1.
         -2   -1    0    0    0  501 -0.00000000000E+00 -0.00000000000E+00 -0.15104915969E+02  0.15104915969E+02  0.00000000000E+00 0.  1.
         25    2    1    2    0    0  0.76955741994E+02  0.33675463958E+02  0.10879297707E+04  0.10983147287E+04  0.12509130305E+03 0.  0.
         23    2    1    2    0    0 -0.76955741994E+02 -0.33675463958E+02  0.37478920757E+03  0.39461408155E+03  0.90537838241E+02 0.  0.
          5    1    3    3  502    0  0.99032301222E+02 -0.11410429066E+02  0.76512005473E+03  0.77159818891E+03  0.41800000000E+01 0.  1.
         -5    1    3    3    0  502 -0.22076559228E+02  0.45085893024E+02  0.32280971602E+03  0.32671653979E+03  0.41800000000E+01 0.  1.
        -11    1    4    4    0    0  0.14476870468E+02 -0.26665930112E+02  0.69133674908E+02  0.75499116641E+02  0.00000000000E+00 0. -1.
         11    1    4    4    0    0 -0.91432612462E+02 -0.70095338456E+01  0.30565553266E+03  0.31911496491E+03  0.00000000000E+00 0.  1.
</event>
<event>
 8    1  0.6840084E-009  0.1136369E+03  0.7561462E-02  0.1253979E+00
         -2   -1    0    0    0  501 -0.00000000000E+00  0.00000000000E+00  0.40194722209E+02  0.40194722209E+02  0.00000000000E+00 0.  1.
          2   -1    0    0  501    0  0.00000000000E+00 -0.00000000000E+00 -0.11971856633E+04  0.11971856633E+04  0.00000000000E+00 0. -1.
         25    2    1    2    0    0  0.81455136646E+02  0.40372444115E+02 -0.10715598083E+04  0.10826601031E+04  0.12509037783E+03 0.  0.
         23    2    1    2    0    0 -0.81455136646E+02 -0.40372444115E+02 -0.85431132754E+02  0.15472028234E+03  0.91515101446E+02 0.  0.
          5    1    3    3  502    0  0.84955488850E+02  0.89466202497E+01 -0.34651151408E+03  0.35691060350E+03  0.41800000000E+01 0.  1.
         -5    1    3    3    0  502 -0.35003522045E+01  0.31425823865E+02 -0.72504829423E+03  0.72574949965E+03  0.41800000000E+01 0.  1.
        -11    1    4    4    0    0 -0.40718914656E+02  0.12968353963E+02  0.39823780061E+01  0.42919314415E+02  0.00000000000E+00 0.  1.
         11    1    4    4    0    0 -0.40736221990E+02 -0.53340798078E+02 -0.89413510760E+02  0.11180096792E+03  0.00000000000E+00 0. -1.
</event>
<event>
 8    1  0.6840084E-009  0.5748598E+02  0.7561462E-02  0.1408695E+00
         -1   -1    0    0    0  501 -0.00000000000E+00  0.00000000000E+00  0.11431059326E+03  0.11431059326E+03  0.00000000000E+00 0.  1.
          1   -1    0    0  501    0  0.00000000000E+00 -0.00000000000E+00 -0.10013167222E+03  0.10013167222E+03  0.00000000000E+00 0. -1.
         25    2    1    2    0    0  0.11540972945E+02  0.99187665959E+00  0.84610734051E+01  0.12591078604E+03  0.12509100048E+03 0.  0.
         23    2    1    2    0    0 -0.11540972945E+02 -0.99187665959E+00  0.57178476336E+01  0.88531479440E+02  0.87583966537E+02 0.  0.
          5    1    3    3  502    0 -0.33194981776E+02 -0.79282496146E+01 -0.44274795462E+02  0.56057951000E+02  0.41800000000E+01 0. -1.
         -5    1    3    3    0  502  0.44735954721E+02  0.89201262741E+01  0.52735868867E+02  0.69852835037E+02  0.41800000000E+01 0. -1.
        -11    1    4    4    0    0 -0.16969815610E+02  0.11943992077E+02  0.43517700605E+02  0.48212279084E+02  0.00000000000E+00 0.  1.
         11    1    4    4    0    0  0.54288426657E+01 -0.12935868736E+02 -0.37799852971E+02  0.40319200355E+02  0.00000000000E+00 0. -1.
</event>
<event>
 8    1  0.6840084E-009  0.1675169E+03  0.7561462E-02  0.1180462E+00
          2   -1    0    0  501    0  0.00000000000E+00  0.00000000000E+00  0.99504319658E+02  0.99504319658E+02  0.00000000000E+00 0. -1.
         -2   -1    0    0    0  501 -0.00000000000E+00 -0.00000000000E+00 -0.30535750336E+03  0.30535750336E+03  0.00000000000E+00 0.  1.
         25    2    1    2    0    0 -0.89432327395E+02 -0.92085112907E+02 -0.56619865971E+02  0.18796744257E+03  0.12509252992E+03 0.  0.
         23    2    1    2    0    0  0.89432327395E+02  0.92085112907E+02 -0.14923331773E+03  0.21689438044E+03  0.91075682513E+02 0.  0.
          5    1    3    3  502    0 -0.24080157069E+02  0.31133196790E+02 -0.15360198611E+02  0.42456307049E+02  0.41800000000E+01 0. -1.
         -5    1    3    3    0  502 -0.65352170326E+02 -0.12321830970E+03 -0.41259667360E+02  0.14551113552E+03  0.41800000000E+01 0. -1.
        -11    1    4    4    0    0  0.61600065639E+02  0.10764773499E+03 -0.10586351871E+03  0.16306344633E+03  0.00000000000E+00 0.  1.
         11    1    4    4    0    0  0.27832261756E+02 -0.15562622083E+02 -0.43369799023E+02  0.53830934117E+02  0.00000000000E+00 0. -1.
</event>
<event>
 8    1  0.6840084E-009  0.8234423E+02  0.7561462E-02  0.1322527E+00
         -1   -1    0    0    0  501 -0.00000000000E+00  0.00000000000E+00  0.45280457954E+03  0.45280457954E+03  0.00000000000E+00 0.  1.
          1   -1    0    0  501    0  0.00000000000E+00 -0.00000000000E+00 -0.34809397950E+02  0.34809397950E+02  0.00000000000E+00 0. -1.
         25    2    1    2    0    0  0.16156105755E+01  0.44959557049E+02  0.32031018277E+03  0.34679389803E+03  0.12507366853E+03 0.  0.
         23    2    1    2    0    0 -0.16156105755E+01 -0.44959557049E+02  0.97684998823E+02  0.14082007946E+03  0.90906346406E+02 0.  0.
          5    1    3    3  502    0  0.48572026845E+02  0.39174849003E+02  0.78520689398E+02  0.10038367223E+03  0.41800000000E+01 0.  1.
         -5    1    3    3    0  502 -0.46956416269E+02  0.57847080463E+01  0.24178949337E+03  0.24641022581E+03  0.41800000000E+01 0.  1.
        -11    1    4    4    0    0  0.14170580368E+02 -0.14108374995E+02  0.10373137616E+03  0.10564113778E+03  0.00000000000E+00 0.  1.
         11    1    4    4    0    0 -0.15786190943E+02 -0.30851182055E+02 -0.60463773339E+01  0.35178941677E+02  0.00000000000E+00 0. -1.
</event>
<event>
 8    1  0.6840084E-009  0.2352604E+03  0.7561462E-02  0.1122991E+00
          1   -1    0    0  501    0  0.00000000000E+00  0.00000000000E+00  0.64904293812E+03  0.64904293812E+03  0.00000000000E+00 0. -1.
         -1   -1    0    0    0  501 -0.00000000000E+00 -0.00000000000E+00 -0.93411597766E+02  0.93411597766E+02  0.00000000000E+00 0.  1.
         25    2    1    2    0    0  0.79894569988E+02  0.20321723120E+03  0.33502600168E+03  0.41900953773E+03  0.12508471346E+03 0.  0.
         23    2    1    2    0    0 -0.79894569988E+02 -0.20321723120E+03  0.22060533867E+03  0.32344499815E+03  0.90937154152E+02 0.  0.
          5    1    3    3  502    0  0.24344707173E+02  0.16666686690E+03  0.29915677676E+03  0.34334058713E+03  0.41800000000E+01 0. -1.
         -5    1    3    3    0  502  0.55549862815E+02  0.36550364302E+02  0.35869224916E+02  0.75668950603E+02  0.41800000000E+01 0. -1.
        -11    1    4    4    0    0  0.48131634283E+00 -0.11895916538E+03  0.12726544874E+03  0.17420679991E+03  0.00000000000E+00 0.  1.
         11    1    4    4    0    0 -0.80375886331E+02 -0.84258065819E+02  0.93339889935E+02  0.14923819823E+03  0.00000000000E+00 0. -1.
</event>
<event>
 7    1  0.6840084E-009  0.1143549E+03  0.7561462E-02  0.1252711E+00
         -1   -1    0    0    0  501 -0.00000000000E+00  0.00000000000E+00  0.37271302975E+02  0.37271302975E+02  0.00000000000E+00 0.  1.
          1   -1    0    0  501    0  0.00000000000E+00 -0.00000000000E+00 -0.60036854680E+03  0.60036854680E+03  0.00000000000E+00 0. -1.
         23    2    1    2    0    0  0.45005876744E+02  0.91570633479E+02 -0.23764334214E+03  0.27440474550E+03  0.91721842726E+02 0.  0.
          5    1    1    2  502    0 -0.51686413842E+02 -0.96383536229E+02 -0.14072626270E+03  0.17827682083E+03  0.41800000000E+01 0.  1.
         -5    1    1    2    0  502  0.66805370985E+01  0.48129027503E+01 -0.18472763899E+03  0.18495828345E+03  0.41800000000E+01 0.  1.
        -11    1    3    3    0    0  0.12938993405E+01  0.48983154347E+02 -0.19211374164E+03  0.19826425122E+03  0.00000000000E+00 0. -1.
         11    1    3    3    0    0  0.43711977403E+02  0.42587479132E+02 -0.45529600494E+02  0.76140494275E+02  0.00000000000E+00 0.  1.
</event>
<event>
 8    1  0.6840084E-009  0.1135959E+03  0.7561462E-02  0.1254052E+00
         -2   -1    0    0    0  501 -0.00000000000E+00  0.00000000000E+00  0.30820261031E+03  0.30820261031E+03  0.00000000000E+00 0.  1.
          2   -1    0    0  501    0  0.00000000000E+00 -0.00000000000E+00 -0.43941371488E+02  0.43941371488E+02  0.00000000000E+00 0. -1.
         25    2    1    2    0    0  0.33273349308E+02  0.76889777545E+01  0.17957201414E+03  0.22149762697E+03  0.12509538095E+03 0.  0.
         23    2    1    2    0    0 -0.33273349308E+02 -0.76889777545E+01  0.84689224684E+02  0.13064635484E+03  0.93434303664E+02 0.  0.
          5    1    3    3  502    0  0.32066105022E+02 -0.56308231219E+02  0.10092493389E+03  0.12000902747E+03  0.41800000000E+01 0. -1.
         -5    1    3    3    0  502  0.12072442866E+01  0.63997208973E+02  0.78647080252E+02  0.10148859949E+03  0.41800000000E+01 0. -1.
        -11    1    4    4    0    0 -0.63615690583E+02  0.77208236396E+01  0.44676523045E+02  0.78118876831E+02  0.00000000000E+00 0. -1.
         11    1    4    4    0    0  0.30342341274E+02 -0.15409801394E+02  0.40012701639E+02  0.52527478004E+02  0.00000000000E+00 0.  1.
</event>
<event>
 8    1  0.6840084E-009  0.9696138E+02  0.7561462E-02  0.1286819E+00
          1   -1    0    0  501    0  0.00000000000E+00  0.00000000000E+00  0.25333167387E+03  0.25333167387E+03  0.00000000000E+00 0. -1.
         -1   -1    0    0    0  501 -0.00000000000E+00 -0.00000000000E+00 -0.73023986163E+02  0.73023986163E+02  0.00000000000E+00 0.  1.
         25    2    1    2    0    0 -0.18123792616E+02 -0.14858510530E+02  0.48532644144E+01  0.12735771228E+03  0.12508871055E+03 0.  0.
         23    2    1    2    0    0  0.18123792616E+02  0.14858510530E+02  0.17545442329E+03  0.19899794775E+03  0.90921292139E+02 0.  0.
          5    1    3    3  502    0  0.36192331580E+01 -0.57845672953E+02 -0.32204314380E+02  0.66436518517E+02  0.41800000000E+01 0.  1.
         -5    1    3    3    0  502 -0.21743025774E+02  0.42987162423E+02  0.37057578794E+02  0.60921193759E+02  0.41800000000E+01 0.  1.
        -11    1    4    4    0    0 -0.30430154087E+02 -0.11112654073E+02  0.10312663684E+03  0.10809527549E+03  0.00000000000E+00 0.  1.
         11    1    4    4    0    0  0.48553946702E+02  0.25971164602E+02  0.72327786453E+02  0.90902672262E+02  0.00000000000E+00 0. -1.
</event>
<event>
 8    1  0.6840084E-009  0.7361989E+02  0.7561462E-02  0.1348199E+00
         -1   -1    0    0    0  501 -0.00000000000E+00  0.00000000000E+00  0.38966017683E+02  0.38966017683E+02  0.00000000000E+00 0.  1.
          1   -1    0    0  501    0  0.00000000000E+00 -0.00000000000E+00 -0.35984240590E+03  0.35984240590E+03  0.00000000000E+00 0. -1.
         25    2    1    2    0    0  0.46083763767E+02 -0.93968618647E+01 -0.15518448608E+03  0.20479388115E+03  0.12508514996E+03 0.  0.
         23    2    1    2    0    0 -0.46083763767E+02  0.93968618647E+01 -0.16569190213E+03  0.19401454243E+03  0.89307457394E+02 0.  0.
          5    1    3    3  502    0  0.18216878662E+02 -0.41920620463E+02 -0.15511263598E+03  0.16176092028E+03  0.41800000000E+01 0.  1.
         -5    1    3    3    0  502  0.27866885105E+02  0.32523758599E+02 -0.71850098682E-01  0.43032960870E+02  0.41800000000E+01 0.  1.
        -11    1    4    4    0    0 -0.19753892641E+02 -0.13078068694E+02  0.10529319291E+01  0.23714148116E+02  0.00000000000E+00 0.  1.
         11    1    4    4    0    0 -0.26329871126E+02  0.22474930558E+02 -0.16674483406E+03  0.17030039431E+03  0.00000000000E+00 0. -1.
</event>
<event>
 8    1  0.6840084E-009  0.1168613E+03  0.7561462E-02  0.1248367E+00
         -2   -1    0    0    0  501 -0.00000000000E+00  0.00000000000E+00  0.99682838926E+02  0.99682838926E+02  0.00000000000E+00 0.  1.
          2   -1    0    0  501    0  0.00000000000E+00 -0.00000000000E+00 -0.22594384520E+03  0.22594384520E+03  0.00000000000E+00 0. -1.
         25    2    1    2    0    0 -0.89952956106E+02  0.50770097306E+02 -0.63960350201E+02  0.17438031806E+03  0.12509369224E+03 0.  0.
         23    2    1    2    0    0  0.89952956106E+02 -0.50770097306E+02 -0.62300656071E+02  0.15124636606E+03  0.91241188105E+02 0.  0.
          5    1    3    3  502    0 -0.70956036926E+02  0.47433023961E+02 -0.10106778419E+03  0.13235112519E+03  0.41800000000E+01 0. -1.
         -5    1    3    3    0  502 -0.18996919181E+02  0.33370733450E+01  0.37107433985E+02  0.42029192876E+02  0.41800000000E+01 0. -1.
        -11    1    4    4    0    0  0.59207709105E+02 -0.70453422326E+02 -0.67828710505E+02  0.11432397607E+03  0.00000000000E+00 0.  1.
         11    1    4    4    0    0  0.30745247002E+02  0.19683325020E+02  0.55280544344E+01  0.36922389994E+02  0.00000000000E+00 0. -1.
</event>
<event>
 8    1  0.6840084E-009  0.1087763E+03  0.7561462E-02  0.1262853E+00
          2   -1    0    0  501    0  0.00000000000E+00  0.00000000000E+00  0.16500933326E+03  0.16500933326E+03  0.00000000000E+00 0. -1.
         -2   -1    0    0    0  501 -0.00000000000E+00 -0.00000000000E+00 -0.79671296722E+02  0.79671296722E+02  0.00000000000E+00 0.  1.
         25    2    1    2    0    0  0.12072146035E+02  0.32062480785E+02  0.65509526821E+02  0.14529915075E+03  0.12508639303E+03 0.  0.
         23    2    1    2    0    0 -0.12072146035E+02 -0.32062480785E+02  0.19828509717E+02  0.99381479228E+02  0.91157935650E+02 0.  0.
          5    1    3    3  502    0  0.10928825943E+01 -0.47364328704E+02  0.36409792931E+02  0.59897574635E+02  0.41800000000E+01 0. -1.
         -5    1    3    3    0  502  0.10979263440E+02  0.79426809488E+02  0.29099733891E+02  0.85401576119E+02  0.41800000000E+01 0. -1.
        -11    1    4    4    0    0 -0.10996584812E+02  0.27765088848E+02 -0.11302216705E+02  0.31930630102E+02  0.00000000000E+00 0.  1.
         11    1    4    4    0    0 -0.10755612226E+01 -0.59827569633E+02  0.31130726422E+02  0.67450849125E+02  0.00000000000E+00 0. -1.
</event>
<event>
 8    1  0.6840084E-009  0.3860647E+03  0.7561462E-02  0.1048715E+00
          1   -1    0    0  501    0  0.00000000000E+00  0.00000000000E+00  0.86061653481E+03  0.86061653481E+03  0.00000000000E+00 0. -1.
         -1   -1    0    0    0  501 -0.00000000000E+00 -0.00000000000E+00 -0.22578463149E+03  0.22578463149E+03  0.00000000000E+00 0.  1.
         25    2    1    2    0    0  0.29117649851E+03 -0.24727998417E+03  0.84780438477E+02  0.41081229560E+03  0.12509146897E+03 0.  0.
         23    2    1    2    0    0 -0.29117649851E+03  0.24727998417E+03  0.55005146485E+03  0.67558887071E+03  0.89064944767E+02 0.  0.
          5    1    3    3  502    0  0.27600954062E+03 -0.24863662302E+03  0.10414040055E+03  0.38582914903E+03  0.41800000000E+01 0. -1.
         -5    1    3    3    0  502  0.15166957892E+02  0.13566388525E+01 -0.19359962071E+02  0.24983146561E+02  0.41800000000E+01 0. -1.
        -11    1    4    4    0    0 -0.20700411179E+03  0.20208803700E+03  0.46518051130E+03  0.54779848949E+03  0.00000000000E+00 0. -1.
         11    1    4    4    0    0 -0.84172386719E+02  0.45191947171E+02  0.84870953552E+02  0.12779038122E+03  0.00000000000E+00 0.  1.
</event>
<event>
 8    1  0.6840084E-009  0.1369567E+03  0.7561462E-02  0.1217484E+00
          1   -1    0    0  501    0  0.00000000000E+00  0.00000000000E+00  0.48096442617E+03  0.48096442617E+03  0.00000000000E+00 0. -1.
         -1   -1    0    0    0  501 -0.00000000000E+00 -0.00000000000E+00 -0.47519395899E+02  0.47519395899E+02  0.00000000000E+00 0.  1.
         25    2    1    2    0    0  0.20049149489E+02  0.10411604137E+03  0.23235210140E+03  0.28438928648E+03  0.12509056229E+03 0.  0.
         23    2    1    2    0    0 -0.20049149489E+02 -0.10411604137E+03  0.20109292887E+03  0.24409453559E+03  0.88891269512E+02 0.  0.
          5    1    3    3  502    0 -0.18511093641E+02 -0.23727081168E+02  0.43447475625E+02  0.53016888882E+02  0.41800000000E+01 0.  1.
         -5    1    3    3    0  502  0.38560243131E+02  0.12784312254E+03  0.18890462578E+03  0.23137239760E+03  0.41800000000E+01 0.  1.
        -11    1    4    4    0    0 -0.11287501078E+01 -0.76208255095E+02  0.54559646702E+02  0.93732210417E+02  0.00000000000E+00 0.  1.
         11    1    4    4    0    0 -0.18920399382E+02 -0.27907786279E+02  0.14653328217E+03  0.15036232517E+03  0.00000000000E+00 0. -1.
</event>
<event>
 8    1  0.6840084E-009  0.7417071E+02  0.7561462E-02  0.1346458E+00
          3   -1    0    0  501    0  0.00000000000E+00  0.00000000000E+00  0.26277097927E+03  0.26277097927E+03  0.00000000000E+00 0. -1.
         -3   -1    0    0    0  501 -0.00000000000E+00 -0.00000000000E+00 -0.65297310199E+02  0.65297310199E+02  0.00000000000E+00 0.  1.
         25    2    1    2    0    0 -0.90810940016E+01  0.59787901956E+02  0.16337086051E+03  0.21446581149E+03  0.12509391170E+03 0.  0.
         23    2    1    2    0    0  0.90810940016E+01 -0.59787901956E+02  0.34102808559E+02  0.11360247798E+03  0.89919196858E+02 0.  0.
          5    1    3    3  502    0  0.21826643047E+02  0.18000446516E+02 -0.12364851569E+02  0.31157348664E+02  0.41800000000E+01 0. -1.
         -5    1    3    3    0  502 -0.30907737049E+02  0.41787455440E+02  0.17573571208E+03  0.18330846282E+03  0.41800000000E+01 0. -1.
        -11    1    4    4    0    0 -0.14667038318E+01 -0.56544969611E+02 -0.18764915221E+02  0.59595359313E+02  0.00000000000E+00 0.  1.
         11    1    4    4    0    0  0.10547797833E+02 -0.32429323449E+01  0.52867723779E+02  0.54007118669E+02  0.00000000000E+00 0. -1.
</event>
<event>
 7    1  0.6840084E-009  0.1477481E+03  0.7561462E-02  0.1203268E+00
         -1   -1    0    0    0  501 -0.00000000000E+00  0.00000000000E+00  0.34425788167E+02  0.34425788167E+02  0.00000000000E+00 0.  1.
          1   -1    0    0  501    0  0.00000000000E+00 -0.00000000000E+00 -0.68713180594E+03  0.68713180594E+03  0.00000000000E+00 0. -1.
         25    2    1    2    0    0 -0.85736814767E+02  0.90509668364E+02 -0.38813076505E+03  0.42642075371E+03  0.12508543855E+03 0.  0.
          5    1    3    3  502    0 -0.81656004289E+02  0.70328124488E+01 -0.11879265027E+03  0.14438258082E+03  0.41800000000E+01 0.  1.
         -5    1    3    3    0  502 -0.40808104781E+01  0.83476855915E+02 -0.26933811478E+03  0.28203817288E+03  0.41800000000E+01 0.  1.
        -11    1    1    2    0    0  0.80330714035E+02 -0.64037185106E+02 -0.22339175841E+03  0.24588139910E+03  0.00000000000E+00 0. -1.
         11    1    1    2    0    0  0.54061007329E+01 -0.26472483258E+02 -0.41183494303E+02  0.49255441303E+02  0.00000000000E+00 0.  1.
</event>
<event>
 8    1  0.6840084E-009  0.6077373E+02  0.7561462E-02  0.1394613E+00
          2   -1    0    0  501    0  0.00000000000E+00  0.00000000000E+00  0.37710526628E+02  0.37710526628E+02  0.00000000000E+00 0.  1.
         -2   -1    0    0    0  501 -0.00000000000E+00 -0.00000000000E+00 -0.38546499953E+03  0.38546499953E+03  0.00000000000E+00 0. -1.
         25    2    1    2    0    0 -0.79475397690E+01 -0.32646469591E+02 -0.26558491094E+03  0.29548720483E+03  0.12509351675E+03 0.  0.
         23    2    1    2    0    0  0.79475397690E+01  0.32646469591E+02 -0.82169561956E+02  0.12768832133E+03  0.91779709772E+02 0.  0.
          5    1    3    3  502    0 -0.68054487263E+01 -0.23933714573E+02 -0.27831925930E+03  0.27946058635E+03  0.41800000000E+01 0. -1.
         -5    1    3    3    0  502 -0.11420910427E+01 -0.87127550176E+01  0.12734348355E+02  0.16026618482E+02  0.41800000000E+01 0. -1.
        -11    1    4    4    0    0 -0.87983967223E+00 -0.26635458495E+02 -0.84445649197E+00  0.26663362013E+02  0.00000000000E+00 0.  1.
         11    1    4    4    0    0  0.88273794412E+01  0.59281928085E+02 -0.81325105464E+02  0.10102495931E+03  0.00000000000E+00 0. -1.
</event>
<event>
 7    1  0.6840084E-009  0.1126830E+03  0.7561462E-02  0.1255681E+00
         -1   -1    0    0    0  501 -0.00000000000E+00  0.00000000000E+00  0.18491643263E+02  0.18491643263E+02  0.00000000000E+00 0.  1.
          1   -1    0    0  501    0  0.00000000000E+00 -0.00000000000E+00 -0.81308296343E+03  0.81308296343E+03  0.00000000000E+00 0. -1.
         23    2    1    2    0    0  0.19374598297E+02  0.50835608769E+02 -0.35099204055E+03  0.36774238041E+03  0.95285946706E+02 0.  0.
          5    1    1    2  502    0  0.26034790489E+02  0.20930477131E+02 -0.44633544441E+02  0.55906358119E+02  0.41800000000E+01 0. -1.
         -5    1    1    2    0  502 -0.45409388786E+02 -0.71766085899E+02 -0.39896573517E+03  0.40792586816E+03  0.41800000000E+01 0. -1.
        -11    1    3    3    0    0  0.28596898640E+02 -0.20218084920E+02 -0.15912781198E+03  0.16293622714E+03  0.00000000000E+00 0. -1.
         11    1    3    3    0    0 -0.92223003425E+01  0.71053693689E+02 -0.19186422858E+03  0.20480615327E+03  0.00000000000E+00 0.  1.
</event>
<event>
 8    1  0.6840084E-009  0.2064434E+03  0.7561462E-02  0.1144414E+00
         -2   -1    0    0    0  501 -0.00000000000E+00  0.00000000000E+00  0.31148273369E+02  0.31148273369E+02  0.00000000000E+00 0.  1.
          2   -1    0    0  501    0  0.00000000000E+00 -0.00000000000E+00 -0.18041996737E+04  0.18041996737E+04  0.00000000000E+00 0. -1.
         25    2    1    2    0    0 -0.17813854348E+03  0.74031286264E+02 -0.12400980307E+04  0.12612315927E+04  0.12509209674E+03 0.  0.
         23    2    1    2    0    0  0.17813854348E+03 -0.74031286264E+02 -0.53295336968E+03  0.57411635441E+03  0.91412921043E+02 0.  0.
          5    1    3    3  502    0 -0.40689152943E+02 -0.65789830078E+01 -0.60568860875E+03  0.60710382420E+03  0.41800000000E+01 0.  1.
         -5    1    3    3    0  502 -0.13744939054E+03  0.80610269272E+02 -0.63440942190E+03  0.65412776846E+03  0.41800000000E+01 0.  1.
        -11    1    4    4    0    0 -0.10030346381E+02 -0.73109148020E+01 -0.18462648259E+02  0.22246948206E+02  0.00000000000E+00 0.  1.
         11    1    4    4    0    0  0.18816888986E+03 -0.66720371462E+02 -0.51449072142E+03  0.55186940621E+03  0.00000000000E+00 0. -1.
</event>
<event>
 8    1  0.6840084E-009  0.1396499E+03  0.7561462E-02  0.1213801E+00
          1   -1    0    0  501    0  0.00000000000E+00  0.00000000000E+00  0.44784990727E+03  0.44784990727E+03  0.00000000000E+00 0. -1.
         -1   -1    0    0    0  501 -0.00000000000E+00 -0.00000000000E+00 -0.75349891433E+02  0.75349891433E+02  0.00000000000E+00 0.  1.
         25    2    1    2    0    0 -0.28015839126E+02 -0.13545328098E+03  0.27291563312E+03  0.33054987797E+03  0.12509116857E+03 0.  0.
         23    2    1    2    0    0  0.28015839126E+02  0.13545328098E+03  0.99584382714E+02  0.19264992073E+03  0.89802361364E+02 0.  0.
          5    1    3    3  502    0 -0.24840449894E+02 -0.64752193687E+02  0.24448520790E+03  0.25416605560E+03  0.41800000000E+01 0.  1.
         -5    1    3    3    0  502 -0.31753892321E+01 -0.70701087293E+02  0.28430425217E+02  0.76383822366E+02  0.41800000000E+01 0.  1.
        -11    1    4    4    0    0  0.88406918691E+01  0.19682232906E+02  0.67688365046E+02  0.71044091151E+02  0.00000000000E+00 0. -1.
         11    1    4    4    0    0  0.19175147257E+02  0.11577104807E+03  0.31896017669E+02  0.12160582958E+03  0.00000000000E+00 0.  1.
</event>
<event>
 8    1  0.6840084E-009  0.2574604E+03  0.7561462E-02  0.1108679E+00
         -1   -1    0    0    0  501 -0.00000000000E+00  0.00000000000E+00  0.60608950572E+02  0.60608950572E+02  0.00000000000E+00 0.  1.
          1   -1    0    0  501    0  0.00000000000E+00 -0.00000000000E+00 -0.11748359387E+04  0.11748359387E+04  0.00000000000E+00 0. -1.
         25    2    1    2    0    0 -0.10585584466E+02  0.23980283218E+03 -0.65239243457E+03  0.70631602193E+03  0.12509588814E+03 0.  0.
         23    2    1    2    0    0  0.10585584466E+02 -0.23980283218E+03 -0.46183455356E+03  0.52912886735E+03  0.95229987289E+02 0.  0.
          5    1    3    3  502    0 -0.48414352573E+02  0.83001449254E+02 -0.14595617540E+03  0.17479664657E+03  0.41800000000E+01 0. -1.
         -5    1    3    3    0  502  0.37828768107E+02  0.15680138292E+03 -0.50643625917E+03  0.53151937536E+03  0.41800000000E+01 0. -1.
        -11    1    4    4    0    0  0.45885159432E+02 -0.19511781480E+03 -0.37664611346E+03  0.42665993987E+03  0.00000000000E+00 0.  1.
         11    1    4    4    0    0 -0.35299574967E+02 -0.44685017377E+02 -0.85188440100E+02  0.10246892747E+03  0.00000000000E+00 0. -1.
</event>
<event>
 8    1  0.6840084E-009  0.1427942E+03  0.7561462E-02  0.1209618E+00
         -2   -1    0    0    0  501 -0.00000000000E+00  0.00000000000E+00  0.30965144403E+02  0.30965144403E+02  0.00000000000E+00 0. -1.
          2   -1    0    0  501    0  0.00000000000E+00 -0.00000000000E+00 -0.80406985954E+03  0.80406985954E+03  0.00000000000E+00 0.  1.
         25    2    1    2    0    0  0.11253685596E+03  0.95923075612E+01 -0.37577610926E+03  0.41184311599E+03  0.12510200472E+03 0.  0.
         23    2    1    2    0    0 -0.11253685596E+03 -0.95923075612E+01 -0.39732860588E+03  0.42319188796E+03  0.92004329616E+02 0.  0.
          5    1    3    3  502    0  0.74599865603E+02 -0.34640187751E+02 -0.32225147448E+03  0.33260873074E+03  0.41800000000E+01 0. -1.
         -5    1    3    3    0  502  0.37936990353E+02  0.44232495312E+02 -0.53524634775E+02  0.79234385253E+02  0.41800000000E+01 0. -1.
        -11    1    4    4    0    0 -0.11123429528E+03  0.21833384308E+02 -0.29064463176E+03  0.31196805459E+03  0.00000000000E+00 0.  1.
         11    1    4    4    0    0 -0.13025606802E+01 -0.31425691869E+02 -0.10668397412E+03  0.11122383336E+03  0.00000000000E+00 0. -1.
</event>
<event>
 8    1  0.6840084E-009  0.1859947E+03  0.7561462E-02  0.1162124E+00
         -1   -1    0    0    0  501 -0.00000000000E+00  0.00000000000E+00  0.32780151372E+03  0.32780151372E+03  0.00000000000E+00 0.  1.
          1   -1    0    0  501    0  0.00000000000E+00 -0.00000000000E+00 -0.12459782216E+03  0.12459782216E+03  0.00000000000E+00 0. -1.
         25    2    1    2    0    0 -0.31080575676E+02  0.15144300231E+03  0.26854878634E+02  0.20067162749E+03  0.12508769900E+03 0.  0.
         23    2    1    2    0    0  0.31080575676E+02 -0.15144300231E+03  0.17634881292E+03  0.25172770839E+03  0.91471034862E+02 0.  0.
          5    1    3    3  502    0  0.35313233664E+02  0.67852819057E+01 -0.93426010886E+01  0.37387445988E+02  0.41800000000E+01 0. -1.
         -5    1    3    3    0  502 -0.66393809341E+02  0.14465772040E+03  0.36197479722E+02  0.16328418150E+03  0.41800000000E+01 0. -1.
        -11    1    4    4    0    0 -0.88816982285E+01 -0.13168971949E+03  0.11011932075E+03  0.17189337272E+03  0.00000000000E+00 0. -1.
         11    1    4    4    0    0  0.39962273905E+02 -0.19753282814E+02  0.66229492174E+02  0.79834335666E+02  0.00000000000E+00 0.  1.
</event>
<event>
 8    1  0.6840084E-009  0.2997118E+03  0.7561462E-02  0.1085385E+00
          1   -1    0    0  501    0  0.00000000000E+00  0.00000000000E+00  0.82686403682E+03  0.82686403682E+03  0.00000000000E+00 0. -1.
         -1   -1    0    0    0  501 -0.00000000000E+00 -0.00000000000E+00 -0.13172467174E+03  0.13172467174E+03  0.00000000000E+00 0.  1.
         25    2    1    2    0    0  0.12881685339E+03  0.26918108992E+03  0.46205828396E+03  0.56408366558E+03  0.12506111753E+03 0.  0.
         23    2    1    2    0    0 -0.12881685339E+03 -0.26918108992E+03  0.23308108112E+03  0.39450504298E+03  0.11070319633E+03 0.  0.
          5    1    3    3  502    0  0.39909982009E+02  0.12365808593E+03  0.10056056692E+03  0.16435945029E+03  0.41800000000E+01 0. -1.
         -5    1    3    3    0  502  0.88906871377E+02  0.14552300398E+03  0.36149771704E+03  0.39972421529E+03  0.41800000000E+01 0. -1.
        -11    1    4    4    0    0 -0.82956160533E+02 -0.19019391427E+03  0.21969430219E+03  0.30219370611E+03  0.00000000000E+00 0. -1.
         11    1    4    4    0    0 -0.45860692853E+02 -0.78987175647E+02  0.13386778927E+02  0.92311336875E+02  0.00000000000E+00 0.  1.
</event>
<event>
 8    1  0.6840084E-009  0.9647110E+02  0.7561462E-02  0.1287897E+00
         -2   -1    0    0    0  501 -0.00000000000E+00  0.00000000000E+00  0.17904650917E+03  0.17904650917E+03  0.00000000000E+00 0.  1.
          2   -1    0    0  501    0  0.00000000000E+00 -0.00000000000E+00 -0.10388088925E+03  0.10388088925E+03  0.00000000000E+00 0. -1.
         25    2    1    2    0    0 -0.76544375705E+02 -0.81796059431E+01  0.18557526695E+02  0.14804661775E+03  0.12508985501E+03 0.  0.
         23    2    1    2    0    0  0.76544375705E+02  0.81796059431E+01  0.56608093231E+02  0.13488078067E+03  0.95196645782E+02 0.  0.
          5    1    3    3  502    0 -0.51372678436E+02 -0.12584644925E+02  0.71544663202E+02  0.89070963901E+02  0.41800000000E+01 0. -1.
         -5    1    3    3    0  502 -0.25171697269E+02  0.44050389819E+01 -0.52987136507E+02  0.58975653850E+02  0.41800000000E+01 0. -1.
        -11    1    4    4    0    0  0.39724830608E+02 -0.37970964638E+02  0.28386384440E+01  0.55026486264E+02  0.00000000000E+00 0. -1.
         11    1    4    4    0    0  0.36819545097E+02  0.46150570581E+02  0.53769454787E+02  0.79854294401E+02  0.00000000000E+00 0.  1.
</event>
<event>
 8    1  0.6840084E-009  0.1590877E+03  0.7561462E-02  0.1189731E+00
          2   -1    0    0  501    0  0.00000000000E+00  0.00000000000E+00  0.20190336870E+03  0.20190336870E+03  0.00000000000E+00 0. -1.
         -2   -1    0    0    0  501 -0.00000000000E+00 -0.00000000000E+00 -0.16553486272E+03  0.16553486272E+03  0.00000000000E+00 0.  1.
         25    2    1    2    0    0  0.13605793062E+03  0.30178751549E+02  0.69307511820E+02  0.19968184558E+03  0.12508713254E+03 0.  0.
         23    2    1    2    0    0 -0.13605793062E+03 -0.30178751549E+02 -0.32939005842E+02  0.16775638584E+03  0.87376823900E+02 0.  0.
          5    1    3    3  502    0 -0.13482037027E+02  0.25121956968E+02 -0.97276095792E+01  0.30413431776E+02  0.41800000000E+01 0.  1.
         -5    1    3    3    0  502  0.14953996765E+03  0.50567945819E+01  0.79035121399E+02  0.16926841380E+03  0.41800000000E+01 0.  1.
        -11    1    4    4    0    0 -0.56987496445E+02 -0.79440360036E+01  0.29425466340E+02  0.64626159784E+02  0.00000000000E+00 0. -1.
         11    1    4    4    0    0 -0.79070434177E+02 -0.22234715546E+02 -0.62364472182E+02  0.10313022606E+03  0.00000000000E+00 0.  1.
</event>
<event>
 8    1  0.6840084E-009  0.1335832E+03  0.7561462E-02  0.1222234E+00
          1   -1    0    0  501    0  0.00000000000E+00  0.00000000000E+00  0.18975232485E+04  0.18975232485E+04  0.00000000000E+00 0. -1.
         -1   -1    0    0    0  501 -0.00000000000E+00 -0.00000000000E+00 -0.13294326092E+02  0.13294326092E+02  0.00000000000E+00 0.  1.
         25    2    1    2    0    0 -0.54015312111E+02  0.77148287488E+02  0.14202956608E+04  0.14289004476E+04  0.12508881949E+03 0.  0.
         23    2    1    2    0    0  0.54015312111E+02 -0.77148287488E+02  0.46393326160E+03  0.48191712702E+03  0.90224907264E+02 0.  0.
          5    1    3    3  502    0 -0.76118611089E+02  0.40401052571E+01  0.86484834026E+03  0.86821108578E+03  0.41800000000E+01 0. -1.
         -5    1    3    3    0  502  0.22103298978E+02  0.73108182231E+02  0.55544732052E+03  0.56068936178E+03  0.41800000000E+01 0. -1.
        -11    1    4    4    0    0  0.65070042788E+02 -0.41897826347E+02  0.40524874798E+03  0.41257252218E+03  0.00000000000E+00 0. -1.
         11    1    4    4    0    0 -0.11054730677E+02 -0.35250461141E+02  0.58684513616E+02  0.69344604832E+02  0.00000000000E+00 0.  1.
</event>
<event>
 8    1  0.6840084E-009  0.1365518E+03  0.7561462E-02  0.1218046E+00
          2   -1    0    0  501    0  0.00000000000E+00  0.00000000000E+00  0.31682266517E+03  0.31682266517E+03  0.00000000000E+00 0.  1.
         -2   -1    0    0    0  501 -0.00000000000E+00 -0.00000000000E+00 -0.79048357341E+02  0.79048357341E+02  0.00000000000E+00 0. -1.
         25    2    1    2    0    0  0.99397586927E+02 -0.15492332923E+02  0.57915713870E+02  0.17065040546E+03  0.12508972102E+03 0.  0.
         23    2    1    2    0    0 -0.99397586927E+02  0.15492332923E+02  0.17985859396E+03  0.22522061705E+03  0.90858790756E+02 0.  0.
          5    1    3    3  502    0  0.11553100125E+03  0.12519533272E+02  0.70186209834E+02  0.13582241131E+03  0.41800000000E+01 0. -1.
         -5    1    3    3    0  502 -0.16133414322E+02 -0.28011866195E+02 -0.12270495964E+02  0.34827994152E+02  0.41800000000E+01 0. -1.
        -11    1    4    4    0    0 -0.11112429284E+03  0.10995660671E+02  0.11943695749E+03  0.16350749166E+03  0.00000000000E+00 0. -1.
         11    1    4    4    0    0  0.11726705910E+02  0.44966722517E+01  0.60421636470E+02  0.61713125399E+02  0.00000000000E+00 0.  1.
</event>
<event>
 8    1  0.6840084E-009  0.1161595E+03  0.7561462E-02  0.1249571E+00
          2   -1    0    0  501    0  0.00000000000E+00  0.00000000000E+00  0.82322030682E+03  0.82322030682E+03  0.00000000000E+00 0. -1.
         -2   -1    0    0    0  501 -0.00000000000E+00 -0.00000000000E+00 -0.20431018198E+02  0.20431018198E+02  0.00000000000E+00 0.  1.
         25    2    1    2    0    0 -0.20009409226E+02 -0.66833314638E+02  0.48486023797E+03  0.50557251445E+03  0.12508816329E+03 0.  0.
         23    2    1    2    0    0  0.20009409226E+02  0.66833314638E+02  0.31792905064E+03  0.33807881057E+03  0.91385625275E+02 0.  0.
          5    1    3    3  502    0 -0.63452252401E+02 -0.35591909962E+02  0.15381284426E+03  0.17020233796E+03  0.41800000000E+01 0. -1.
         -5    1    3    3    0  502  0.43442843175E+02 -0.31241404676E+02  0.33104739372E+03  0.33537017649E+03  0.41800000000E+01 0. -1.
        -11    1    4    4    0    0  0.33896053021E+02 -0.35054572612E+01  0.17371499711E+03  0.17702579151E+03  0.00000000000E+00 0. -1.
         11    1    4    4    0    0 -0.13886643795E+02  0.70338771900E+02  0.14421405354E+03  0.16105301905E+03  0.00000000000E+00 0.  1.
</event>
<event>
 8    1  0.6840084E-009  0.1137467E+03  0.7561462E-02  0.1253785E+00
         -2   -1    0    0    0  501 -0.00000000000E+00  0.00000000000E+00  0.56936710468E+02  0.56936710468E+02  0.00000000000E+00 0.  1.
          2   -1    0    0  501    0  0.00000000000E+00 -0.00000000000E+00 -0.36785974802E+03  0.36785974802E+03  0.00000000000E+00 0. -1.
         25    2    1    2    0    0 -0.90122474785E+02 -0.44736943444E+01 -0.13111591812E+03  0.20243726298E+03  0.12508951617E+03 0.  0.
         23    2    1    2    0    0  0.90122474785E+02  0.44736943444E+01 -0.17980711943E+03  0.22235919550E+03  0.94715031674E+02 0.  0.
          5    1    3    3  502    0  0.19037738460E+02  0.16887866035E+02 -0.71839631999E+02  0.76328504706E+02  0.41800000000E+01 0.  1.
         -5    1    3    3    0  502 -0.10916021324E+03 -0.21361560380E+02 -0.59276286121E+02  0.12610875828E+03  0.41800000000E+01 0.  1.
        -11    1    4    4    0    0  0.64066497334E+02  0.56253545414E+01 -0.31201380480E+02  0.71482073544E+02  0.00000000000E+00 0.  1.
         11    1    4    4    0    0  0.26055977451E+02 -0.11516601971E+01 -0.14860573895E+03  0.15087712196E+03  0.00000000000E+00 0. -1.
</event>
<event>
 8    1  0.6840084E-009  0.1015392E+03  0.7561462E-02  0.1277092E+00
         -1   -1    0    0    0  501 -0.00000000000E+00  0.00000000000E+00  0.57897827388E+02  0.57897827388E+02  0.00000000000E+00 0.  1.
          1   -1    0    0  501    0  0.00000000000E+00 -0.00000000000E+00 -0.27714526707E+03  0.27714526707E+03  0.00000000000E+00 0. -1.
         25    2    1    2    0    0  0.36449351434E+02  0.51804303169E+02 -0.90459222019E+02  0.16685583328E+03  0.12508300126E+03 0.  0.
         23    2    1    2    0    0 -0.36449351434E+02 -0.51804303169E+02 -0.12878821767E+03  0.16818726118E+03  0.87683001581E+02 0.  0.
          5    1    3    3  502    0 -0.11272809552E+02  0.45730742066E+02 -0.10604919323E+03  0.11611322401E+03  0.41800000000E+01 0. -1.
         -5    1    3    3    0  502  0.47722160986E+02  0.60735611027E+01  0.15589971210E+02  0.50742609274E+02  0.41800000000E+01 0. -1.
        -11    1    4    4    0    0  0.25521606004E+02 -0.34962385061E+02 -0.42883068842E+02  0.60931751456E+02  0.00000000000E+00 0.  1.
         11    1    4    4    0    0 -0.61970957438E+02 -0.16841918108E+02 -0.85905148823E+02  0.10725550972E+03  0.00000000000E+00 0. -1.
</event>
<event>
 8    1  0.6840084E-009  0.9284623E+02  0.7561462E-02  0.1296102E+00
          2   -1    0    0  501    0  0.00000000000E+00  0.00000000000E+00  0.50114180751E+03  0.50114180751E+03  0.00000000000E+00 0. -1.
         -2   -1    0    0    0  501 -0.00000000000E+00 -0.00000000000E+00 -0.26503577495E+02  0.26503577495E+02  0.00000000000E+00 0.  1.
         25    2    1    2    0    0  0.58628005006E+01  0.37791650594E+02  0.30067734101E+03  0.32789851824E+03  0.12509194052E+03 0.  0.
         23    2    1    2    0    0 -0.58628005006E+01 -0.37791650594E+02  0.17396088900E+03  0.19974686677E+03  0.90409283788E+02 0.  0.
          5    1    3    3  502    0 -0.15285791137E+02 -0.41928666874E+02  0.14362590973E+03  0.15045777767E+03  0.41800000000E+01 0. -1.
         -5    1    3    3    0  502  0.21148591637E+02  0.79720317468E+02  0.15705143128E+03  0.17744074057E+03  0.41800000000E+01 0. -1.
        -11    1    4    4    0    0 -0.22931595808E+02 -0.86419845111E+01  0.20977881445E+01  0.24595582890E+02  0.00000000000E+00 0.  1.
         11    1    4    4    0    0  0.17068795308E+02 -0.29149666083E+02  0.17186310086E+03  0.17515128387E+03  0.00000000000E+00 0. -1.
</event>
<event>
 8    1  0.6840084E-009  0.1119951E+03  0.7561462E-02  0.1256919E+00
          1   -1    0    0  501    0  0.00000000000E+00  0.00000000000E+00  0.14456740726E+03  0.14456740726E+03  0.00000000000E+00 0. -1.
         -1   -1    0    0    0  501 -0.00000000000E+00 -0.00000000000E+00 -0.92805471630E+02  0.92805471630E+02  0.00000000000E+00 0.  1.
         25    2    1    2    0    0 -0.39510277038E+02  0.29707175877E+01  0.19946415687E+02  0.13271973506E+03  0.12508709534E+03 0.  0.
         23    2    1    2    0    0  0.39510277038E+02 -0.29707175877E+01  0.31815519945E+02  0.10465314384E+03  0.91488611591E+02 0.  0.
          5    1    3    3  502    0 -0.48375152472E+02  0.57808390047E+02  0.12328554722E+02  0.76494646858E+02  0.41800000000E+01 0.  1.
         -5    1    3    3    0  502  0.88648754339E+01 -0.54837672459E+02  0.76178609650E+01  0.56225088198E+02  0.41800000000E+01 0.  1.
        -11    1    4    4    0    0 -0.20432453581E+02 -0.21877651725E+02 -0.70493350335E+01  0.30754022969E+02  0.00000000000E+00 0.  1.
         11    1    4    4    0    0  0.59942730619E+02  0.18906934137E+02  0.38864854978E+02  0.73899120868E+02  0.00000000000E+00 0. -1.
</event>
<event>
 8    1  0.6840084E-009  0.1173630E+03  0.7561462E-02  0.1247512E+00
          1   -1    0    0  501    0  0.00000000000E+00  0.00000000000E+00  0.17889669085E+03  0.17889669085E+03  0.00000000000E+00 0. -1.
         -1   -1    0    0    0  501 -0.00000000000E+00 -0.00000000000E+00 -0.87124456679E+02  0.87124456679E+02  0.00000000000E+00 0.  1.
         25    2    1    2    0    0 -0.48021384184E+02 -0.38665674804E+02  0.57151162974E+02  0.15071363839E+03  0.12508899880E+03 0.  0.
         23    2    1    2    0    0  0.48021384184E+02  0.38665674804E+02  0.34621071193E+02  0.11530750913E+03  0.91083013481E+02 0.  0.
          5    1    3    3  502    0  0.35416294448E+02 -0.11051339993E+02  0.50047659670E+02  0.62439464015E+02  0.41800000000E+01 0. -1.
         -5    1    3    3    0  502 -0.83437678632E+02 -0.27614334811E+02  0.71035033043E+01  0.88274174376E+02  0.41800000000E+01 0. -1.
        -11    1    4    4    0    0  0.73859166071E+02  0.39081741175E+02  0.21294134630E+02  0.86232239190E+02  0.00000000000E+00 0.  1.
         11    1    4    4    0    0 -0.25837781887E+02 -0.41606637093E+00  0.13326936563E+02  0.29075269943E+02  0.00000000000E+00 0. -1.
</event>
<event>
 8    1  0.6840084E-009  0.1413224E+03  0.7561462E-02  0.1211561E+00
         -2   -1    0    0    0  501 -0.00000000000E+00  0.00000000000E+00  0.22070221549E+03  0.22070221549E+03  0.00000000000E+00 0.  1.
          2   -1    0    0  501    0  0.00000000000E+00 -0.00000000000E+00 -0.13819379686E+03  0.13819379686E+03  0.00000000000E+00 0. -1.
         25    2    1    2    0    0  0.49467525754E+02  0.11616933984E+03  0.77181529902E+02  0.19377088794E+03  0.12509123403E+03 0.  0.
         23    2    1    2    0    0 -0.49467525754E+02 -0.11616933984E+03  0.53268887212E+01  0.16512512441E+03  0.10628066309E+03 0.  0.
          5    1    3    3  502    0  0.47548320051E+02  0.80195451697E+02  0.11042049971E+03  0.14457632022E+03  0.41800000000E+01 0.  1.
         -5    1    3    3    0  502  0.19192057034E+01  0.35973888138E+02 -0.33238969812E+02  0.49194567713E+02  0.41800000000E+01 0.  1.
        -11    1    4    4    0    0  0.79263542530E+00 -0.10036218905E+03 -0.26196065594E+02  0.10372767767E+03  0.00000000000E+00 0. -1.
         11    1    4    4    0    0 -0.50260161180E+02 -0.15807150780E+02  0.31522954315E+02  0.61397446741E+02  0.00000000000E+00 0.  1.
</event>
<event>
 8    1  0.6840084E-009  0.1937235E+03  0.7561462E-02  0.1155145E+00
          3   -1    0    0  501    0  0.00000000000E+00  0.00000000000E+00  0.38216718302E+03  0.38216718302E+03  0.00000000000E+00 0. -1.
         -3   -1    0    0    0  501 -0.00000000000E+00 -0.00000000000E+00 -0.11627568662E+03  0.11627568662E+03  0.00000000000E+00 0.  1.
         25    2    1    2    0    0  0.16564586261E+03  0.40284989086E+02  0.15856217426E+03  0.26432100911E+03  0.12514871396E+03 0.  0.
         23    2    1    2    0    0 -0.16564586261E+03 -0.40284989086E+02  0.10732932213E+03  0.23412186053E+03  0.11929807226E+03 0.  0.
          5    1    3    3  502    0  0.11590268408E+02  0.36189054993E+02 -0.61453007450E+01  0.38719751346E+02  0.41800000000E+01 0. -1.
         -5    1    3    3    0  502  0.15405559420E+03  0.40959340928E+01  0.16470747501E+03  0.22560125777E+03  0.41800000000E+01 0. -1.
        -11    1    4    4    0    0 -0.12844020087E+03 -0.71042407406E+02  0.41579788109E+02  0.15255421210E+03  0.00000000000E+00 0.  1.
         11    1    4    4    0    0 -0.37205661739E+02  0.30757418319E+02  0.65749534020E+02  0.81567648434E+02  0.00000000000E+00 0. -1.
</event>
<event>
 8    1  0.6840084E-009  0.2002019E+03  0.7561462E-02  0.1149569E+00
          1   -1    0    0  501    0  0.00000000000E+00  0.00000000000E+00  0.10453565872E+04  0.10453565872E+04  0.00000000000E+00 0. -1.
         -1   -1    0    0    0  501 -0.00000000000E+00 -0.00000000000E+00 -0.67660618111E+02  0.67660618111E+02  0.00000000000E+00 0.  1.
         25    2    1    2    0    0 -0.97145420668E+02  0.16767154773E+03  0.19683912581E+03  0.30322184207E+03  0.12508742296E+03 0.  0.
         23    2    1    2    0    0  0.97145420668E+02 -0.16767154773E+03  0.78085684326E+03  0.80979536322E+03  0.92087675372E+02 0.  0.
          5    1    3    3  502    0 -0.24015139982E+02  0.51844280992E+02 -0.68750963444E+01  0.57700049997E+02  0.41800000000E+01 0.  1.
         -5    1    3    3    0  502 -0.73130280686E+02  0.11582726674E+03  0.20371422215E+03  0.24552179207E+03  0.41800000000E+01 0.  1.
        -11    1    4    4    0    0  0.10359789147E+02 -0.86889685274E+02  0.44766053533E+03  0.45613276306E+03  0.00000000000E+00 0.  1.
         11    1    4    4    0    0  0.86785631521E+02 -0.80781862461E+02  0.33319630792E+03  0.35366260016E+03  0.00000000000E+00 0. -1.
</event>
<event>
 8    1  0.6840084E-009  0.1150236E+03  0.7561462E-02  0.1251540E+00
         -2   -1    0    0    0  501 -0.00000000000E+00  0.00000000000E+00  0.61439963470E+02  0.61439963470E+02  0.00000000000E+00 0.  1.
          2   -1    0    0  501    0  0.00000000000E+00 -0.00000000000E+00 -0.97029822892E+03  0.97029822892E+03  0.00000000000E+00 0. -1.
         25    2    1    2    0    0 -0.55206136589E+02  0.87420322387E+02 -0.87465789747E+03  0.88958724395E+03  0.12509594997E+03 0.  0.
         23    2    1    2    0    0  0.55206136589E+02 -0.87420322387E+02 -0.34200367977E+02  0.14215094844E+03  0.91362994093E+02 0.  0.
          5    1    3    3  502    0 -0.64210981467E+02  0.82721121019E+02 -0.36336680968E+03  0.37817819184E+03  0.41800000000E+01 0.  1.
         -5    1    3    3    0  502  0.90048448783E+01  0.46992013685E+01 -0.51129108779E+03  0.51140905211E+03  0.41800000000E+01 0.  1.
        -11    1    4    4    0    0 -0.62929644133E+01 -0.28171453652E+02 -0.47640520658E+02  0.55703244165E+02  0.00000000000E+00 0. -1.
         11    1    4    4    0    0  0.61499101002E+02 -0.59248868735E+02  0.13440152681E+02  0.86447704276E+02  0.00000000000E+00 0.  1.
</event>
<event>
 8    1  0.6840084E-009  0.1224842E+03  0.7561462E-02  0.1239054E+00
         -1   -1    0    0    0  501 -0.00000000000E+00  0.00000000000E+00  0.10686660881E+03  0.10686660881E+03  0.00000000000E+00 0.  1.
          1   -1    0    0  501    0  0.00000000000E+00 -0.00000000000E+00 -0.23441932768E+03  0.23441932768E+03  0.00000000000E+00 0. -1.
         25    2    1    2    0    0 -0.39169286173E+01  0.96152065958E+02  0.14375058109E+02  0.15847293534E+03  0.12508583781E+03 0.  0.
         23    2    1    2    0    0  0.39169286173E+01 -0.96152065958E+02 -0.14192777697E+03  0.18281300115E+03  0.63376157953E+02 0.  0.
          5    1    3    3  502    0 -0.53118164249E+02  0.65062266699E+02  0.41900084516E+02  0.93955986523E+02  0.41800000000E+01 0.  1.
         -5    1    3    3    0  502  0.49201235632E+02  0.31089799259E+02 -0.27525026407E+02  0.64516948815E+02  0.41800000000E+01 0.  1.
        -11    1    4    4    0    0  0.19463351876E+02 -0.62323874736E+02 -0.45874067177E+02  0.79796725921E+02  0.00000000000E+00 0.  1.
         11    1    4    4    0    0 -0.15546423259E+02 -0.33828191222E+02 -0.96053709795E+02  0.10301627523E+03  0.00000000000E+00 0. -1.
</event>
<event>
 8    1  0.6840084E-009  0.1151802E+03  0.7561462E-02  0.1251267E+00
         -1   -1    0    0    0  501 -0.00000000000E+00  0.00000000000E+00  0.72253005785E+02  0.72253005785E+02  0.00000000000E+00 0.  1.
          1   -1    0    0  501    0  0.00000000000E+00 -0.00000000000E+00 -0.36422679757E+03  0.36422679757E+03  0.00000000000E+00 0. -1.
         25    2    1    2    0    0  0.29163348891E+02 -0.64834333224E+02 -0.26525092722E+03  0.30176109484E+03  0.12509081615E+03 0.  0.
         23    2    1    2    0    0 -0.29163348891E+02  0.64834333224E+02 -0.26722864570E+02  0.13471870852E+03  0.11127006449E+03 0.  0.
          5    1    3    3  502    0  0.50883961860E+02 -0.36235711159E+02 -0.25721447310E+03  0.26472431303E+03  0.41800000000E+01 0. -1.
         -5    1    3    3    0  502 -0.21720612969E+02 -0.28598622065E+02 -0.80364541166E+01  0.37036781806E+02  0.41800000000E+01 0. -1.
        -11    1    4    4    0    0  0.42603870459E+02  0.20932503738E+02 -0.43680834253E+01  0.47669063801E+02  0.00000000000E+00 0.  1.
         11    1    4    4    0    0 -0.71767219350E+02  0.43901829486E+02 -0.22354781145E+02  0.87049644718E+02  0.00000000000E+00 0. -1.
</event>
<event>
 8    1  0.6840084E-009  0.1325593E+03  0.7561462E-02  0.1223707E+00
         -2   -1    0    0    0  501 -0.00000000000E+00  0.00000000000E+00  0.24677705256E+02  0.24677705256E+02  0.00000000000E+00 0.  1.
          2   -1    0    0  501    0  0.00000000000E+00 -0.00000000000E+00 -0.86928368062E+03  0.86928368062E+03  0.00000000000E+00 0. -1.
         25    2    1    2    0    0 -0.75064803449E+02 -0.59659100733E+02 -0.39305783481E+03  0.42348094753E+03  0.12509084057E+03 0.  0.
         23    2    1    2    0    0  0.75064803449E+02  0.59659100733E+02 -0.45154814055E+03  0.47048043835E+03  0.90896570986E+02 0.  0.
          5    1    3    3  502    0 -0.42279958328E+02 -0.93435959233E+02 -0.20095198342E+03  0.22564805648E+03  0.41800000000E+01 0. -1.
         -5    1    3    3    0  502 -0.32784845121E+02  0.33776858500E+02 -0.19210585139E+03  0.19783289104E+03  0.41800000000E+01 0. -1.
        -11    1    4    4    0    0  0.25039678970E+02  0.60191485616E+02 -0.36273124916E+03  0.36854302270E+03  0.00000000000E+00 0. -1.
         11    1    4    4    0    0  0.50025124479E+02 -0.53238488265E+00 -0.88816891386E+02  0.10193741564E+03  0.00000000000E+00 0.  1.
</event>
<event>
 8    1  0.6840084E-009  0.1384025E+03  0.7561462E-02  0.1215495E+00
         -1   -1    0    0    0  501 -0.00000000000E+00  0.00000000000E+00  0.26609872871E+02  0.26609872871E+02  0.00000000000E+00 0.  1.
          1   -1    0    0  501    0  0.00000000000E+00 -0.00000000000E+00 -0.12903731191E+04  0.12903731191E+04  0.00000000000E+00 0. -1.
         25    2    1    2    0    0  0.19263562238E+02  0.13362954001E+03 -0.90399352947E+03  0.92253970389E+03  0.12508902884E+03 0.  0.
         23    2    1    2    0    0 -0.19263562238E+02 -0.13362954001E+03 -0.35976971680E+03  0.39444328812E+03  0.89013030633E+02 0.  0.
          5    1    3    3  502    0  0.48215010362E+01  0.49562505293E+02 -0.69467296596E+03  0.69646801136E+03  0.41800000000E+01 0. -1.
         -5    1    3    3    0  502  0.14442061201E+02  0.84067034722E+02 -0.20932056351E+03  0.22607169254E+03  0.41800000000E+01 0. -1.
        -11    1    4    4    0    0  0.48181792792E+01 -0.99749783820E+02 -0.14740620007E+03  0.17805005488E+03  0.00000000000E+00 0.  1.
         11    1    4    4    0    0 -0.24081741517E+02 -0.33879756194E+02 -0.21236351673E+03  0.21639323324E+03  0.00000000000E+00 0. -1.
</event>
<event>
 8    1  0.6840084E-009  0.1195215E+03  0.7561462E-02  0.1243888E+00
          2   -1    0    0  501    0  0.00000000000E+00  0.00000000000E+00  0.20119041263E+03  0.20119041263E+03  0.00000000000E+00 0. -1.
         -2   -1    0    0    0  501 -0.00000000000E+00 -0.00000000000E+00 -0.13984171084E+03  0.13984171084E+03  0.00000000000E+00 0.  1.
         25    2    1    2    0    0 -0.70350568275E+02 -0.42750853947E+02  0.13130447891E+03  0.19916001965E+03  0.12508800612E+03 0.  0.
         23    2    1    2    0    0  0.70350568275E+02  0.42750853947E+02 -0.69955777116E+02  0.14187210382E+03  0.91962193979E+02 0.  0.
          5    1    3    3  502    0  0.23403654111E+02  0.96367609912E+01 -0.44223441520E+01  0.26031283409E+02  0.41800000000E+01 0.  1.
         -5    1    3    3    0  502 -0.93754222386E+02 -0.52387614938E+02  0.13572682306E+03  0.17312873624E+03  0.41800000000E+01 0.  1.
        -11    1    4    4    0    0  0.68808596322E+02  0.58360621317E+02 -0.82136523144E+02  0.12201226775E+03  0.00000000000E+00 0.  1.
         11    1    4    4    0    0  0.15419719531E+01 -0.15609767371E+02  0.12180746028E+02  0.19859836069E+02  0.00000000000E+00 0. -1.
</event>
<event>
 8    1  0.6840084E-009  0.1526838E+03  0.7561462E-02  0.1197213E+00
          2   -1    0    0  501    0  0.00000000000E+00  0.00000000000E+00  0.59840304785E+03  0.59840304785E+03  0.00000000000E+00 0. -1.
         -2   -1    0    0    0  501 -0.00000000000E+00 -0.00000000000E+00 -0.47554945342E+02  0.47554945342E+02  0.00000000000E+00 0.  1.
         25    2    1    2    0    0 -0.32215205346E+02 -0.12062030542E+03  0.35800631101E+03  0.39925125141E+03  0.12508383387E+03 0.  0.
         23    2    1    2    0    0  0.32215205346E+02  0.12062030542E+03  0.19284179150E+03  0.24670674178E+03  0.89939881919E+02 0.  0.
          5    1    3    3  502    0 -0.69560108336E+02 -0.10267699130E+03  0.19600957710E+03  0.23198793057E+03  0.41800000000E+01 0. -1.
         -5    1    3    3    0  502  0.37344902990E+02 -0.17943314112E+02  0.16199673391E+03  0.16726332084E+03  0.41800000000E+01 0. -1.
        -11    1    4    4    0    0 -0.18864094743E+02  0.26226442596E+02  0.85145799912E+01  0.33409256713E+02  0.00000000000E+00 0.  1.
         11    1    4    4    0    0  0.51079300089E+02  0.94393862820E+02  0.18432721151E+03  0.21329748507E+03  0.00000000000E+00 0. -1.
</event>
<event>
 8    1  0.6840084E-009  0.1068214E+03  0.7561462E-02  0.1266572E+00
         -1   -1    0    0    0  501 -0.00000000000E+00  0.00000000000E+00  0.24556268372E+02  0.24556268372E+02  0.00000000000E+00 0.  1.
          1   -1    0    0  501    0  0.00000000000E+00 -0.00000000000E+00 -0.56151209679E+03  0.56151209679E+03  0.00000000000E+00 0. -1.
         25    2    1    2    0    0 -0.77607023866E+01 -0.27801848758E+02 -0.39464690365E+03  0.41500323762E+03  0.12509331467E+03 0.  0.
         23    2    1    2    0    0  0.77607023866E+01  0.27801848758E+02 -0.14230892476E+03  0.17106512754E+03  0.90433823856E+02 0.  0.
          5    1    3    3  502    0 -0.25067471806E+02 -0.71932235526E+02 -0.18679021578E+03  0.20176888204E+03  0.41800000000E+01 0. -1.
         -5    1    3    3    0  502  0.17306769419E+02  0.44130386768E+02 -0.20785668788E+03  0.21323435558E+03  0.41800000000E+01 0. -1.
        -11    1    4    4    0    0  0.16217575227E+00  0.58318223782E+02 -0.63516872097E+02  0.86228965940E+02  0.00000000000E+00 0.  1.
         11    1    4    4    0    0  0.75985266343E+01 -0.30516375025E+02 -0.78792052666E+02  0.84836161600E+02  0.00000000000E+00 0. -1.
</event>
<event>
 8    1  0.6840084E-009  0.1513624E+03  0.7561462E-02  0.1198809E+00
         -2   -1    0    0    0  501 -0.00000000000E+00  0.00000000000E+00  0.21676531527E+02  0.21676531527E+02  0.00000000000E+00 0.  1.
          2   -1    0    0  501    0  0.00000000000E+00 -0.00000000000E+00 -0.11421864837E+04  0.11421864837E+04  0.00000000000E+00 0. -1.
         25    2    1    2    0    0 -0.52859939861E+02  0.96658512539E+02 -0.72085734798E+03  0.73987804407E+03  0.12508861928E+03 0.  0.
         23    2    1    2    0    0  0.52859939861E+02 -0.96658512539E+02 -0.39965260419E+03  0.42398497115E+03  0.88904501796E+02 0.  0.
          5    1    3    3  502    0  0.37231396781E+02  0.15290294173E+02 -0.11361773030E+03  0.12060858610E+03  0.41800000000E+01 0. -1.
         -5    1    3    3    0  502 -0.90091336642E+02  0.81368218366E+02 -0.60723961768E+03  0.61926945797E+03  0.41800000000E+01 0. -1.
        -11    1    4    4    0    0  0.68849365047E+02 -0.35277651802E+02 -0.24144248730E+03  0.25353347403E+03  0.00000000000E+00 0.  1.
         11    1    4    4    0    0 -0.15989425186E+02 -0.61380860737E+02 -0.15821011689E+03  0.17045149712E+03  0.00000000000E+00 0. -1.
</event>
<event>
 8    1  0.6840084E-009  0.1322981E+03  0.7561462E-02  0.1224085E+00
         -1   -1    0    0    0  501 -0.00000000000E+00  0.00000000000E+00  0.11304723161E+04  0.11304723161E+04  0.00000000000E+00 0.  1.
          1   -1    0    0  501    0  0.00000000000E+00 -0.00000000000E+00 -0.27611956445E+02  0.27611956445E+02  0.00000000000E+00 0. -1.
         25    2    1    2    0    0 -0.11371204058E+03  0.16664957458E+02  0.84365610892E+03  0.86058773796E+03  0.12508987024E+03 0.  0.
         23    2    1    2    0    0  0.11371204058E+03 -0.16664957458E+02  0.25920425078E+03  0.29749653463E+03  0.90051071680E+02 0.  0.
          5    1    3    3  502    0 -0.11240021970E+03  0.13050853862E+02  0.37094454167E+03  0.38784205493E+03  0.41800000000E+01 0.  1.
         -5    1    3    3    0  502 -0.13118208818E+01  0.36141035959E+01  0.47271156725E+03  0.47274568304E+03  0.41800000000E+01 0.  1.
        -11    1    4    4    0    0  0.45566090301E+02 -0.51820448258E+02  0.13263860082E+03  0.14951463430E+03  0.00000000000E+00 0. -1.
         11    1    4    4    0    0  0.68145950283E+02  0.35155490800E+02  0.12656564996E+03  0.14798190032E+03  0.00000000000E+00 0.  1.
</event>
<event>
 8    1  0.6840084E-009  0.1124033E+03  0.7561462E-02  0.1256183E+00
         -1   -1    0    0    0  501 -0.00000000000E+00  0.00000000000E+00  0.14873818262E+03  0.14873818262E+03  0.00000000000E+00 0.  1.
          1   -1    0    0  501    0  0.00000000000E+00 -0.00000000000E+00 -0.19448904644E+03  0.19448904644E+03  0.00000000000E+00 0. -1.
         25    2    1    2    0    0 -0.53701712930E+02 -0.17607937218E+02 -0.14189506624E+03  0.19742169307E+03  0.12508877505E+03 0.  0.
         23    2    1    2    0    0  0.53701712930E+02  0.17607937218E+02  0.96144202430E+02  0.14580553599E+03  0.93923549977E+02 0.  0.
          5    1    3    3  502    0 -0.70554701253E+02  0.20302093885E+02 -0.32592249965E+02  0.80435489946E+02  0.41800000000E+01 0.  1.
         -5    1    3    3    0  502  0.16852988324E+02 -0.37910031103E+02 -0.10930281628E+03  0.11698620312E+03  0.41800000000E+01 0.  1.
        -11    1    4    4    0    0  0.31075766352E+02  0.56555061755E+02  0.58616867277E+02  0.87178640697E+02  0.00000000000E+00 0.  1.
         11    1    4    4    0    0  0.22625946578E+02 -0.38947124537E+02  0.37527335153E+02  0.58626895295E+02  0.00000000000E+00 0. -1.
</event>
<event>
 8    1  0.6840084E-009  0.1238344E+03  0.7561462E-02  0.1236902E+00
         -1   -1    0    0    0  501 -0.00000000000E+00  0.00000000000E+00  0.83229823996E+02  0.83229823996E+02  0.00000000000E+00 0.  1.
          1   -1    0    0  501    0  0.00000000000E+00 -0.00000000000E+00 -0.22498147450E+03  0.22498147450E+03  0.00000000000E+00 0. -1.
         25    2    1    2    0    0 -0.47161151191E+02  0.60999883712E+02 -0.11376189625E+03  0.18583434229E+03  0.12508986267E+03 0.  0.
         23    2    1    2    0    0  0.47161151191E+02 -0.60999883712E+02 -0.27989754259E+02  0.12237695621E+03  0.90815929620E+02 0.  0.
          5    1    3    3  502    0 -0.35386445912E+02  0.99678629549E+02 -0.88496851895E+02  0.13797534178E+03  0.41800000000E+01 0. -1.
         -5    1    3    3    0  502 -0.11774705279E+02 -0.38678745837E+02 -0.25265044351E+02  0.47859000512E+02  0.41800000000E+01 0. -1.
        -11    1    4    4    0    0  0.13653252589E+02  0.13671221522E+02 -0.35263379716E+02  0.40209694766E+02  0.00000000000E+00 0. -1.
         11    1    4    4    0    0  0.33507898602E+02 -0.74671105234E+02  0.72736254568E+01  0.82167261442E+02  0.00000000000E+00 0.  1.
</event>
<event>
 8    1  0.6840084E-009  0.3271684E+03  0.7561462E-02  0.1072397E+00
          1   -1    0    0  501    0  0.00000000000E+00  0.00000000000E+00  0.12501236914E+04  0.12501236914E+04  0.00000000000E+00 0. -1.
         -1   -1    0    0    0  501 -0.00000000000E+00 -0.00000000000E+00 -0.91094122961E+02  0.91094122961E+02  0.00000000000E+00 0.  1.
         25    2    1    2    0    0 -0.29282938538E+03  0.12610469539E+03  0.61941594692E+03  0.70779647954E+03  0.12509315732E+03 0.  0.
         23    2    1    2    0    0  0.29282938538E+03 -0.12610469539E+03  0.53961362149E+03  0.63342133479E+03  0.91587574108E+02 0.  0.
          5    1    3    3  502    0 -0.13955468427E+03  0.44038202015E+01  0.18960067076E+03  0.23550114711E+03  0.41800000000E+01 0. -1.
         -5    1    3    3    0  502 -0.15327470111E+03  0.12170087519E+03  0.42981527616E+03  0.47229533244E+03  0.41800000000E+01 0. -1.
        -11    1    4    4    0    0  0.37569046584E+02 -0.13901333708E+02  0.14366895474E+03  0.14914908278E+03  0.00000000000E+00 0. -1.
         11    1    4    4    0    0  0.25526033879E+03 -0.11220336168E+03  0.39594466675E+03  0.48427225201E+03  0.00000000000E+00 0.  1.
</event>
<event>
 8    1  0.6840084E-009  0.8833334E+02  0.7561462E-02  0.1306939E+00
          2   -1    0    0  501    0  0.00000000000E+00  0.00000000000E+00  0.20172165654E+03  0.20172165654E+03  0.00000000000E+00 0. -1.
         -2   -1    0    0    0  501 -0.00000000000E+00 -0.00000000000E+00 -0.72527842846E+02  0.72527842846E+02  0.00000000000E+00 0.  1.
         25    2    1    2    0    0 -0.29645553540E+02 -0.24381735381E+02  0.11691834612E+03  0.17547231640E+03  0.12508919337E+03 0.  0.
         23    2    1    2    0    0  0.29645553540E+02  0.24381735381E+02  0.12275467578E+02  0.98777182990E+02  0.90182686311E+02 0.  0.
          5    1    3    3  502    0  0.14281308785E+02  0.20349808095E+02 -0.15013812515E+02  0.29342076211E+02  0.41800000000E+01 0.  1.
         -5    1    3    3    0  502 -0.43926862325E+02 -0.44731543476E+02  0.13193215863E+03  0.14613024019E+03  0.41800000000E+01 0.  1.
        -11    1    4    4    0    0 -0.26450462797E+02 -0.22133121164E+01  0.23782202774E+02  0.35638727551E+02  0.00000000000E+00 0. -1.
         11    1    4    4    0    0  0.56096016337E+02  0.26595047498E+02 -0.11506735196E+02  0.63138455439E+02  0.00000000000E+00 0.  1.
</event>
<event>
 8    1  0.6840084E-009  0.1149388E+03  0.7561462E-02  0.1251688E+00
          1   -1    0    0  501    0  0.00000000000E+00  0.00000000000E+00  0.33672523244E+03  0.33672523244E+03  0.00000000000E+00 0. -1.
         -1   -1    0    0    0  501 -0.00000000000E+00 -0.00000000000E+00 -0.79177255915E+02  0.79177255915E+02  0.00000000000E+00 0.  1.
         25    2    1    2    0    0 -0.15563924666E+02  0.10592133952E+03  0.67951908306E+02  0.17811968949E+03  0.12509035144E+03 0.  0.
         23    2    1    2    0    0  0.15563924666E+02 -0.10592133952E+03  0.18959606822E+03  0.23778279887E+03  0.95563719253E+02 0.  0.
          5    1    3    3  502    0 -0.18460234834E+02  0.49308765424E+02  0.99836836632E+02  0.11294689445E+03  0.41800000000E+01 0. -1.
         -5    1    3    3    0  502  0.28963101686E+01  0.56612574095E+02 -0.31884928326E+02  0.65172795034E+02  0.41800000000E+01 0. -1.
        -11    1    4    4    0    0 -0.51489619710E+01 -0.97858007619E+02  0.81589718438E+02  0.12751307235E+03  0.00000000000E+00 0.  1.
         11    1    4    4    0    0  0.20712886636E+02 -0.80633318993E+01  0.10800634978E+03  0.11026972652E+03  0.00000000000E+00 0. -1.
</event>
<event>
 8    1  0.6840084E-009  0.1350295E+03  0.7561462E-02  0.1220178E+00
          2   -1    0    0  501    0  0.00000000000E+00  0.00000000000E+00  0.14315393283E+04  0.14315393283E+04  0.00000000000E+00 0. -1.
         -2   -1    0    0    0  501 -0.00000000000E+00 -0.00000000000E+00 -0.13681958030E+02  0.13681958030E+02  0.00000000000E+00 0.  1.
         25    2    1    2    0    0 -0.77513031941E+02  0.39092360663E+02  0.75571952725E+03  0.77090607930E+03  0.12509075284E+03 0.  0.
         23    2    1    2    0    0  0.77513031941E+02 -0.39092360663E+02  0.66213784306E+03  0.67431520707E+03  0.93477229822E+02 0.  0.
          5    1    3    3  502    0 -0.43716693387E+02 -0.38270682917E+02  0.18480717120E+03  0.19377037281E+03  0.41800000000E+01 0. -1.
         -5    1    3    3    0  502 -0.33796338554E+02  0.77363043580E+02  0.57091235605E+03  0.57713570648E+03  0.41800000000E+01 0. -1.
        -11    1    4    4    0    0 -0.18957260004E+02 -0.22453786324E+02  0.17286941074E+03  0.17534931821E+03  0.00000000000E+00 0.  1.
         11    1    4    4    0    0  0.96470291945E+02 -0.16638574338E+02  0.48926843232E+03  0.49896588886E+03  0.00000000000E+00 0. -1.
</event>
<event>
 8    1  0.6840084E-009  0.1074613E+03  0.7561462E-02  0.1265345E+00
         -1   -1    0    0    0  501 -0.00000000000E+00  0.00000000000E+00  0.11227004253E+02  0.11227004253E+02  0.00000000000E+00 0.  1.
          1   -1    0    0  501    0  0.00000000000E+00 -0.00000000000E+00 -0.13152641616E+04  0.13152641616E+04  0.00000000000E+00 0. -1.
         25    2    1    2    0    0  0.17892315670E+02  0.31655198057E+02 -0.95197731602E+03  0.96084881527E+03  0.12508976407E+03 0.  0.
         23    2    1    2    0    0 -0.17892315670E+02 -0.31655198057E+02 -0.35205984133E+03  0.36564235058E+03  0.91793301156E+02 0.  0.
          5    1    3    3  502    0  0.21017356956E+02 -0.44946510787E+02 -0.49132613957E+03  0.49384285552E+03  0.41800000000E+01 0. -1.
         -5    1    3    3    0  502 -0.31250412857E+01  0.76601708844E+02 -0.46065117645E+03  0.46700595975E+03  0.41800000000E+01 0. -1.
        -11    1    4    4    0    0  0.31497213657E+02 -0.40152042829E+01 -0.57407140501E+02  0.65603171525E+02  0.00000000000E+00 0.  1.
         11    1    4    4    0    0 -0.49389529327E+02 -0.27639993774E+02 -0.29465270083E+03  0.30003917905E+03  0.00000000000E+00 0. -1.
</event>
<event>
 8    1  0.6840084E-009  0.1564883E+03  0.7561462E-02  0.1192719E+00
         -1   -1    0    0    0  501 -0.00000000000E+00  0.00000000000E+00  0.27093153805E+03  0.27093153805E+03  0.00000000000E+00 0. -1.
          1   -1    0    0  501    0  0.00000000000E+00 -0.00000000000E+00 -0.10859075298E+03  0.10859075298E+03  0.00000000000E+00 0.  1.
         25    2    1    2    0    0  0.12683939948E+03 -0.10963397263E+02  0.12240059149E+03  0.21641566259E+03  0.12508159288E+03 0.  0.
         23    2    1    2    0    0 -0.12683939948E+03  0.10963397263E+02  0.39940193588E+02  0.16310662844E+03  0.93808975240E+02 0.  0.
          5    1    3    3  502    0  0.91678675890E+02 -0.63726548271E+02  0.57774295521E+02  0.12578312363E+03  0.41800000000E+01 0.  1.
         -5    1    3    3    0  502  0.35160723592E+02  0.52763151007E+02  0.64626295965E+02  0.90632538957E+02  0.41800000000E+01 0.  1.
        -11    1    4    4    0    0 -0.27938159034E+02 -0.19669175971E+02 -0.23693307267E+02  0.41578720794E+02  0.00000000000E+00 0.  1.
         11    1    4    4    0    0 -0.98901240448E+02  0.30632573234E+02  0.63633500855E+02  0.12152790764E+03  0.00000000000E+00 0. -1.
</event>
<event>
 8    1  0.6840084E-009  0.2241995E+03  0.7561462E-02  0.1130790E+00
          3   -1    0    0  501    0  0.00000000000E+00  0.00000000000E+00  0.62898199463E+02  0.62898199463E+02  0.00000000000E+00 0. -1.
         -3   -1    0    0    0  501 -0.00000000000E+00 -0.00000000000E+00 -0.98370561581E+03  0.98370561581E+03  0.00000000000E+00 0.  1.
         25    2    1    2    0    0  0.16436146768E+03  0.12043821397E+03 -0.66253265114E+03  0.70435586941E+03  0.12509045327E+03 0.  0.
         23    2    1    2    0    0 -0.16436146768E+03 -0.12043821397E+03 -0.25827476521E+03  0.34224794587E+03  0.94380859625E+02 0.  0.
          5    1    3    3  502    0  0.21978112257E+02  0.87629849374E+02 -0.30407753478E+03  0.31724225361E+03  0.41800000000E+01 0. -1.
         -5    1    3    3    0  502  0.14238335542E+03  0.32808364599E+02 -0.35845511636E+03  0.38711361580E+03  0.41800000000E+01 0. -1.
        -11    1    4    4    0    0  0.12562358686E+01 -0.15865823309E+02 -0.65576999268E+02  0.67480703248E+02  0.00000000000E+00 0.  1.
         11    1    4    4    0    0 -0.16561770355E+03 -0.10457239066E+03 -0.19269776594E+03  0.27476724262E+03  0.00000000000E+00 0. -1.
</event>
<event>
 8    1  0.6840084E-009  0.9900510E+02  0.7561462E-02  0.1282402E+00
         -2   -1    0    0    0  501 -0.00000000000E+00  0.00000000000E+00  0.15836308559E+02  0.15836308559E+02  0.00000000000E+00 0.  1.
          2   -1    0    0  501    0  0.00000000000E+00 -0.00000000000E+00 -0.12479780354E+04  0.12479780354E+04  0.00000000000E+00 0. -1.
         25    2    1    2    0    0 -0.49919859451E+02 -0.16614898916E+02 -0.99590638003E+03  0.10051094671E+04  0.12508987138E+03 0.  0.
         23    2    1    2    0    0  0.49919859451E+02  0.16614898916E+02 -0.23623534679E+03  0.25870487680E+03  0.91394895762E+02 0.  0.
          5    1    3    3  502    0 -0.62622074793E+02 -0.36937611722E+02 -0.29764504348E+03  0.30642446985E+03  0.41800000000E+01 0.  1.
         -5    1    3    3    0  502  0.12702215341E+02  0.20322712805E+02 -0.69826133654E+03  0.69868499729E+03  0.41800000000E+01 0.  1.
        -11    1    4    4    0    0  0.95268509221E+01 -0.34453415984E+02 -0.12294619645E+03  0.12803736167E+03  0.00000000000E+00 0. -1.
         11    1    4    4    0    0  0.40393008529E+02  0.51068314900E+02 -0.11328915034E+03  0.13066751513E+03  0.00000000000E+00 0.  1.
</event>
<event>
 8    1  0.6840084E-009  0.2058006E+03  0.7561462E-02  0.1144935E+00
          2   -1    0    0  501    0  0.00000000000E+00  0.00000000000E+00  0.12965685424E+03  0.12965685424E+03  0.00000000000E+00 0.  1.
         -2   -1    0    0    0  501 -0.00000000000E+00 -0.00000000000E+00 -0.35816377017E+03  0.35816377017E+03  0.00000000000E+00 0. -1.
         25    2    1    2    0    0  0.18391100791E+03 -0.25415847708E+02 -0.12633506207E+03  0.25705613022E+03  0.12509229406E+03 0.  0.
         23    2    1    2    0    0 -0.18391100791E+03  0.25415847708E+02 -0.10217185386E+03  0.23076449419E+03  0.91345169067E+02 0.  0.
          5    1    3    3  502    0  0.56150566572E+02  0.49368296204E+02 -0.31785984162E+02  0.81350697511E+02  0.41800000000E+01 0.  1.
         -5    1    3    3    0  502  0.12776044133E+03 -0.74784143912E+02 -0.94549077906E+02  0.17570543271E+03  0.41800000000E+01 0.  1.
        -11    1    4    4    0    0 -0.13006932574E+03  0.33145513191E+02 -0.11281498263E+03  0.17533931347E+03  0.00000000000E+00 0. -1.
         11    1    4    4    0    0 -0.53841682170E+02 -0.77296654830E+01  0.10643128769E+02  0.55425180715E+02  0.00000000000E+00 0.  1.
</event>
<event>
 8    1  0.6840084E-009  0.9578276E+02  0.7561462E-02  0.1289423E+00
         -4   -1    0    0    0  501 -0.00000000000E+00  0.00000000000E+00  0.32671950584E+03  0.32671950584E+03  0.00000000000E+00 0. -1.
          4   -1    0    0  501    0  0.00000000000E+00 -0.00000000000E+00 -0.39306617139E+02  0.39306617139E+02  0.00000000000E+00 0.  1.
         25    2    1    2    0    0 -0.20324312176E+02  0.18960516604E+02  0.15491232168E+03  0.20103834335E+03  0.12508400870E+03 0.  0.
         23    2    1    2    0    0  0.20324312176E+02 -0.18960516604E+02  0.13250056701E+03  0.16498777962E+03  0.94297339894E+02 0.  0.
          5    1    3    3  502    0 -0.41357982081E+02 -0.32693255801E+02  0.22828744861E+02  0.57601698314E+02  0.41800000000E+01 0.  1.
         -5    1    3    3    0  502  0.21033669905E+02  0.51653772405E+02  0.13208357682E+03  0.14343664504E+03  0.41800000000E+01 0.  1.
        -11    1    4    4    0    0  0.24306384572E+02 -0.47807479669E+02  0.12328261580E+03  0.13444314338E+03  0.00000000000E+00 0. -1.
         11    1    4    4    0    0 -0.39820723960E+01  0.28846963065E+02  0.92179512096E+01  0.30544636242E+02  0.00000000000E+00 0.  1.
</event>
<event>
 8    1  0.6840084E-009  0.2163136E+03  0.7561462E-02  0.1136662E+00
          1   -1    0    0  501    0  0.00000000000E+00  0.00000000000E+00  0.19663350258E+04  0.19663350258E+04  0.00000000000E+00 0. -1.
         -1   -1    0    0    0  501 -0.00000000000E+00 -0.00000000000E+00 -0.30683300150E+02  0.30683300150E+02  0.00000000000E+00 0.  1.
         25    2    1    2    0    0 -0.12444116974E+03  0.16353241480E+03  0.13105895798E+04  0.13324867233E+04  0.12508943035E+03 0.  0.
         23    2    1    2    0    0  0.12444116974E+03 -0.16353241480E+03  0.62506214582E+03  0.66453160266E+03  0.93118791714E+02 0.  0.
          5    1    3    3  502    0 -0.67743091924E+02  0.68835969972E+02  0.28461486383E+03  0.30058378262E+03  0.41800000000E+01 0.  1.
         -5    1    3    3    0  502 -0.56698077817E+02  0.94696444827E+02  0.10259747160E+04  0.10319029407E+04  0.41800000000E+01 0.  1.
        -11    1    4    4    0    0  0.82688742506E+02 -0.33991409568E+02  0.25769869883E+03  0.27276631654E+03  0.00000000000E+00 0. -1.
         11    1    4    4    0    0  0.41752427236E+02 -0.12954100523E+03  0.36736344699E+03  0.39176528611E+03  0.00000000000E+00 0.  1.
</event>
<event>
 8    1  0.6840084E-009  0.1280100E+03  0.7561462E-02  0.1230439E+00
          2   -1    0    0  501    0  0.00000000000E+00  0.00000000000E+00  0.11196365139E+03  0.11196365139E+03  0.00000000000E+00 0. -1.
         -2   -1    0    0    0  501 -0.00000000000E+00 -0.00000000000E+00 -0.19794481701E+03  0.19794481701E+03  0.00000000000E+00 0.  1.
         25    2    1    2    0    0  0.14422675425E+02  0.97052903574E+02 -0.65329769858E+02  0.17188099781E+03  0.12509124238E+03 0.  0.
         23    2    1    2    0    0 -0.14422675425E+02 -0.97052903574E+02 -0.20651395755E+02  0.13802747059E+03  0.94856854425E+02 0.  0.
          5    1    3    3  502    0  0.52017370687E+02  0.19304470890E+01 -0.36070028006E+01  0.52345165473E+02  0.41800000000E+01 0. -1.
         -5    1    3    3    0  502 -0.37594695263E+02  0.95122456485E+02 -0.61722767057E+02  0.11953583234E+03  0.41800000000E+01 0. -1.
        -11    1    4    4    0    0 -0.88176331732E+01 -0.71447575353E+01 -0.43612187774E+02  0.45064632889E+02  0.00000000000E+00 0.  1.
         11    1    4    4    0    0 -0.56050422514E+01 -0.89908146039E+02  0.22960792019E+02  0.92962837698E+02  0.00000000000E+00 0. -1.
</event>
<event>
 8    1  0.6840084E-009  0.1051914E+03  0.7561462E-02  0.1269743E+00
          2   -1    0    0  501    0  0.00000000000E+00  0.00000000000E+00  0.16706532097E+04  0.16706532097E+04  0.00000000000E+00 0. -1.
         -2   -1    0    0    0  501 -0.00000000000E+00 -0.00000000000E+00 -0.25374638133E+02  0.25374638133E+02  0.00000000000E+00 0.  1.
         25    2    1    2    0    0 -0.69323952735E+02  0.17620744860E+02  0.15152304227E+04  0.15220651354E+04  0.12507094661E+03 0.  0.
         23    2    1    2    0    0  0.69323952735E+02 -0.17620744860E+02  0.13004814895E+03  0.17396271244E+03  0.90742510442E+02 0.  0.
          5    1    3    3  502    0  0.75445404804E+01  0.37301958492E+02  0.10010127009E+04  0.10017446062E+04  0.41800000000E+01 0.  1.
         -5    1    3    3    0  502 -0.76868493216E+02 -0.19681213632E+02  0.51421772175E+03  0.52032052927E+03  0.41800000000E+01 0.  1.
        -11    1    4    4    0    0  0.46490953167E+02 -0.39507142053E+02  0.28005359146E+02  0.67130642336E+02  0.00000000000E+00 0.  1.
         11    1    4    4    0    0  0.22832999569E+02  0.21886397193E+02  0.10204278980E+03  0.10683207010E+03  0.00000000000E+00 0. -1.
</event>
<event>
 8    1  0.6840084E-009  0.1070796E+03  0.7561462E-02  0.1266076E+00
         -3   -1    0    0    0  501 -0.00000000000E+00  0.00000000000E+00  0.17048413712E+03  0.17048413712E+03  0.00000000000E+00 0.  1.
          3   -1    0    0  501    0  0.00000000000E+00 -0.00000000000E+00 -0.80850482148E+02  0.80850482148E+02  0.00000000000E+00 0. -1.
         25    2    1    2    0    0  0.27545327592E+02  0.28411862084E+02  0.28439913747E+02  0.13425192194E+03  0.12509504735E+03 0.  0.
         23    2    1    2    0    0 -0.27545327592E+02 -0.28411862084E+02  0.61193741228E+02  0.11708269733E+03  0.91638993172E+02 0.  0.
          5    1    3    3  502    0 -0.20045223977E+02  0.60930648287E+02 -0.97040639405E+01  0.65007662332E+02  0.41800000000E+01 0. -1.
         -5    1    3    3    0  502  0.47590551569E+02 -0.32518786203E+02  0.38143977687E+02  0.69244259607E+02  0.41800000000E+01 0. -1.
        -11    1    4    4    0    0  0.29978032692E+02 -0.11778428301E+02  0.44474178481E+02  0.54912351697E+02  0.00000000000E+00 0.  1.
         11    1    4    4    0    0 -0.57523360284E+02 -0.16633433783E+02  0.16719562747E+02  0.62170345634E+02  0.00000000000E+00 0. -1.
</event>
<event>
 8    1  0.6840084E-009  0.1569593E+03  0.7561462E-02  0.1192173E+00
         -1   -1    0    0    0  501 -0.00000000000E+00  0.00000000000E+00  0.29631759408E+02  0.29631759408E+02  0.00000000000E+00 0.  1.
          1   -1    0    0  501    0  0.00000000000E+00 -0.00000000000E+00 -0.12231936672E+04  0.12231936672E+04  0.00000000000E+00 0. -1.
         25    2    1    2    0    0  0.30003164436E+02 -0.13973903628E+03 -0.41761872229E+03  0.45878422844E+03  0.12510149049E+03 0.  0.
         23    2    1    2    0    0 -0.30003164436E+02  0.13973903628E+03 -0.77594318547E+03  0.79404119814E+03  0.89366711491E+02 0.  0.
          5    1    3    3  502    0  0.28591469968E+02 -0.73204215928E+02 -0.36625258394E+03  0.37461280948E+03  0.41800000000E+01 0.  1.
         -5    1    3    3    0  502  0.14116944675E+01 -0.66534820350E+02 -0.51366138346E+02  0.84171418955E+02  0.41800000000E+01 0.  1.
        -11    1    4    4    0    0  0.85680502838E+01  0.12790422210E+03 -0.58412633994E+03  0.59802715869E+03  0.00000000000E+00 0.  1.
         11    1    4    4    0    0 -0.38571214720E+02  0.11834814181E+02 -0.19181684554E+03  0.19601403945E+03  0.00000000000E+00 0. -1.
</event>
<event>
 8    1  0.6840084E-009  0.1795525E+03  0.7561462E-02  0.1168237E+00
          1   -1    0    0  501    0  0.00000000000E+00  0.00000000000E+00  0.10809833458E+03  0.10809833458E+03  0.00000000000E+00 0. -1.
         -1   -1    0    0    0  501 -0.00000000000E+00 -0.00000000000E+00 -0.35516583714E+03  0.35516583714E+03  0.00000000000E+00 0.  1.
         25    2    1    2    0    0  0.14061541644E+03 -0.81378861428E+02 -0.11372097155E+03  0.23446732455E+03  0.12508897827E+03 0.  0.
         23    2    1    2    0    0 -0.14061541644E+03  0.81378861428E+02 -0.13334653101E+03  0.22879684717E+03  0.90396269367E+02 0.  0.
          5    1    3    3  502    0 -0.97584087927E+01 -0.38898920471E+02  0.13836485473E+01  0.40345252995E+02  0.41800000000E+01 0. -1.
         -5    1    3    3    0  502  0.15037382523E+03 -0.42479940958E+02 -0.11510462010E+03  0.19412207156E+03  0.41800000000E+01 0. -1.
        -11    1    4    4    0    0 -0.54640560004E+02  0.31094980030E+02 -0.64053041197E+00  0.62872083311E+02  0.00000000000E+00 0. -1.
         11    1    4    4    0    0 -0.85974856435E+02  0.50283881398E+02 -0.13270600060E+03  0.16592476386E+03  0.00000000000E+00 0.  1.
</event>
<event>
 8    1  0.6840084E-009  0.9178183E+02  0.7561462E-02  0.1298593E+00
         -1   -1    0    0    0  501 -0.00000000000E+00  0.00000000000E+00  0.25543829359E+02  0.25543829359E+02  0.00000000000E+00 0.  1.
          1   -1    0    0  501    0  0.00000000000E+00 -0.00000000000E+00 -0.46335892524E+03  0.46335892524E+03  0.00000000000E+00 0. -1.
         25    2    1    2    0    0 -0.77464599954E+01 -0.29354307213E+01 -0.24979331858E+03  0.27948806843E+03  0.12509298139E+03 0.  0.
         23    2    1    2    0    0  0.77464599954E+01  0.29354307213E+01 -0.18802177730E+03  0.20941468617E+03  0.91835165636E+02 0.  0.
          5    1    3    3  502    0 -0.58570586034E+02  0.28691674885E+02 -0.13154195867E+03  0.14688255528E+03  0.41800000000E+01 0.  1.
         -5    1    3    3    0  502  0.50824126039E+02 -0.31627105606E+02 -0.11825135991E+03  0.13260551315E+03  0.41800000000E+01 0.  1.
        -11    1    4    4    0    0 -0.23505699382E+02 -0.83946305930E+01 -0.77962101317E+01  0.26148969743E+02  0.00000000000E+00 0.  1.
         11    1    4    4    0    0  0.31252159377E+02  0.11330061314E+02 -0.18022556717E+03  0.18326571643E+03  0.00000000000E+00 0. -1.
</event>
<event>
 8    1  0.6840084E-009  0.1482593E+03  0.7561462E-02  0.1202628E+00
          2   -1    0    0  501    0  0.00000000000E+00  0.00000000000E+00  0.75167208173E+03  0.75167208173E+03  0.00000000000E+00 0. -1.
         -2   -1    0    0    0  501 -0.00000000000E+00 -0.00000000000E+00 -0.80070437898E+02  0.80070437898E+02  0.00000000000E+00 0.  1.
         25    2    1    2    0    0  0.13895443433E+03  0.46182478106E+02  0.62316266444E+03  0.65224190627E+03  0.12508653740E+03 0.  0.
         23    2    1    2    0    0 -0.13895443433E+03 -0.46182478106E+02  0.48438979394E+02  0.17950061336E+03  0.91831254845E+02 0.  0.
          5    1    3    3  502    0  0.22864357697E+02  0.14942281292E+01  0.36396587604E+03  0.36471035479E+03  0.41800000000E+01 0.  1.
         -5    1    3    3    0  502  0.11609007664E+03  0.44688249977E+02  0.25919678840E+03  0.28753155148E+03  0.41800000000E+01 0.  1.
        -11    1    4    4    0    0 -0.12297915749E+03 -0.31232421795E+02  0.58776156547E+00  0.12688452550E+03  0.00000000000E+00 0.  1.
         11    1    4    4    0    0 -0.15975276847E+02 -0.14950056311E+02  0.47851217829E+02  0.52616087860E+02  0.00000000000E+00 0. -1.
</event>
<event>
 8    1  0.6840084E-009  0.1784316E+03  0.7561462E-02  0.1169330E+00
         -1   -1    0    0    0  501 -0.00000000000E+00  0.00000000000E+00  0.56859324426E+03  0.56859324426E+03  0.00000000000E+00 0.  1.
          1   -1    0    0  501    0  0.00000000000E+00 -0.00000000000E+00 -0.64273349836E+02  0.64273349836E+02  0.00000000000E+00 0. -1.
         25    2    1    2    0    0  0.12204831634E+03  0.76826630744E+02  0.33292240664E+03  0.38377515227E+03  0.12509163021E+03 0.  0.
         23    2    1    2    0    0 -0.12204831634E+03 -0.76826630744E+02  0.17139748779E+03  0.24909144182E+03  0.10895560957E+03 0.  0.
          5    1    3    3  502    0  0.12363171616E+03  0.10476312824E+03  0.27279734184E+03  0.31732629326E+03  0.41800000000E+01 0.  1.
         -5    1    3    3    0  502 -0.15833998174E+01 -0.27936497497E+02  0.60125064794E+02  0.66448859010E+02  0.41800000000E+01 0.  1.
        -11    1    4    4    0    0 -0.55454950375E+02  0.10710241126E+02  0.10867639725E+03  0.12247661044E+03  0.00000000000E+00 0.  1.
         11    1    4    4    0    0 -0.66593365967E+02 -0.87536871870E+02  0.62721090539E+02  0.12661483138E+03  0.00000000000E+00 0. -1.
</event>
<event>
 8    1  0.6840084E-009  0.1704466E+03  0.7561462E-02  0.1177383E+00
          2   -1    0    0  501    0  0.00000000000E+00  0.00000000000E+00  0.14483944286E+03  0.14483944286E+03  0.00000000000E+00 0. -1.
         -2   -1    0    0    0  501 -0.00000000000E+00 -0.00000000000E+00 -0.21939152351E+03  0.21939152351E+03  0.00000000000E+00 0.  1.
         25    2    1    2    0    0 -0.13127299337E+03 -0.43434709022E+02 -0.70564575917E+02  0.19936347041E+03  0.12508901319E+03 0.  0.
         23    2    1    2    0    0  0.13127299337E+03  0.43434709022E+02 -0.39875047294E+01  0.16486749596E+03  0.89700715118E+02 0.  0.
          5    1    3    3  502    0 -0.22065367661E+02 -0.64269418976E+02 -0.53968938153E+02  0.86876678982E+02  0.41800000000E+01 0. -1.
         -5    1    3    3    0  502 -0.10920762571E+03  0.20834709954E+02 -0.16595637764E+02  0.11248679143E+03  0.41800000000E+01 0. -1.
        -11    1    4    4    0    0  0.86341296102E+02 -0.15217900940E+02  0.14105198795E+02  0.88799552672E+02  0.00000000000E+00 0. -1.
         11    1    4    4    0    0  0.44931697270E+02  0.58652609962E+02 -0.18092703525E+02  0.76067943286E+02  0.00000000000E+00 0.  1.
</event>
<event>
 8    1  0.6840084E-009  0.1181116E+03  0.7561462E-02  0.1246245E+00
         -1   -1    0    0    0  501 -0.00000000000E+00  0.00000000000E+00  0.34555140033E+02  0.34555140033E+02  0.00000000000E+00 0.  1.
          1   -1    0    0  501    0  0.00000000000E+00 -0.00000000000E+00 -0.64563906175E+03  0.64563906175E+03  0.00000000000E+00 0. -1.
         25    2    1    2    0    0  0.14942698618E+02  0.85004605563E+02 -0.45680201645E+03  0.48142013568E+03  0.12509275596E+03 0.  0.
         23    2    1    2    0    0 -0.14942698618E+02 -0.85004605563E+02 -0.15428190527E+03  0.19877406611E+03  0.90879897969E+02 0.  0.
          5    1    3    3  502    0  0.55745973543E+02  0.41101394903E+01 -0.23905398985E+03  0.24553775530E+03  0.41800000000E+01 0. -1.
         -5    1    3    3    0  502 -0.40803274925E+02  0.80894466073E+02 -0.21774802660E+03  0.23588238038E+03  0.41800000000E+01 0. -1.
        -11    1    4    4    0    0 -0.18109761195E+02 -0.35381993933E+02 -0.14213548257E+03  0.14758842891E+03  0.00000000000E+00 0. -1.
         11    1    4    4    0    0  0.31670625770E+01 -0.49622611630E+02 -0.12146422701E+02  0.51185637192E+02  0.00000000000E+00 0.  1.
</event>
<event>
 8    1  0.6840084E-009  0.1040314E+03  0.7561462E-02  0.1272040E+00
         -2   -1    0    0    0  501 -0.00000000000E+00  0.00000000000E+00  0.14102965993E+02  0.14102965993E+02  0.00000000000E+00 0.  1.
          2   -1    0    0  501    0  0.00000000000E+00 -0.00000000000E+00 -0.90406576762E+03  0.90406576762E+03  0.00000000000E+00 0. -1.
         25    2    1    2    0    0  0.21911109295E+02  0.22890475824E+02 -0.57754336813E+03  0.59178393646E+03  0.12509122585E+03 0.  0.
         23    2    1    2    0    0 -0.21911109295E+02 -0.22890475824E+02 -0.31241943350E+03  0.32638479716E+03  0.88977878111E+02 0.  0.
          5    1    3    3  502    0  0.23967020521E+02  0.65990943852E+02 -0.47886979650E+03  0.48400720773E+03  0.41800000000E+01 0.  1.
         -5    1    3    3    0  502 -0.20559112265E+01 -0.43100468028E+02 -0.98673571635E+02  0.10777672872E+03  0.41800000000E+01 0.  1.
        -11    1    4    4    0    0 -0.55767370817E+02 -0.23500881348E+02 -0.19410006838E+03  0.20331534034E+03  0.00000000000E+00 0.  1.
         11    1    4    4    0    0  0.33856261523E+02  0.61040552465E+00 -0.11831936512E+03  0.12306945682E+03  0.00000000000E+00 0. -1.
</event>
<event>
 8    1  0.6840084E-009  0.1958837E+03  0.7561462E-02  0.1153259E+00
         -2   -1    0    0    0  501 -0.00000000000E+00  0.00000000000E+00  0.46095496529E+02  0.46095496529E+02  0.00000000000E+00 0. -1.
          2   -1    0    0  501    0  0.00000000000E+00 -0.00000000000E+00 -0.10472757510E+04  0.10472757510E+04  0.00000000000E+00 0.  1.
         25    2    1    2    0    0 -0.42870558223E+02 -0.16860587394E+03 -0.32600687937E+03  0.39012004971E+03  0.12508933726E+03 0.  0.
         23    2    1    2    0    0  0.42870558223E+02  0.16860587394E+03 -0.67517337514E+03  0.70325119786E+03  0.91854968864E+02 0.  0.
          5    1    3    3  502    0  0.43643281251E+02 -0.70649921998E+02 -0.13799032878E+03  0.16110540249E+03  0.41800000000E+01 0.  1.
         -5    1    3    3    0  502 -0.86513839474E+02 -0.97955951943E+02 -0.18801655059E+03  0.22901464721E+03  0.41800000000E+01 0.  1.
        -11    1    4    4    0    0 -0.68687166220E+01  0.22113618418E+02 -0.21769149886E+02  0.31781870214E+02  0.00000000000E+00 0. -1.
         11    1    4    4    0    0  0.49739274845E+02  0.14649225552E+03 -0.65340422526E+03  0.67146932765E+03  0.00000000000E+00 0.  1.
</event>
<event>
 8    1  0.6840084E-009  0.1156986E+03  0.7561462E-02  0.1250367E+00
         -2   -1    0    0    0  501 -0.00000000000E+00  0.00000000000E+00  0.61209022107E+02  0.61209022107E+02  0.00000000000E+00 0.  1.
          2   -1    0    0  501    0  0.00000000000E+00 -0.00000000000E+00 -0.25932605735E+03  0.25932605735E+03  0.00000000000E+00 0. -1.
         25    2    1    2    0    0 -0.31254640609E+02  0.43035508519E+02 -0.60313040602E+02  0.14870913572E+03  0.12509131316E+03 0.  0.
         23    2    1    2    0    0  0.31254640609E+02 -0.43035508519E+02 -0.13780399465E+03  0.17182594374E+03  0.87779874963E+02 0.  0.
          5    1    3    3  502    0  0.41527316610E+02 -0.55715214945E+01  0.40101102074E+00  0.42109299287E+02  0.41800000000E+01 0. -1.
         -5    1    3    3    0  502 -0.72781957219E+02  0.48607030013E+02 -0.60714051623E+02  0.10659983643E+03  0.41800000000E+01 0. -1.
        -11    1    4    4    0    0 -0.30399712401E+02 -0.15915306142E+02 -0.58068387480E+02  0.67449070477E+02  0.00000000000E+00 0. -1.
         11    1    4    4    0    0  0.61654353010E+02 -0.27120202377E+02 -0.79735607165E+02  0.10437687326E+03  0.00000000000E+00 0.  1.
</event>
<event>
 8    1  0.6840084E-009  0.1346001E+03  0.7561462E-02  0.1220785E+00
         -1   -1    0    0    0  501 -0.00000000000E+00  0.00000000000E+00  0.74033386830E+02  0.74033386830E+02  0.00000000000E+00 0.  1.
          1   -1    0    0  501    0  0.00000000000E+00 -0.00000000000E+00 -0.37084457844E+03  0.37084457844E+03  0.00000000000E+00 0. -1.
         25    2    1    2    0    0 -0.98601308333E+02  0.13572988521E+02 -0.26090286477E+03  0.30598129820E+03  0.12509119066E+03 0.  0.
         23    2    1    2    0    0  0.98601308333E+02 -0.13572988521E+02 -0.35908326842E+02  0.13889666707E+03  0.89980176509E+02 0.  0.
          5    1    3    3  502    0 -0.94184739775E+02  0.52655521120E+02 -0.23521658833E+03  0.25881979240E+03  0.41800000000E+01 0.  1.
         -5    1    3    3    0  502 -0.44165685579E+01 -0.39082532599E+02 -0.25686276440E+02  0.47161505803E+02  0.41800000000E+01 0.  1.
        -11    1    4    4    0    0 -0.11082886912E+02  0.40752187922E+00 -0.25535171335E+02  0.27839565936E+02  0.00000000000E+00 0. -1.
         11    1    4    4    0    0  0.10968419524E+03 -0.13980510400E+02 -0.10373155507E+02  0.11105710114E+03  0.00000000000E+00 0.  1.
</event>
<event>
 8    1  0.6840084E-009  0.1035242E+03  0.7561462E-02  0.1273055E+00
         -1   -1    0    0    0  501 -0.00000000000E+00  0.00000000000E+00  0.18853358938E+03  0.18853358938E+03  0.00000000000E+00 0.  1.
          1   -1    0    0  501    0  0.00000000000E+00 -0.00000000000E+00 -0.81141842452E+02  0.81141842452E+02  0.00000000000E+00 0. -1.
         25    2    1    2    0    0  0.56210323895E+02  0.10551825806E+01  0.79389581242E+02  0.15846660426E+03  0.12509294598E+03 0.  0.
         23    2    1    2    0    0 -0.56210323895E+02 -0.10551825806E+01  0.28002165686E+02  0.11120882757E+03  0.91774550521E+02 0.  0.
          5    1    3    3  502    0  0.20470315431E+01 -0.55480686996E+02  0.49688824141E+02  0.74624048484E+02  0.41800000000E+01 0.  1.
         -5    1    3    3    0  502  0.54163292351E+02  0.56535869577E+02  0.29700757101E+02  0.83842555779E+02  0.41800000000E+01 0.  1.
        -11    1    4    4    0    0 -0.32925347680E+01  0.16798977862E+02  0.48721030935E+02  0.51640926578E+02  0.00000000000E+00 0.  1.
         11    1    4    4    0    0 -0.52917789127E+02 -0.17854160443E+02 -0.20718865249E+02  0.59567900990E+02  0.00000000000E+00 0. -1.
</event>
<event>
 8    1  0.6840084E-009  0.1022945E+03  0.7561462E-02  0.1275544E+00
          1   -1    0    0  501    0  0.00000000000E+00  0.00000000000E+00  0.52255182201E+02  0.52255182201E+02  0.00000000000E+00 0. -1.
         -1   -1    0    0    0  501 -0.00000000000E+00 -0.00000000000E+00 -0.43922749546E+03  0.43922749546E+03  0.00000000000E+00 0.  1.
         25    2    1    2    0    0  0.84646629119E+00 -0.43520968130E+01 -0.37934490892E+03  0.39945982660E+03  0.12508371553E+03 0.  0.
         23    2    1    2    0    0 -0.84646629119E+00  0.43520968130E+01 -0.76274043472E+01  0.92022851069E+02  0.91598965987E+02 0.  0.
          5    1    3    3  502    0 -0.58240626401E+02  0.25560390384E+01 -0.12175285901E+03  0.13505456296E+03  0.41800000000E+01 0. -1.
         -5    1    3    3    0  502  0.59087092692E+02 -0.69081358514E+01 -0.25759204990E+03  0.26440526363E+03  0.41800000000E+01 0. -1.
        -11    1    4    4    0    0 -0.11260672392E+02 -0.39686559178E+02 -0.18915343421E+02  0.45382991735E+02  0.00000000000E+00 0.  1.
         11    1    4    4    0    0  0.10414206100E+02  0.44038655991E+02  0.11287939074E+02  0.46639859334E+02  0.00000000000E+00 0. -1.
</event>
<event>
 8    1  0.6840084E-009  0.1572165E+03  0.7561462E-02  0.1191876E+00
          1   -1    0    0  501    0  0.00000000000E+00  0.00000000000E+00  0.15361557040E+03  0.15361557040E+03  0.00000000000E+00 0. -1.
         -1   -1    0    0    0  501 -0.00000000000E+00 -0.00000000000E+00 -0.19453819057E+03  0.19453819057E+03  0.00000000000E+00 0.  1.
         25    2    1    2    0    0 -0.13242477272E+03 -0.26392442824E+01 -0.11464337464E+02  0.18254423196E+03  0.12509068530E+03 0.  0.
         23    2    1    2    0    0  0.13242477272E+03  0.26392442824E+01 -0.29458282704E+02  0.16560952900E+03  0.94949668957E+02 0.  0.
          5    1    3    3  502    0 -0.80881135064E+02 -0.62780503918E+02 -0.50599777091E+00  0.10247379233E+03  0.41800000000E+01 0. -1.
         -5    1    3    3    0  502 -0.51543637660E+02  0.60141259636E+02 -0.10958339693E+02  0.80070439630E+02  0.41800000000E+01 0. -1.
        -11    1    4    4    0    0  0.43311467411E+02  0.42154935558E+01 -0.57558913067E+02  0.72157342444E+02  0.00000000000E+00 0.  1.
         11    1    4    4    0    0  0.89113305313E+02 -0.15762492734E+01  0.28100630363E+02  0.93452186557E+02  0.00000000000E+00 0. -1.
</event>
<event>
 8    1  0.6840084E-009  0.1009144E+03  0.7561462E-02  0.1278385E+00
          4   -1    0    0  501    0  0.00000000000E+00  0.00000000000E+00  0.63409043537E+02  0.63409043537E+02  0.00000000000E+00 0. -1.
         -4   -1    0    0    0  501 -0.00000000000E+00 -0.00000000000E+00 -0.20794540838E+03  0.20794540838E+03  0.00000000000E+00 0.  1.
         25    2    1    2    0    0 -0.73952881209E+01  0.10673481040E+02 -0.13414995278E+03  0.18388199117E+03  0.12509102030E+03 0.  0.
         23    2    1    2    0    0  0.73952881209E+01 -0.10673481040E+02 -0.10386412066E+02  0.87472460753E+02  0.85877472894E+02 0.  0.
          5    1    3    3  502    0 -0.42600808816E+02  0.48205743583E+02 -0.38232635999E+02  0.74952181300E+02  0.41800000000E+01 0. -1.
         -5    1    3    3    0  502  0.35205520695E+02 -0.37532262544E+02 -0.95917316781E+02  0.10892980987E+03  0.41800000000E+01 0. -1.
        -11    1    4    4    0    0  0.13515960488E+02  0.36106399946E+02 -0.11656149965E+02  0.40276781612E+02  0.00000000000E+00 0.  1.
         11    1    4    4    0    0 -0.61206723671E+01 -0.46779880986E+02  0.12697378993E+01  0.47195679141E+02  0.00000000000E+00 0. -1.
</event>
<event>
 8    1  0.6840084E-009  0.2653528E+03  0.7561462E-02  0.1103969E+00
          1   -1    0    0  501    0  0.00000000000E+00  0.00000000000E+00  0.11976301521E+04  0.11976301521E+04  0.00000000000E+00 0. -1.
         -1   -1    0    0    0  501 -0.00000000000E+00 -0.00000000000E+00 -0.71770934944E+02  0.71770934944E+02  0.00000000000E+00 0.  1.
         25    2    1    2    0    0 -0.15169386436E+03  0.20596551867E+03  0.37385523982E+03  0.46994751026E+03  0.12510035448E+03 0.  0.
         23    2    1    2    0    0  0.15169386436E+03 -0.20596551867E+03  0.75200397735E+03  0.79945357679E+03  0.90461130535E+02 0.  0.
          5    1    3    3  502    0 -0.68409907260E+02  0.12858816901E+03  0.30221981332E+03  0.33551321969E+03  0.41800000000E+01 0. -1.
         -5    1    3    3    0  502 -0.83283957103E+02  0.77377349667E+02  0.71635426493E+02  0.13443429057E+03  0.41800000000E+01 0. -1.
        -11    1    4    4    0    0  0.46666940152E+02 -0.83008356774E+01  0.13933568297E+03  0.14717723915E+03  0.00000000000E+00 0.  1.
         11    1    4    4    0    0  0.10502692421E+03 -0.19766468299E+03  0.61266829438E+03  0.65227633764E+03  0.00000000000E+00 0. -1.
</event>
<event>
 8    1  0.6840084E-009  0.1366572E+03  0.7561462E-02  0.1217899E+00
          2   -1    0    0  501    0  0.00000000000E+00  0.00000000000E+00  0.90175417392E+03  0.90175417392E+03  0.00000000000E+00 0. -1.
         -2   -1    0    0    0  501 -0.00000000000E+00 -0.00000000000E+00 -0.27003193849E+02  0.27003193849E+02  0.00000000000E+00 0.  1.
         25    2    1    2    0    0  0.75972350423E+02 -0.41462691153E+02  0.26046018680E+03  0.30162976211E+03  0.12510016666E+03 0.  0.
         23    2    1    2    0    0 -0.75972350423E+02  0.41462691153E+02  0.61429079327E+03  0.62712760566E+03  0.91896149483E+02 0.  0.
          5    1    3    3  502    0  0.37494762595E+02 -0.83086467860E+02  0.19251291499E+03  0.21304439256E+03  0.41800000000E+01 0.  1.
         -5    1    3    3    0  502  0.38477587827E+02  0.41623776708E+02  0.67947271811E+02  0.88585369553E+02  0.41800000000E+01 0.  1.
        -11    1    4    4    0    0 -0.14356219905E+02  0.59353461760E+02  0.26007308524E+03  0.26714592293E+03  0.00000000000E+00 0.  1.
         11    1    4    4    0    0 -0.61616130517E+02 -0.17890770608E+02  0.35421770804E+03  0.35998168273E+03  0.00000000000E+00 0. -1.
</event>
<event>
 8    1  0.6840084E-009  0.1124562E+03  0.7561462E-02  0.1256088E+00
         -2   -1    0    0    0  501 -0.00000000000E+00  0.00000000000E+00  0.93967347363E+02  0.93967347363E+02  0.00000000000E+00 0.  1.
          2   -1    0    0  501    0  0.00000000000E+00 -0.00000000000E+00 -0.18501967822E+03  0.18501967822E+03  0.00000000000E+00 0. -1.
         25    2    1    2    0    0  0.69449382274E+02 -0.26154992754E+02 -0.62895797189E+02  0.15845698761E+03  0.12508171438E+03 0.  0.
         23    2    1    2    0    0 -0.69449382274E+02  0.26154992754E+02 -0.28156533670E+02  0.12053003798E+03  0.90705012666E+02 0.  0.
          5    1    3    3  502    0 -0.33363502287E+01  0.41126604060E+02 -0.92132711760E+00  0.41483129559E+02  0.41800000000E+01 0. -1.
         -5    1    3    3    0  502  0.72785732503E+02 -0.67281596815E+02 -0.61974470071E+02  0.11697385805E+03  0.41800000000E+01 0. -1.
        -11    1    4    4    0    0 -0.20219383189E+02 -0.10567896860E+02 -0.50308047219E+02  0.55239510457E+02  0.00000000000E+00 0. -1.
         11    1    4    4    0    0 -0.49229999085E+02  0.36722889615E+02  0.22151513549E+02  0.65290527522E+02  0.00000000000E+00 0.  1.
</event>
<event>
 8    1  0.6840084E-009  0.1056894E+03  0.7561462E-02  0.1268767E+00
          1   -1    0    0  501    0  0.00000000000E+00  0.00000000000E+00  0.12378729148E+03  0.12378729148E+03  0.00000000000E+00 0. -1.
         -1   -1    0    0    0  501 -0.00000000000E+00 -0.00000000000E+00 -0.21973739003E+03  0.21973739003E+03  0.00000000000E+00 0.  1.
         25    2    1    2    0    0 -0.96956240415E+00 -0.46798818158E+02 -0.16814612629E+03  0.21473617129E+03  0.12508970397E+03 0.  0.
         23    2    1    2    0    0  0.96956240415E+00  0.46798818158E+02  0.72196027742E+02  0.12878851023E+03  0.95828724886E+02 0.  0.
          5    1    3    3  502    0 -0.58593810283E+02 -0.47502676751E+02 -0.88929176336E+02  0.11668594477E+03  0.41800000000E+01 0. -1.
         -5    1    3    3    0  502  0.57624247879E+02  0.70385859314E+00 -0.79216949955E+02  0.98050226520E+02  0.41800000000E+01 0. -1.
        -11    1    4    4    0    0  0.27663657455E+02  0.44885575871E+01  0.73585733885E+02  0.78741890531E+02  0.00000000000E+00 0. -1.
         11    1    4    4    0    0 -0.26694095051E+02  0.42310260571E+02 -0.13897061421E+01  0.50046619700E+02  0.00000000000E+00 0.  1.
</event>
<event>
 8    1  0.6840084E-009  0.1106825E+03  0.7561462E-02  0.1259311E+00
         -2   -1    0    0    0  501 -0.00000000000E+00  0.00000000000E+00  0.41086859271E+03  0.41086859271E+03  0.00000000000E+00 0.  1.
          2   -1    0    0  501    0  0.00000000000E+00 -0.00000000000E+00 -0.35130451492E+02  0.35130451492E+02  0.00000000000E+00 0. -1.
         25    2    1    2    0    0 -0.43601288708E+02 -0.10645124796E+02  0.25713169980E+03  0.28944581515E+03  0.12509107805E+03 0.  0.
         23    2    1    2    0    0  0.43601288708E+02  0.10645124796E+02  0.11860644141E+03  0.15655322905E+03  0.91798880830E+02 0.  0.
          5    1    3    3  502    0 -0.87310001940E+02 -0.41192447031E+01  0.15318664802E+03  0.17641889397E+03  0.41800000000E+01 0.  1.
         -5    1    3    3    0  502  0.43708713232E+02 -0.65258800927E+01  0.10394505178E+03  0.11302692119E+03  0.41800000000E+01 0.  1.
        -11    1    4    4    0    0  0.35396620878E+02  0.43225930008E+02  0.33713130135E+02  0.65253175694E+02  0.00000000000E+00 0. -1.
         11    1    4    4    0    0  0.82046678293E+01 -0.32580805212E+02  0.84893311280E+02  0.91300053354E+02  0.00000000000E+00 0.  1.
</event>
<event>
 8    1  0.6840084E-009  0.1040244E+03  0.7561462E-02  0.1272054E+00
          2   -1    0    0  501    0  0.00000000000E+00  0.00000000000E+00  0.12408498482E+04  0.12408498482E+04  0.00000000000E+00 0.  1.
         -2   -1    0    0    0  501 -0.00000000000E+00 -0.00000000000E+00 -0.12322485751E+02  0.12322485751E+02  0.00000000000E+00 0. -1.
         25    2    1    2    0    0  0.44016898957E+02  0.15634959828E+02  0.87145341383E+03  0.88162481659E+03  0.12509726371E+03 0.  0.
         23    2    1    2    0    0 -0.44016898957E+02 -0.15634959828E+02  0.35707394863E+03  0.37154751737E+03  0.91453887359E+02 0.  0.
          5    1    3    3  502    0  0.49716648231E+02 -0.36769174155E+02  0.23693634945E+03  0.24490819376E+03  0.41800000000E+01 0.  1.
         -5    1    3    3    0  502 -0.56997492743E+01  0.52404133984E+02  0.63451706438E+03  0.63671662283E+03  0.41800000000E+01 0.  1.
        -11    1    4    4    0    0 -0.39914066181E+02 -0.46942436249E+02  0.30055917881E+03  0.30681027519E+03  0.00000000000E+00 0.  1.
         11    1    4    4    0    0 -0.41028327755E+01  0.31307476421E+02  0.56514769820E+02  0.64737242175E+02  0.00000000000E+00 0. -1.
</event>
<event>
 8    1  0.6840084E-009  0.9432817E+02  0.7561462E-02  0.1292696E+00
         -1   -1    0    0    0  501 -0.00000000000E+00  0.00000000000E+00  0.56344146984E+01  0.56344146984E+01  0.00000000000E+00 0.  1.
          1   -1    0    0  501    0  0.00000000000E+00 -0.00000000000E+00 -0.32617484836E+04  0.32617484836E+04  0.00000000000E+00 0. -1.
         25    2    1    2    0    0  0.25862212517E+02  0.96615557372E+01 -0.27045899883E+04  0.27076220731E+04  0.12509231075E+03 0.  0.
         23    2    1    2    0    0 -0.25862212517E+02 -0.96615557372E+01 -0.55152408056E+03  0.55976082516E+03  0.91603331008E+02 0.  0.
          5    1    3    3  502    0 -0.30286928767E+02 -0.11908652451E+02 -0.20496271193E+04  0.20498897323E+04  0.41800000000E+01 0.  1.
         -5    1    3    3    0  502  0.56149141284E+02  0.21570208188E+02 -0.65496286905E+03  0.65773234084E+03  0.41800000000E+01 0.  1.
        -11    1    4    4    0    0  0.32465140258E+02 -0.17196019547E+02 -0.19840571161E+03  0.20177838045E+03  0.00000000000E+00 0. -1.
         11    1    4    4    0    0 -0.58327352774E+02  0.75344638103E+01 -0.35311836895E+03  0.35798244471E+03  0.00000000000E+00 0.  1.
</event>
<event>
 8    1  0.6840084E-009  0.9042548E+02  0.7561462E-02  0.1301825E+00
         -2   -1    0    0    0  501 -0.00000000000E+00  0.00000000000E+00  0.48281159548E+02  0.48281159548E+02  0.00000000000E+00 0.  1.
          2   -1    0    0  501    0  0.00000000000E+00 -0.00000000000E+00 -0.36799920218E+03  0.36799920218E+03  0.00000000000E+00 0. -1.
         25    2    1    2    0    0  0.76788144695E+02 -0.13684951187E+02 -0.17816184245E+03  0.23124185005E+03  0.12508978397E+03 0.  0.
         23    2    1    2    0    0 -0.76788144695E+02  0.13684951187E+02 -0.14155620018E+03  0.18503851167E+03  0.90096592273E+02 0.  0.
          5    1    3    3  502    0  0.13936769618E+02 -0.23037955052E+02 -0.16368340957E+03  0.16593586679E+03  0.41800000000E+01 0.  1.
         -5    1    3    3    0  502  0.62851375077E+02  0.93530038649E+01 -0.14478432883E+02  0.65305983257E+02  0.41800000000E+01 0.  1.
        -11    1    4    4    0    0 -0.81228306386E+01  0.19387592455E+02  0.62764737466E+01  0.21937484849E+02  0.00000000000E+00 0.  1.
         11    1    4    4    0    0 -0.68665314057E+02 -0.57026412685E+01 -0.14783267392E+03  0.16310102683E+03  0.00000000000E+00 0. -1.
</event>
<event>
 8    1  0.6840084E-009  0.1607571E+03  0.7561462E-02  0.1187845E+00
          1   -1    0    0  501    0  0.00000000000E+00  0.00000000000E+00  0.82208966250E+03  0.82208966250E+03  0.00000000000E+00 0. -1.
         -1   -1    0    0    0  501 -0.00000000000E+00 -0.00000000000E+00 -0.35677839529E+02  0.35677839529E+02  0.00000000000E+00 0.  1.
         25    2    1    2    0    0  0.22160484577E+02  0.12933975383E+03  0.46666099209E+03  0.50063900753E+03  0.12508827015E+03 0.  0.
         23    2    1    2    0    0 -0.22160484577E+02 -0.12933975383E+03  0.31975083088E+03  0.35712849450E+03  0.89890537507E+02 0.  0.
          5    1    3    3  502    0 -0.23232592106E+02 -0.84807786875E+01  0.15265811573E+03  0.15470504078E+03  0.41800000000E+01 0.  1.
         -5    1    3    3    0  502  0.45393076683E+02  0.13782053252E+03  0.31400287636E+03  0.34593396676E+03  0.41800000000E+01 0.  1.
        -11    1    4    4    0    0  0.19945755586E+02 -0.94601348899E+02  0.25335016077E+03  0.27117070701E+03  0.00000000000E+00 0. -1.
         11    1    4    4    0    0 -0.42106240163E+02 -0.34738404934E+02  0.66400670119E+02  0.85957787491E+02  0.00000000000E+00 0.  1.
</event>
<event>
 8    1  0.6840084E-009  0.9820190E+02  0.7561462E-02  0.1284123E+00
          1   -1    0    0  501    0  0.00000000000E+00  0.00000000000E+00  0.89420469270E+02  0.89420469270E+02  0.00000000000E+00 0. -1.
         -1   -1    0    0    0  501 -0.00000000000E+00 -0.00000000000E+00 -0.15699054081E+03  0.15699054081E+03  0.00000000000E+00 0.  1.
         25    2    1    2    0    0 -0.35275257044E+02  0.97073649149E+01 -0.41683534171E+01  0.13039593925E+03  0.12508856506E+03 0.  0.
         23    2    1    2    0    0  0.35275257044E+02 -0.97073649149E+01 -0.63401718128E+02  0.11601507083E+03  0.90006344810E+02 0.  0.
          5    1    3    3  502    0 -0.18631207055E+02  0.51323605479E+02 -0.44031411327E+02  0.70267146940E+02  0.41800000000E+01 0. -1.
         -5    1    3    3    0  502 -0.16644049989E+02 -0.41616240564E+02  0.39863057910E+02  0.60128792310E+02  0.41800000000E+01 0. -1.
        -11    1    4    4    0    0  0.20089324693E+02  0.39941075262E+02 -0.23324248675E+02  0.50427086332E+02  0.00000000000E+00 0.  1.
         11    1    4    4    0    0  0.15185932351E+02 -0.49648440177E+02 -0.40077469453E+02  0.65587984503E+02  0.00000000000E+00 0. -1.
</event>
<event>
 8    1  0.6840084E-009  0.3117301E+03  0.7561462E-02  0.1079520E+00
          1   -1    0    0  501    0  0.00000000000E+00  0.00000000000E+00  0.95215238747E+03  0.95215238747E+03  0.00000000000E+00 0. -1.
         -1   -1    0    0    0  501 -0.00000000000E+00 -0.00000000000E+00 -0.10976994689E+03  0.10976994689E+03  0.00000000000E+00 0.  1.
         25    2    1    2    0    0  0.27255176376E+03 -0.13125007490E+03  0.48260172631E+03  0.58314850895E+03  0.12508681455E+03 0.  0.
         23    2    1    2    0    0 -0.27255176376E+03  0.13125007490E+03  0.35978071427E+03  0.47877382540E+03  0.90945958907E+02 0.  0.
          5    1    3    3  502    0  0.27793024573E+03 -0.13255267066E+03  0.48605773367E+03  0.57539988256E+03  0.41800000000E+01 0.  1.
         -5    1    3    3    0  502 -0.53784819776E+01  0.13025957592E+01 -0.34560073617E+01  0.77486263931E+01  0.41800000000E+01 0.  1.
        -11    1    4    4    0    0 -0.18867630001E+03  0.12084152299E+03  0.30344455321E+03  0.37720023427E+03  0.00000000000E+00 0. -1.
         11    1    4    4    0    0 -0.83875463748E+02  0.10408551909E+02  0.56336161062E+02  0.10157359113E+03  0.00000000000E+00 0.  1.
</event>
<event>
 8    1  0.6840084E-009  0.1079884E+03  0.7561462E-02  0.1264341E+00
          2   -1    0    0  501    0  0.00000000000E+00  0.00000000000E+00  0.64696130537E+03  0.64696130537E+03  0.00000000000E+00 0. -1.
         -2   -1    0    0    0  501 -0.00000000000E+00 -0.00000000000E+00 -0.29894649761E+02  0.29894649761E+02  0.00000000000E+00 0.  1.
         25    2    1    2    0    0 -0.19600507705E+02 -0.57621628948E+02  0.49621199051E+03  0.51533962290E+03  0.12507659804E+03 0.  0.
         23    2    1    2    0    0  0.19600507705E+02  0.57621628948E+02  0.12085466510E+03  0.16151633223E+03  0.88188681114E+02 0.  0.
          5    1    3    3  502    0  0.42357193226E+02 -0.34914425963E+02  0.10477129481E+03  0.11835389970E+03  0.41800000000E+01 0.  1.
         -5    1    3    3    0  502 -0.61957700931E+02 -0.22707202984E+02  0.39144069570E+03  0.39698572320E+03  0.41800000000E+01 0.  1.
        -11    1    4    4    0    0  0.32451633912E+02 -0.32300532071E+01  0.81839496259E+02  0.88097928098E+02  0.00000000000E+00 0. -1.
         11    1    4    4    0    0 -0.12851126207E+02  0.60851682155E+02  0.39015168838E+02  0.73418404132E+02  0.00000000000E+00 0.  1.
</event>
<event>
 8    1  0.6840084E-009  0.1825613E+03  0.7561462E-02  0.1165347E+00
         -2   -1    0    0    0  501 -0.00000000000E+00  0.00000000000E+00  0.89095417675E+03  0.89095417675E+03  0.00000000000E+00 0.  1.
          2   -1    0    0  501    0  0.00000000000E+00 -0.00000000000E+00 -0.40328251809E+02  0.40328251809E+02  0.00000000000E+00 0. -1.
         25    2    1    2    0    0 -0.14467599738E+03  0.66472329386E+01  0.38259172844E+03  0.42778427543E+03  0.12509047008E+03 0.  0.
         23    2    1    2    0    0  0.14467599738E+03 -0.66472329386E+01  0.46803419650E+03  0.50349815313E+03  0.11609931607E+03 0.  0.
          5    1    3    3  502    0  0.22247355169E+02  0.53705659046E+01  0.63778752801E+02  0.67889538952E+02  0.41800000000E+01 0. -1.
         -5    1    3    3    0  502 -0.16692335255E+03  0.12766670340E+01  0.31881297564E+03  0.35989473648E+03  0.41800000000E+01 0. -1.
        -11    1    4    4    0    0  0.12684254933E+03  0.33290621826E+02  0.41228624326E+03  0.43263985508E+03  0.00000000000E+00 0.  1.
         11    1    4    4    0    0  0.17833448055E+02 -0.39937854764E+02  0.55747953235E+02  0.70858298051E+02  0.00000000000E+00 0. -1.
</event>
<event>
 8    1  0.6840084E-009  0.1015921E+03  0.7561462E-02  0.1276983E+00
          2   -1    0    0  501    0  0.00000000000E+00  0.00000000000E+00  0.42353634161E+03  0.42353634161E+03  0.00000000000E+00 0. -1.
         -2   -1    0    0    0  501 -0.00000000000E+00 -0.00000000000E+00 -0.37192137302E+02  0.37192137302E+02  0.00000000000E+00 0.  1.
         25    2    1    2    0    0  0.38789629223E+02 -0.47073483994E+02  0.24345772370E+03  0.28043127668E+03  0.12509791957E+03 0.  0.
         23    2    1    2    0    0 -0.38789629223E+02  0.47073483994E+02  0.14288648061E+03  0.18029720223E+03  0.91487630643E+02 0.  0.
          5    1    3    3  502    0 -0.16993524101E+02 -0.69074564951E+02  0.17708867123E+03  0.19088725799E+03  0.41800000000E+01 0. -1.
         -5    1    3    3    0  502  0.55783153323E+02  0.22001080957E+02  0.66369052474E+02  0.89544018696E+02  0.41800000000E+01 0. -1.
        -11    1    4    4    0    0  0.15894488478E+01  0.26409810141E+02 -0.38260466287E+01  0.26732808534E+02  0.00000000000E+00 0.  1.
         11    1    4    4    0    0 -0.40379078070E+02  0.20663673853E+02  0.14671252723E+03  0.15356439369E+03  0.00000000000E+00 0. -1.
</event>
<event>
 8    1  0.6840084E-009  0.9883459E+02  0.7561462E-02  0.1282766E+00
         -2   -1    0    0    0  501 -0.00000000000E+00  0.00000000000E+00  0.18405504416E+02  0.18405504416E+02  0.00000000000E+00 0.  1.
          2   -1    0    0  501    0  0.00000000000E+00 -0.00000000000E+00 -0.11298045769E+04  0.11298045769E+04  0.00000000000E+00 0. -1.
         25    2    1    2    0    0 -0.58780889123E+01  0.16607435136E+02 -0.96966014336E+03  0.97785437271E+03  0.12509205317E+03 0.  0.
         23    2    1    2    0    0  0.58780889123E+01 -0.16607435136E+02 -0.14173892909E+03  0.17035570858E+03  0.92848180350E+02 0.  0.
          5    1    3    3  502    0 -0.16966759849E+01  0.70973547641E+02 -0.50355777895E+03  0.50855484691E+03  0.41800000000E+01 0. -1.
         -5    1    3    3    0  502 -0.41814129274E+01 -0.54366112505E+02 -0.46610236441E+03  0.46929952579E+03  0.41800000000E+01 0. -1.
        -11    1    4    4    0    0  0.18407944900E+02 -0.40722502064E+02 -0.26500460432E+02  0.51956222081E+02  0.00000000000E+00 0.  1.
         11    1    4    4    0    0 -0.12529855987E+02  0.24115066928E+02 -0.11523846866E+03  0.11839948650E+03  0.00000000000E+00 0. -1.
</event>
<event>
 8    1  0.6840084E-009  0.8757638E+02  0.7561462E-02  0.1308829E+00
         -1   -1    0    0    0  501 -0.00000000000E+00  0.00000000000E+00  0.31597490522E+02  0.31597490522E+02  0.00000000000E+00 0.  1.
          1   -1    0    0  501    0  0.00000000000E+00 -0.00000000000E+00 -0.49961033011E+03  0.49961033011E+03  0.00000000000E+00 0. -1.
         25    2    1    2    0    0  0.62296646119E+02  0.60501676366E+01 -0.28598389383E+03  0.31835901924E+03  0.12509276940E+03 0.  0.
         23    2    1    2    0    0 -0.62296646119E+02 -0.60501676366E+01 -0.18202894576E+03  0.21284880139E+03  0.90843813838E+02 0.  0.
          5    1    3    3  502    0  0.70836012334E+02  0.20868590347E+02 -0.70578171718E+02  0.10223497166E+03  0.41800000000E+01 0. -1.
         -5    1    3    3    0  502 -0.85393662151E+01 -0.14818422710E+02 -0.21540572211E+03  0.21612404759E+03  0.41800000000E+01 0. -1.
        -11    1    4    4    0    0 -0.24869520133E+02 -0.30137641198E+02 -0.18242581399E+02  0.43122641671E+02  0.00000000000E+00 0.  1.
         11    1    4    4    0    0 -0.37427125986E+02  0.24087473561E+02 -0.16378636436E+03  0.16972615972E+03  0.00000000000E+00 0. -1.
</event>
<event>
 8    1  0.6840084E-009  0.1226494E+03  0.7561462E-02  0.1238789E+00
         -4   -1    0    0    0  501 -0.00000000000E+00  0.00000000000E+00  0.11465231226E+02  0.11465231226E+02  0.00000000000E+00 0.  1.
          4   -1    0    0  501    0  0.00000000000E+00 -0.00000000000E+00 -0.13586414246E+04  0.13586414246E+04  0.00000000000E+00 0. -1.
         25    2    1    2    0    0  0.54348696025E+02 -0.29224649500E+02 -0.78057148292E+03  0.79293586405E+03  0.12509030203E+03 0.  0.
         23    2    1    2    0    0 -0.54348696025E+02  0.29224649500E+02 -0.56660471046E+03  0.57717079177E+03  0.90980020142E+02 0.  0.
          5    1    3    3  502    0  0.90368867715E+02 -0.40334722896E+02 -0.49097855103E+03  0.50087007507E+03  0.41800000000E+01 0. -1.
         -5    1    3    3    0  502 -0.36020171690E+02  0.11110073395E+02 -0.28959293188E+03  0.29206578899E+03  0.41800000000E+01 0. -1.
        -11    1    4    4    0    0 -0.38940224558E+02 -0.28706578248E+02 -0.20499788141E+03  0.21062891565E+03  0.00000000000E+00 0.  1.
         11    1    4    4    0    0 -0.15408471468E+02  0.57931227748E+02 -0.36160682904E+03  0.36654187612E+03  0.00000000000E+00 0. -1.
</event>
<event>
 8    1  0.6840084E-009  0.1199960E+03  0.7561462E-02  0.1243104E+00
         -1   -1    0    0    0  501 -0.00000000000E+00  0.00000000000E+00  0.11082930593E+03  0.11082930593E+03  0.00000000000E+00 0.  1.
          1   -1    0    0  501    0  0.00000000000E+00 -0.00000000000E+00 -0.21405101646E+03  0.21405101646E+03  0.00000000000E+00 0. -1.
         25    2    1    2    0    0 -0.71666851123E+02  0.61236685964E+02 -0.10669356359E+03  0.18951290177E+03  0.12508218966E+03 0.  0.
         23    2    1    2    0    0  0.71666851123E+02 -0.61236685964E+02  0.34718530544E+01  0.13536742062E+03  0.97088699361E+02 0.  0.
          5    1    3    3  502    0 -0.35299740190E+02  0.58100602011E+02 -0.12946427321E+03  0.14628814733E+03  0.41800000000E+01 0. -1.
         -5    1    3    3    0  502 -0.36367110933E+02  0.31360839536E+01  0.22770709620E+02  0.43224754444E+02  0.41800000000E+01 0. -1.
        -11    1    4    4    0    0  0.31272365832E+02 -0.83395678787E+02  0.56274437002E+01  0.89243869413E+02  0.00000000000E+00 0. -1.
         11    1    4    4    0    0  0.40394485291E+02  0.22158992823E+02 -0.21555906459E+01  0.46123551206E+02  0.00000000000E+00 0.  1.
</event>
<event>
 8    1  0.6840084E-009  0.1051674E+03  0.7561462E-02  0.1269790E+00
          1   -1    0    0  501    0  0.00000000000E+00  0.00000000000E+00  0.60072768760E+03  0.60072768760E+03  0.00000000000E+00 0. -1.
         -1   -1    0    0    0  501 -0.00000000000E+00 -0.00000000000E+00 -0.29228379412E+02  0.29228379412E+02  0.00000000000E+00 0.  1.
         25    2    1    2    0    0  0.71030311187E+02 -0.24337246011E+02  0.29416145139E+03  0.32835311268E+03  0.12508877037E+03 0.  0.
         23    2    1    2    0    0 -0.71030311187E+02  0.24337246011E+02  0.27733785680E+03  0.30160295433E+03  0.91708497950E+02 0.  0.
          5    1    3    3  502    0  0.23927666990E+01 -0.58333680958E+02  0.19119340428E+03  0.19995232908E+03  0.41800000000E+01 0. -1.
         -5    1    3    3    0  502  0.68637544488E+02  0.33996434947E+02  0.10296804711E+03  0.12840078359E+03  0.41800000000E+01 0. -1.
        -11    1    4    4    0    0 -0.27676487885E+02  0.10090538982E+02  0.11096890409E+02  0.31479325522E+02  0.00000000000E+00 0.  1.
         11    1    4    4    0    0 -0.43353823302E+02  0.14246707029E+02  0.26624096639E+03  0.27012362881E+03  0.00000000000E+00 0. -1.
</event>
<event>
 8    1  0.6840084E-009  0.1120502E+03  0.7561462E-02  0.1256820E+00
         -1   -1    0    0    0  501 -0.00000000000E+00  0.00000000000E+00  0.73965555334E+02  0.73965555334E+02  0.00000000000E+00 0.  1.
          1   -1    0    0  501    0  0.00000000000E+00 -0.00000000000E+00 -0.21023428363E+03  0.21023428363E+03  0.00000000000E+00 0. -1.
         25    2    1    2    0    0  0.37023144802E+02  0.35142278014E+02 -0.11362651872E+03  0.17653322531E+03  0.12508917190E+03 0.  0.
         23    2    1    2    0    0 -0.37023144802E+02 -0.35142278014E+02 -0.22642209573E+02  0.10766661365E+03  0.92052903732E+02 0.  0.
          5    1    3    3  502    0  0.63216958526E+02  0.66966326853E+02 -0.90030470384E+02  0.12885585270E+03  0.41800000000E+01 0. -1.
         -5    1    3    3    0  502 -0.26193813724E+02 -0.31824048839E+02 -0.23596048337E+02  0.47677372610E+02  0.41800000000E+01 0. -1.
        -11    1    4    4    0    0 -0.40943407218E+02  0.12401036609E+02 -0.38338992895E+02  0.57445858683E+02  0.00000000000E+00 0. -1.
         11    1    4    4    0    0  0.39202624162E+01 -0.47543314623E+02  0.15696783323E+02  0.50220754967E+02  0.00000000000E+00 0.  1.
</event>
<event>
 8    1  0.6840084E-009  0.1945092E+03  0.7561462E-02  0.1154456E+00
          1   -1    0    0  501    0  0.00000000000E+00  0.00000000000E+00  0.31372030233E+03  0.31372030233E+03  0.00000000000E+00 0. -1.
         -1   -1    0    0    0  501 -0.00000000000E+00 -0.00000000000E+00 -0.15369659137E+03  0.15369659137E+03  0.00000000000E+00 0.  1.
         25    2    1    2    0    0 -0.50471011519E+02 -0.17784235911E+03  0.34375934577E+02  0.22583558978E+03  0.12507909911E+03 0.  0.
         23    2    1    2    0    0  0.50471011519E+02  0.17784235911E+03  0.12564777638E+03  0.24158130392E+03  0.91645703646E+02 0.  0.
          5    1    3    3  502    0 -0.49959196195E+02 -0.78623813012E+02 -0.40300228289E+02  0.10158349304E+03  0.41800000000E+01 0.  1.
         -5    1    3    3    0  502 -0.51181532389E+00 -0.99218546095E+02  0.74676162866E+02  0.12425209674E+03  0.41800000000E+01 0.  1.
        -11    1    4    4    0    0 -0.10371625009E+02  0.83901762252E+02  0.91474610808E+02  0.12455794128E+03  0.00000000000E+00 0. -1.
         11    1    4    4    0    0  0.60842636528E+02  0.93940596855E+02  0.34173165576E+02  0.11702336264E+03  0.00000000000E+00 0.  1.
</event>
<event>
 7    1  0.6840084E-009  0.1163141E+03  0.7561462E-02  0.1249305E+00
         -2   -1    0    0    0  501 -0.00000000000E+00  0.00000000000E+00  0.10071712708E+03  0.10071712708E+03  0.00000000000E+00 0. -1.
          2   -1    0    0  501    0  0.00000000000E+00 -0.00000000000E+00 -0.22347997740E+03  0.22347997740E+03  0.00000000000E+00 0.  1.
         23    2    1    2    0    0  0.30953916978E+02  0.51972418277E+02 -0.14644045801E+03  0.18330844730E+03  0.92184065188E+02 0.  0.
          5    1    1    2  502    0  0.40712321196E+02  0.81769593054E+00 -0.15203847240E+02  0.43666819150E+02  0.41800000000E+01 0. -1.
         -5    1    1    2    0  502 -0.71666238174E+02 -0.52790114208E+02  0.38881454928E+02  0.97221838027E+02  0.41800000000E+01 0. -1.
        -11    1    3    3    0    0  0.28731809284E+02 -0.17127548644E+02 -0.82959384959E+02  0.89449032080E+02  0.00000000000E+00 0.  1.
         11    1    3    3    0    0  0.22221076942E+01  0.69099966922E+02 -0.63481073047E+02  0.93859415225E+02  0.00000000000E+00 0. -1.
</event>
<event>
 8    1  0.6840084E-009  0.1419214E+03  0.7561462E-02  0.1210767E+00
          1   -1    0    0  501    0  0.00000000000E+00  0.00000000000E+00  0.62979305373E+02  0.62979305373E+02  0.00000000000E+00 0. -1.
         -1   -1    0    0    0  501 -0.00000000000E+00 -0.00000000000E+00 -0.55419684372E+03  0.55419684372E+03  0.00000000000E+00 0.  1.
         25    2    1    2    0    0 -0.11988299373E+03 -0.48955157578E+02 -0.12658819018E+03  0.22009292543E+03  0.12509111196E+03 0.  0.
         23    2    1    2    0    0  0.11988299373E+03  0.48955157578E+02 -0.36462934817E+03  0.39708322366E+03  0.89173904987E+02 0.  0.
          5    1    3    3  502    0 -0.46768168457E+02 -0.50559625111E+02 -0.12955196808E+03  0.14678120488E+03  0.41800000000E+01 0.  1.
         -5    1    3    3    0  502 -0.73114825271E+02  0.16044675334E+01  0.29637779024E+01  0.73311720550E+02  0.41800000000E+01 0.  1.
        -11    1    4    4    0    0  0.50489895279E+02  0.51539951138E+02 -0.27144751136E+03  0.28087247553E+03  0.00000000000E+00 0.  1.
         11    1    4    4    0    0  0.69393098449E+02 -0.25847935604E+01 -0.93181836810E+02  0.11621074813E+03  0.00000000000E+00 0. -1.
</event>
<event>
 8    1  0.6840084E-009  0.9099794E+02  0.7561462E-02  0.1300453E+00
          1   -1    0    0  501    0  0.00000000000E+00  0.00000000000E+00  0.40136134777E+03  0.40136134777E+03  0.00000000000E+00 0. -1.
         -1   -1    0    0    0  501 -0.00000000000E+00 -0.00000000000E+00 -0.54943475927E+02  0.54943475927E+02  0.00000000000E+00 0.  1.
         25    2    1    2    0    0  0.12046637360E+02 -0.22098511491E+02  0.36280183329E+02  0.13265303398E+03  0.12508840889E+03 0.  0.
         23    2    1    2    0    0 -0.12046637360E+02  0.22098511491E+02  0.31013768851E+03  0.32365178972E+03  0.89059696104E+02 0.  0.
          5    1    3    3  502    0 -0.16310502552E+02  0.27499016919E+02 -0.30697082315E+02  0.44519789843E+02  0.41800000000E+01 0.  1.
         -5    1    3    3    0  502  0.28357139911E+02 -0.49597528410E+02  0.66977265644E+02  0.88133244133E+02  0.41800000000E+01 0.  1.
        -11    1    4    4    0    0  0.37053537910E+02 -0.32753100685E+01  0.11818492963E+03  0.12390064536E+03  0.00000000000E+00 0.  1.
         11    1    4    4    0    0 -0.49100175269E+02  0.25373821559E+02  0.19195275888E+03  0.19975114436E+03  0.00000000000E+00 0. -1.
</event>
<event>
 8    1  0.6840084E-009  0.1651023E+03  0.7561462E-02  0.1183054E+00
         -2   -1    0    0    0  501 -0.00000000000E+00  0.00000000000E+00  0.27825923695E+03  0.27825923695E+03  0.00000000000E+00 0.  1.
          2   -1    0    0  501    0  0.00000000000E+00 -0.00000000000E+00 -0.13025909789E+03  0.13025909789E+03  0.00000000000E+00 0. -1.
         25    2    1    2    0    0 -0.91452294661E+02  0.81919809127E+02 -0.22523031919E+02  0.17672065682E+03  0.12509406962E+03 0.  0.
         23    2    1    2    0    0  0.91452294661E+02 -0.81919809127E+02  0.17052317098E+03  0.23179767802E+03  0.97865389004E+02 0.  0.
          5    1    3    3  502    0 -0.86092100654E+02 -0.64794798042E+01 -0.70875272278E+01  0.86726806097E+02  0.41800000000E+01 0. -1.
         -5    1    3    3    0  502 -0.53601940073E+01  0.88399288931E+02 -0.15435504691E+02  0.89993850726E+02  0.41800000000E+01 0. -1.
        -11    1    4    4    0    0  0.61582651470E+02 -0.10197676331E+03  0.11461221436E+03  0.16531074647E+03  0.00000000000E+00 0.  1.
         11    1    4    4    0    0  0.29869643191E+02  0.20056954187E+02  0.55910956629E+02  0.66486931549E+02  0.00000000000E+00 0. -1.
</event>
<event>
 8    1  0.6840084E-009  0.1553480E+03  0.7561462E-02  0.1194051E+00
         -2   -1    0    0    0  501 -0.00000000000E+00  0.00000000000E+00  0.71363716251E+02  0.71363716251E+02  0.00000000000E+00 0.  1.
          2   -1    0    0  501    0  0.00000000000E+00 -0.00000000000E+00 -0.41662501421E+03  0.41662501421E+03  0.00000000000E+00 0. -1.
         25    2    1    2    0    0 -0.91012267416E+02  0.84424387446E+02 -0.24820795152E+03  0.30440982488E+03  0.12508974486E+03 0.  0.
         23    2    1    2    0    0  0.91012267416E+02 -0.84424387446E+02 -0.97053346441E+02  0.18357890558E+03  0.94186795808E+02 0.  0.
          5    1    3    3  502    0  0.28591677378E+02  0.28904895277E+02 -0.35630656669E+02  0.54221703043E+02  0.41800000000E+01 0. -1.
         -5    1    3    3    0  502 -0.11960394479E+03  0.55519492168E+02 -0.21257729485E+03  0.25018812184E+03  0.41800000000E+01 0. -1.
        -11    1    4    4    0    0  0.35950460197E+02  0.13437443691E+01  0.83770868407E+01  0.36938013228E+02  0.00000000000E+00 0.  1.
         11    1    4    4    0    0  0.55061807220E+02 -0.85768131815E+02 -0.10543043328E+03  0.14664089236E+03  0.00000000000E+00 0. -1.
</event>
<event>
 8    1  0.6840084E-009  0.1354041E+03  0.7561462E-02  0.1219650E+00
         -2   -1    0    0    0  501 -0.00000000000E+00  0.00000000000E+00  0.64933165418E+02  0.64933165418E+02  0.00000000000E+00 0.  1.
          2   -1    0    0  501    0  0.00000000000E+00 -0.00000000000E+00 -0.40343229604E+03  0.40343229604E+03  0.00000000000E+00 0. -1.
         25    2    1    2    0    0  0.58589387057E+02  0.99863679049E+02 -0.14021671740E+03  0.22071267866E+03  0.12509151855E+03 0.  0.
         23    2    1    2    0    0 -0.58589387057E+02 -0.99863679049E+02 -0.19828241322E+03  0.24765278280E+03  0.92792859462E+02 0.  0.
          5    1    3    3  502    0  0.86894462586E+02  0.58960043248E+02 -0.13417212747E+03  0.17043053282E+03  0.41800000000E+01 0.  1.
         -5    1    3    3    0  502 -0.28305075530E+02  0.40903635800E+02 -0.60445899302E+01  0.50282145836E+02  0.41800000000E+01 0.  1.
        -11    1    4    4    0    0 -0.29247507597E+02 -0.47935000364E+02 -0.17472078925E+03  0.18352257397E+03  0.00000000000E+00 0. -1.
         11    1    4    4    0    0 -0.29341879460E+02 -0.51928678685E+02 -0.23561623967E+02  0.64130208827E+02  0.00000000000E+00 0.  1.
</event>
<event>
 8    1  0.6840084E-009  0.7372089E+02  0.7561462E-02  0.1347878E+00
         -1   -1    0    0    0  501 -0.00000000000E+00  0.00000000000E+00  0.92452930584E+02  0.92452930584E+02  0.00000000000E+00 0.  1.
          1   -1    0    0  501    0  0.00000000000E+00 -0.00000000000E+00 -0.14048840490E+03  0.14048840490E+03  0.00000000000E+00 0. -1.
         25    2    1    2    0    0  0.10834748120E+02 -0.25738502555E+02 -0.69583230109E+01  0.12835516966E+03  0.12508704585E+03 0.  0.
         23    2    1    2    0    0 -0.10834748120E+02  0.25738502555E+02 -0.41077151305E+02  0.10458616582E+03  0.92038423724E+02 0.  0.
          5    1    3    3  502    0  0.25043498968E+02 -0.59767975258E+02 -0.41981418235E+02  0.77325930864E+02  0.41800000000E+01 0. -1.
         -5    1    3    3    0  502 -0.14208750848E+02  0.34029472702E+02  0.35023095224E+02  0.51029238796E+02  0.41800000000E+01 0. -1.
        -11    1    4    4    0    0 -0.98143003085E+01 -0.73661750609E+01 -0.63444578275E+02  0.64620395681E+02  0.00000000000E+00 0. -1.
         11    1    4    4    0    0 -0.10204478115E+01  0.33104677616E+02  0.22367426969E+02  0.39965770142E+02  0.00000000000E+00 0.  1.
</event>
<event>
 8    1  0.6840084E-009  0.1371855E+03  0.7561462E-02  0.1217167E+00
         -3   -1    0    0    0  501 -0.00000000000E+00  0.00000000000E+00  0.72986984065E+02  0.72986984065E+02  0.00000000000E+00 0.  1.
          3   -1    0    0  501    0  0.00000000000E+00 -0.00000000000E+00 -0.35291254237E+03  0.35291254237E+03  0.00000000000E+00 0. -1.
         25    2    1    2    0    0 -0.11582957040E+03  0.14858803726E+02 -0.15256235853E+03  0.22925909022E+03  0.12508870366E+03 0.  0.
         23    2    1    2    0    0  0.11582957040E+03 -0.14858803726E+02 -0.12736319978E+03  0.19664043621E+03  0.93855223973E+02 0.  0.
          5    1    3    3  502    0 -0.49237849412E+01 -0.21035340828E+02  0.13877369783E+02  0.26015053604E+02  0.41800000000E+01 0. -1.
         -5    1    3    3    0  502 -0.11090578546E+03  0.35894144554E+02 -0.16643972831E+03  0.20324403662E+03  0.41800000000E+01 0. -1.
        -11    1    4    4    0    0 -0.56383738790E+01 -0.13077131484E+02  0.66882053143E+01  0.15733236100E+02  0.00000000000E+00 0.  1.
         11    1    4    4    0    0  0.12146794428E+03 -0.17816722423E+01 -0.13405140510E+03  0.18090720011E+03  0.00000000000E+00 0. -1.
</event>
<event>
 8    1  0.6840084E-009  0.1454159E+03  0.7561462E-02  0.1206222E+00
         -3   -1    0    0    0  501 -0.00000000000E+00  0.00000000000E+00  0.14234755052E+04  0.14234755052E+04  0.00000000000E+00 0.  1.
          3   -1    0    0  501    0  0.00000000000E+00 -0.00000000000E+00 -0.20412105675E+02  0.20412105675E+02  0.00000000000E+00 0. -1.
         25    2    1    2    0    0 -0.11000881162E+03  0.43701250832E+02  0.98608650267E+03  0.10010120243E+04  0.12508694585E+03 0.  0.
         23    2    1    2    0    0  0.11000881162E+03 -0.43701250832E+02  0.41697689686E+03  0.44287558661E+03  0.90869768037E+02 0.  0.
          5    1    3    3  502    0  0.15108163075E+02  0.88731110390E+01  0.41241645233E+03  0.41280963075E+03  0.41800000000E+01 0. -1.
         -5    1    3    3    0  502 -0.12511697470E+03  0.34828139793E+02  0.57367005034E+03  0.58820239351E+03  0.41800000000E+01 0. -1.
        -11    1    4    4    0    0  0.10095325470E+03 -0.28064089429E+01  0.34623691162E+03  0.36066526660E+03  0.00000000000E+00 0.  1.
         11    1    4    4    0    0  0.90555569231E+01 -0.40894841890E+02  0.70739985245E+02  0.82210320014E+02  0.00000000000E+00 0. -1.
</event>
<event>
 8    1  0.6840084E-009  0.1544461E+03  0.7561462E-02  0.1195114E+00
         -2   -1    0    0    0  501 -0.00000000000E+00  0.00000000000E+00  0.25862655078E+03  0.25862655078E+03  0.00000000000E+00 0. -1.
          2   -1    0    0  501    0  0.00000000000E+00 -0.00000000000E+00 -0.13238120826E+03  0.13238120826E+03  0.00000000000E+00 0.  1.
         25    2    1    2    0    0 -0.75356369065E+02  0.10874715672E+03  0.14231504958E+03  0.23109725685E+03  0.12509133595E+03 0.  0.
         23    2    1    2    0    0  0.75356369065E+02 -0.10874715672E+03 -0.16069707067E+02  0.15991050220E+03  0.88366321490E+02 0.  0.
          5    1    3    3  502    0 -0.96814062658E+02  0.56078835757E+02  0.13210129568E+03  0.17316472871E+03  0.41800000000E+01 0.  1.
         -5    1    3    3    0  502  0.21457693593E+02  0.52668320964E+02  0.10213753898E+02  0.57932528136E+02  0.41800000000E+01 0.  1.
        -11    1    4    4    0    0  0.32296954991E+02 -0.84561489403E+02  0.26916356068E+02  0.94436375490E+02  0.00000000000E+00 0. -1.
         11    1    4    4    0    0  0.43059414074E+02 -0.24185667319E+02 -0.42986063135E+02  0.65474126706E+02  0.00000000000E+00 0.  1.
</event>
<event>
 8    1  0.6840084E-009  0.1477683E+03  0.7561462E-02  0.1203242E+00
         -3   -1    0    0    0  501 -0.00000000000E+00  0.00000000000E+00  0.19585337453E+03  0.19585337453E+03  0.00000000000E+00 0.  1.
          3   -1    0    0  501    0  0.00000000000E+00 -0.00000000000E+00 -0.12263893206E+03  0.12263893206E+03  0.00000000000E+00 0. -1.
         25    2    1    2    0    0 -0.90527729386E+02  0.60601796996E+02  0.19290797546E+02  0.16699426853E+03  0.12508838182E+03 0.  0.
         23    2    1    2    0    0  0.90527729386E+02 -0.60601796996E+02  0.53923644922E+02  0.15149803805E+03  0.90421504435E+02 0.  0.
          5    1    3    3  502    0 -0.16148418509E+02 -0.32008676906E+02 -0.20679512842E+02  0.41598575324E+02  0.41800000000E+01 0.  1.
         -5    1    3    3    0  502 -0.74379310878E+02  0.92610473902E+02  0.39970310388E+02  0.12539569321E+03  0.41800000000E+01 0.  1.
        -11    1    4    4    0    0  0.95888809912E+02 -0.17893460394E+02  0.45517179518E+02  0.10764131838E+03  0.00000000000E+00 0.  1.
         11    1    4    4    0    0 -0.53610805256E+01 -0.42708336602E+02  0.84064654047E+01  0.43856719671E+02  0.00000000000E+00 0. -1.
</event>
<event>
 8    1  0.6840084E-009  0.6079080E+02  0.7561462E-02  0.1394543E+00
          1   -1    0    0  501    0  0.00000000000E+00  0.00000000000E+00  0.19941074676E+03  0.19941074676E+03  0.00000000000E+00 0. -1.
         -1   -1    0    0    0  501 -0.00000000000E+00 -0.00000000000E+00 -0.68707440941E+02  0.68707440941E+02  0.00000000000E+00 0.  1.
         25    2    1    2    0    0 -0.31007514199E+02 -0.28114835669E+02  0.56930140200E+02  0.14366416262E+03  0.12508573394E+03 0.  0.
         23    2    1    2    0    0  0.31007514199E+02  0.28114835669E+02  0.73773165620E+02  0.12445402508E+03  0.91073676069E+02 0.  0.
          5    1    3    3  502    0 -0.15283831295E+02  0.92254881791E+01  0.89595750094E+02  0.91452588624E+02  0.41800000000E+01 0. -1.
         -5    1    3    3    0  502 -0.15723682904E+02 -0.37340323848E+02 -0.32665609894E+02  0.52211573994E+02  0.41800000000E+01 0. -1.
        -11    1    4    4    0    0  0.95320326528E+01 -0.13005775076E+02 -0.16429994300E+02  0.23020741616E+02  0.00000000000E+00 0.  1.
         11    1    4    4    0    0  0.21475481546E+02  0.41120610745E+02  0.90203159921E+02  0.10143328347E+03  0.00000000000E+00 0. -1.
</event>
<event>
 8    1  0.6840084E-009  0.9285597E+02  0.7561462E-02  0.1296079E+00
         -3   -1    0    0    0  501 -0.00000000000E+00  0.00000000000E+00  0.28708470855E+03  0.28708470855E+03  0.00000000000E+00 0.  1.
          3   -1    0    0  501    0  0.00000000000E+00 -0.00000000000E+00 -0.42284893531E+02  0.42284893531E+02  0.00000000000E+00 0. -1.
         25    2    1    2    0    0 -0.76445086599E+01  0.17567526795E+02  0.15291183260E+03  0.19848649053E+03  0.12509117421E+03 0.  0.
         23    2    1    2    0    0  0.76445086599E+01 -0.17567526795E+02  0.91887982422E+02  0.13088311155E+03  0.91213656132E+02 0.  0.
          5    1    3    3  502    0 -0.46643132868E+02  0.53568751745E+02  0.10515861702E+03  0.12696850058E+03  0.41800000000E+01 0. -1.
         -5    1    3    3    0  502  0.38998624208E+02 -0.36001224950E+02  0.47753215580E+02  0.71517989948E+02  0.41800000000E+01 0. -1.
        -11    1    4    4    0    0  0.12557204363E+02  0.19900563387E+02  0.90023794797E+02  0.93048371475E+02  0.00000000000E+00 0.  1.
         11    1    4    4    0    0 -0.49126957027E+01 -0.37468090183E+02  0.18641876252E+01  0.37834740074E+02  0.00000000000E+00 0. -1.
</event>
<event>
 8    1  0.6840084E-009  0.2224195E+03  0.7561462E-02  0.1132092E+00
          1   -1    0    0  501    0  0.00000000000E+00  0.00000000000E+00  0.56287340425E+03  0.56287340425E+03  0.00000000000E+00 0. -1.
         -1   -1    0    0    0  501 -0.00000000000E+00 -0.00000000000E+00 -0.10138817770E+03  0.10138817770E+03  0.00000000000E+00 0.  1.
         25    2    1    2    0    0  0.20952237152E+03  0.35623917072E+02  0.24506686716E+03  0.34767037073E+03  0.12509288416E+03 0.  0.
         23    2    1    2    0    0 -0.20952237152E+03 -0.35623917072E+02  0.21641835940E+03  0.31659121123E+03  0.90688483857E+02 0.  0.
          5    1    3    3  502    0  0.23009428195E+02 -0.25883085295E+01 -0.13051251587E+02  0.26906146043E+02  0.41800000000E+01 0. -1.
         -5    1    3    3    0  502  0.18651294333E+03  0.38212225601E+02  0.25811811874E+03  0.32076422468E+03  0.41800000000E+01 0. -1.
        -11    1    4    4    0    0 -0.15260444194E+03 -0.66110149307E+02  0.16161048173E+03  0.23189785541E+03  0.00000000000E+00 0. -1.
         11    1    4    4    0    0 -0.56917929578E+02  0.30486232235E+02  0.54807877674E+02  0.84693355810E+02  0.00000000000E+00 0.  1.
</event>
<event>
 8    1  0.6840084E-009  0.1152257E+03  0.7561462E-02  0.1251188E+00
          1   -1    0    0  501    0  0.00000000000E+00  0.00000000000E+00  0.26507034973E+03  0.26507034973E+03  0.00000000000E+00 0. -1.
         -1   -1    0    0    0  501 -0.00000000000E+00 -0.00000000000E+00 -0.59454084075E+02  0.59454084075E+02  0.00000000000E+00 0.  1.
         25    2    1    2    0    0 -0.10337939579E+02 -0.60232902347E+02  0.10089131265E+03  0.17193197897E+03  0.12508666157E+03 0.  0.
         23    2    1    2    0    0  0.10337939579E+02  0.60232902347E+02  0.10472495300E+03  0.15259245483E+03  0.92640520143E+02 0.  0.
          5    1    3    3  502    0  0.16580530470E+02 -0.92542190418E+02  0.84904132190E+02  0.12674839274E+03  0.41800000000E+01 0. -1.
         -5    1    3    3    0  502 -0.26918470049E+02  0.32309288071E+02  0.15987180464E+02  0.45183586231E+02  0.41800000000E+01 0. -1.
        -11    1    4    4    0    0  0.41081626134E+02  0.29221985989E+02  0.14664833634E+02  0.52504112377E+02  0.00000000000E+00 0.  1.
         11    1    4    4    0    0 -0.30743686555E+02  0.31010916357E+02  0.90060119363E+02  0.10008834246E+03  0.00000000000E+00 0. -1.
</event>
<event>
 8    1  0.6840084E-009  0.8965701E+02  0.7561462E-02  0.1303684E+00
         -1   -1    0    0    0  501 -0.00000000000E+00  0.00000000000E+00  0.59038328988E+02  0.59038328988E+02  0.00000000000E+00 0.  1.
          1   -1    0    0  501    0  0.00000000000E+00 -0.00000000000E+00 -0.50932226384E+03  0.50932226384E+03  0.00000000000E+00 0. -1.
         25    2    1    2    0    0 -0.47992352568E+02 -0.16645942354E+02 -0.44442413677E+03  0.46447879573E+03  0.12508950809E+03 0.  0.
         23    2    1    2    0    0  0.47992352568E+02  0.16645942354E+02 -0.58597980741E+01  0.10388179709E+03  0.90425313004E+02 0.  0.
          5    1    3    3  502    0  0.27665961236E+02  0.28543137550E+02 -0.78757033149E+02  0.88319073720E+02  0.41800000000E+01 0.  1.
         -5    1    3    3    0  502 -0.75658313803E+02 -0.45189079904E+02 -0.36566710362E+03  0.37615972201E+03  0.41800000000E+01 0.  1.
        -11    1    4    4    0    0  0.37011918853E+02  0.15325303513E+02 -0.46724985844E+02  0.61546497602E+02  0.00000000000E+00 0. -1.
         11    1    4    4    0    0  0.10980433715E+02  0.13206388413E+01  0.40865187770E+02  0.42335299491E+02  0.00000000000E+00 0.  1.
</event>
<event>
 7    1  0.6840084E-009  0.2205448E+03  0.7561462E-02  0.1133478E+00
          1   -1    0    0  501    0  0.00000000000E+00  0.00000000000E+00  0.33396433625E+02  0.33396433625E+02  0.00000000000E+00 0. -1.
         -1   -1    0    0    0  501 -0.00000000000E+00 -0.00000000000E+00 -0.17642529191E+04  0.17642529191E+04  0.00000000000E+00 0.  1.
         23    2    1    2    0    0  0.14816965467E+02 -0.19734758738E+03 -0.51086336482E+03  0.55537060966E+03  0.91046822294E+02 0.  0.
          5    1    1    2  502    0  0.44280001693E+02  0.11855823777E+03 -0.84992754722E+03  0.85930849072E+03  0.41800000000E+01 0.  1.
         -5    1    1    2    0  502 -0.59096967160E+02  0.78789349611E+02 -0.37006557341E+03  0.38297025232E+03  0.41800000000E+01 0.  1.
        -11    1    3    3    0    0 -0.13596616831E+02  0.26724261959E+01 -0.55485129315E+02  0.57189242224E+02  0.00000000000E+00 0.  1.
         11    1    3    3    0    0  0.28413582298E+02 -0.20002001358E+03 -0.45537823550E+03  0.49818136744E+03  0.00000000000E+00 0. -1.
</event>
<event>
 8    1  0.6840084E-009  0.1843504E+03  0.7561462E-02  0.1163658E+00
         -2   -1    0    0    0  501 -0.00000000000E+00  0.00000000000E+00  0.50534900138E+02  0.50534900138E+02  0.00000000000E+00 0.  1.
          2   -1    0    0  501    0  0.00000000000E+00 -0.00000000000E+00 -0.12607642094E+04  0.12607642094E+04  0.00000000000E+00 0. -1.
         25    2    1    2    0    0  0.59269804685E+02  0.16530367711E+03 -0.99997815414E+03  0.10229573044E+04  0.12508845868E+03 0.  0.
         23    2    1    2    0    0 -0.59269804685E+02 -0.16530367711E+03 -0.21025115510E+03  0.28834180509E+03  0.89984626081E+02 0.  0.
          5    1    3    3  502    0 -0.76645802248E+01  0.80641660902E+00 -0.16175587180E+01  0.89154357143E+01  0.41800000000E+01 0.  1.
         -5    1    3    3    0  502  0.66934384910E+02  0.16449726050E+03 -0.99836059542E+03  0.10140418687E+04  0.41800000000E+01 0.  1.
        -11    1    4    4    0    0 -0.16031856760E+02 -0.11432964085E+03 -0.18253782297E+03  0.21598227710E+03  0.00000000000E+00 0.  1.
         11    1    4    4    0    0 -0.43237947925E+02 -0.50974036266E+02 -0.27713332132E+02  0.72359527997E+02  0.00000000000E+00 0. -1.
</event>
<event>
 8    1  0.6840084E-009  0.1142487E+03  0.7561462E-02  0.1252898E+00
          2   -1    0    0  501    0  0.00000000000E+00  0.00000000000E+00  0.60134264421E+03  0.60134264421E+03  0.00000000000E+00 0. -1.
         -2   -1    0    0    0  501 -0.00000000000E+00 -0.00000000000E+00 -0.24382744859E+02  0.24382744859E+02  0.00000000000E+00 0.  1.
         25    2    1    2    0    0 -0.39782923653E+02 -0.36164739404E+02  0.29758255740E+03  0.32725158405E+03  0.12509057279E+03 0.  0.
         23    2    1    2    0    0  0.39782923653E+02  0.36164739404E+02  0.27937734195E+03  0.29847380503E+03  0.90246017635E+02 0.  0.
          5    1    3    3  502    0 -0.75513455470E+02 -0.56092573324E+02  0.18936855353E+03  0.21148659580E+03  0.41800000000E+01 0.  1.
         -5    1    3    3    0  502  0.35730531817E+02  0.19927833920E+02  0.10821400387E+03  0.11576498824E+03  0.41800000000E+01 0.  1.
        -11    1    4    4    0    0  0.62846540537E+02  0.26602582409E+02  0.25345918739E+03  0.26248608481E+03  0.00000000000E+00 0. -1.
         11    1    4    4    0    0 -0.23063616884E+02  0.95621569947E+01  0.25918154568E+02  0.35987720216E+02  0.00000000000E+00 0.  1.
</event>
<event>
 8    1  0.6840084E-009  0.1236771E+03  0.7561462E-02  0.1237151E+00
          3   -1    0    0  501    0  0.00000000000E+00  0.00000000000E+00  0.76493672141E+02  0.76493672141E+02  0.00000000000E+00 0. -1.
         -3   -1    0    0    0  501 -0.00000000000E+00 -0.00000000000E+00 -0.21675099497E+03  0.21675099497E+03  0.00000000000E+00 0.  1.
         25    2    1    2    0    0  0.54449537654E+02  0.42581350894E+02 -0.82589177679E+02  0.16506402600E+03  0.12508891563E+03 0.  0.
         23    2    1    2    0    0 -0.54449537654E+02 -0.42581350894E+02 -0.57668145149E+02  0.12818064111E+03  0.91250962717E+02 0.  0.
          5    1    3    3  502    0  0.50180450330E+02  0.85385174491E+02 -0.50603003984E+02  0.11129619055E+03  0.41800000000E+01 0. -1.
         -5    1    3    3    0  502  0.42690873237E+01 -0.42803823597E+02 -0.31986173695E+02  0.53767835448E+02  0.41800000000E+01 0. -1.
        -11    1    4    4    0    0 -0.20270212922E+02  0.23242351940E+02  0.47990309754E+01  0.31210881979E+02  0.00000000000E+00 0.  1.
         11    1    4    4    0    0 -0.34179324732E+02 -0.65823702834E+02 -0.62467176124E+02  0.96969759136E+02  0.00000000000E+00 0. -1.
</event>
<event>
 8    1  0.6840084E-009  0.1357960E+03  0.7561462E-02  0.1219100E+00
          1   -1    0    0  501    0  0.00000000000E+00  0.00000000000E+00  0.46086410123E+03  0.46086410123E+03  0.00000000000E+00 0. -1.
         -1   -1    0    0    0  501 -0.00000000000E+00 -0.00000000000E+00 -0.46169438860E+02  0.46169438860E+02  0.00000000000E+00 0.  1.
         25    2    1    2    0    0 -0.91552614056E+02  0.15194989062E+02  0.17735236066E+03  0.23603942876E+03  0.12509189927E+03 0.  0.
         23    2    1    2    0    0  0.91552614056E+02 -0.15194989062E+02  0.23734230170E+03  0.27099411133E+03  0.92161116325E+02 0.  0.
          5    1    3    3  502    0  0.20073424069E+01  0.49087529771E+02  0.94077378074E+02  0.10621506705E+03  0.41800000000E+01 0. -1.
         -5    1    3    3    0  502 -0.93559956463E+02 -0.33892540709E+02  0.83274982589E+02  0.12982436171E+03  0.41800000000E+01 0. -1.
        -11    1    4    4    0    0  0.12357804558E+01 -0.30978301194E+02  0.10861506171E+03  0.11295314926E+03  0.00000000000E+00 0. -1.
         11    1    4    4    0    0  0.90316833601E+02  0.15783312132E+02  0.12872723999E+03  0.15804096206E+03  0.00000000000E+00 0.  1.
</event>
<event>
 8    1  0.6840084E-009  0.1007582E+03  0.7561462E-02  0.1278710E+00
          2   -1    0    0  501    0  0.00000000000E+00  0.00000000000E+00  0.41987216404E+03  0.41987216404E+03  0.00000000000E+00 0. -1.
         -2   -1    0    0    0  501 -0.00000000000E+00 -0.00000000000E+00 -0.74112264803E+02  0.74112264803E+02  0.00000000000E+00 0.  1.
         25    2    1    2    0    0  0.55259925228E+02 -0.35366199370E+02  0.35811878169E+03  0.38496976915E+03  0.12509290133E+03 0.  0.
         23    2    1    2    0    0 -0.55259925228E+02  0.35366199370E+02 -0.12358882456E+02  0.10901465969E+03  0.86180198762E+02 0.  0.
          5    1    3    3  502    0  0.85591665953E+02 -0.15208799000E+02  0.32182007416E+03  0.33338097333E+03  0.41800000000E+01 0.  1.
         -5    1    3    3    0  502 -0.30331740725E+02 -0.20157400370E+02  0.36298707533E+02  0.51588795816E+02  0.41800000000E+01 0.  1.
        -11    1    4    4    0    0 -0.23728037244E+02  0.39444099439E+02 -0.44343666287E+02  0.63915705987E+02  0.00000000000E+00 0.  1.
         11    1    4    4    0    0 -0.31531887984E+02 -0.40779000694E+01  0.31984783831E+02  0.45098953707E+02  0.00000000000E+00 0. -1.
</event>
<event>
 8    1  0.6840084E-009  0.9510279E+02  0.7561462E-02  0.1290945E+00
          1   -1    0    0  501    0  0.00000000000E+00  0.00000000000E+00  0.43296601256E+03  0.43296601256E+03  0.00000000000E+00 0.  1.
         -1   -1    0    0    0  501 -0.00000000000E+00 -0.00000000000E+00 -0.34104166459E+02  0.34104166459E+02  0.00000000000E+00 0. -1.
         25    2    1    2    0    0  0.26941808482E+02 -0.46606555046E+02  0.22237215321E+03  0.26075867663E+03  0.12509069070E+03 0.  0.
         23    2    1    2    0    0 -0.26941808482E+02  0.46606555046E+02  0.17648969290E+03  0.20631150239E+03  0.92291886434E+02 0.  0.
          5    1    3    3  502    0  0.57225117593E+02 -0.14686866411E+02  0.36204502739E+02  0.69416543757E+02  0.41800000000E+01 0.  1.
         -5    1    3    3    0  502 -0.30283309111E+02 -0.31919688636E+02  0.18616765047E+03  0.19134213288E+03  0.41800000000E+01 0.  1.
        -11    1    4    4    0    0 -0.92890847211E+01  0.62403924226E+02  0.58740943067E+02  0.86203452635E+02  0.00000000000E+00 0. -1.
         11    1    4    4    0    0 -0.17652723761E+02 -0.15797369180E+02  0.11774874983E+03  0.12010804975E+03  0.00000000000E+00 0.  1.
</event>
<event>
 8    1  0.6840084E-009  0.1174636E+03  0.7561462E-02  0.1247341E+00
         -4   -1    0    0    0  501 -0.00000000000E+00  0.00000000000E+00  0.56782869245E+03  0.56782869245E+03  0.00000000000E+00 0. -1.
          4   -1    0    0  501    0  0.00000000000E+00 -0.00000000000E+00 -0.25291672055E+02  0.25291672055E+02  0.00000000000E+00 0.  1.
         25    2    1    2    0    0  0.17948880170E+02 -0.12716981379E+02  0.25434840410E+03  0.28429655270E+03  0.12509010870E+03 0.  0.
         23    2    1    2    0    0 -0.17948880170E+02  0.12716981379E+02  0.28818861630E+03  0.30882381181E+03  0.10879147145E+03 0.  0.
          5    1    3    3  502    0  0.24458559542E+02 -0.67353879385E+02  0.13989003409E+03  0.15723059575E+03  0.41800000000E+01 0. -1.
         -5    1    3    3    0  502 -0.65096793714E+01  0.54636898007E+02  0.11445837001E+03  0.12706595695E+03  0.41800000000E+01 0. -1.
        -11    1    4    4    0    0 -0.46485470060E+02 -0.30917927680E+02  0.11295973650E+03  0.12600285413E+03  0.00000000000E+00 0. -1.
         11    1    4    4    0    0  0.28536589890E+02  0.43634909059E+02  0.17522887980E+03  0.18282095768E+03  0.00000000000E+00 0.  1.
</event>
<event>
 8    1  0.6840084E-009  0.9940706E+02  0.7561462E-02  0.1281548E+00
          2   -1    0    0  501    0  0.00000000000E+00  0.00000000000E+00  0.13821294859E+03  0.13821294859E+03  0.00000000000E+00 0. -1.
         -2   -1    0    0    0  501 -0.00000000000E+00 -0.00000000000E+00 -0.13421957939E+03  0.13421957939E+03  0.00000000000E+00 0.  1.
         25    2    1    2    0    0 -0.33651472065E+02 -0.33348384331E+02  0.66187540590E+02  0.14925063811E+03  0.12510166320E+03 0.  0.
         23    2    1    2    0    0  0.33651472065E+02  0.33348384331E+02 -0.62194171387E+02  0.12318188987E+03  0.95189950776E+02 0.  0.
          5    1    3    3  502    0 -0.64505948703E-01 -0.53285482571E+02  0.89006705814E+02  0.10382202509E+03  0.41800000000E+01 0. -1.
         -5    1    3    3    0  502 -0.33586966116E+02  0.19937098240E+02 -0.22819165224E+02  0.45428613017E+02  0.41800000000E+01 0. -1.
        -11    1    4    4    0    0 -0.24145376604E+02  0.41201622412E+02 -0.32168421707E+02  0.57579338793E+02  0.00000000000E+00 0.  1.
         11    1    4    4    0    0  0.57796848669E+02 -0.78532380805E+01 -0.30025749680E+02  0.65602551081E+02  0.00000000000E+00 0. -1.
</event>
<event>
 8    1  0.6840084E-009  0.1218754E+03  0.7561462E-02  0.1240035E+00
          1   -1    0    0  501    0  0.00000000000E+00  0.00000000000E+00  0.13850329531E+03  0.13850329531E+03  0.00000000000E+00 0. -1.
         -1   -1    0    0    0  501 -0.00000000000E+00 -0.00000000000E+00 -0.12040701911E+03  0.12040701911E+03  0.00000000000E+00 0.  1.
         25    2    1    2    0    0 -0.14745197703E+02  0.69620228019E+02  0.76829449009E+01  0.14411721457E+03  0.12508535841E+03 0.  0.
         23    2    1    2    0    0  0.14745197703E+02 -0.69620228019E+02  0.10413331298E+02  0.11479309984E+03  0.89468549210E+02 0.  0.
          5    1    3    3  502    0  0.13217001816E+02 -0.26159081155E+02 -0.25303601601E+02  0.38945234854E+02  0.41800000000E+01 0. -1.
         -5    1    3    3    0  502 -0.27962199519E+02  0.95779309174E+02  0.32986546502E+02  0.10517197972E+03  0.41800000000E+01 0. -1.
        -11    1    4    4    0    0 -0.12154372174E+02 -0.83244818345E+02  0.89879280696E+01  0.84606213691E+02  0.00000000000E+00 0. -1.
         11    1    4    4    0    0  0.26899569876E+02  0.13624590326E+02  0.14254032286E+01  0.30186886150E+02  0.00000000000E+00 0.  1.
</event>
<event>
 8    1  0.6840084E-009  0.1082356E+03  0.7561462E-02  0.1263873E+00
         -2   -1    0    0    0  501 -0.00000000000E+00  0.00000000000E+00  0.38264613693E+02  0.38264613693E+02  0.00000000000E+00 0. -1.
          2   -1    0    0  501    0  0.00000000000E+00 -0.00000000000E+00 -0.33758346283E+03  0.33758346283E+03  0.00000000000E+00 0.  1.
         25    2    1    2    0    0  0.16753035909E+02  0.28031074190E+02 -0.15703733906E+03  0.20340671273E+03  0.12508860697E+03 0.  0.
         23    2    1    2    0    0 -0.16753035909E+02 -0.28031074190E+02 -0.14228151008E+03  0.17244136378E+03  0.91791015366E+02 0.  0.
          5    1    3    3  502    0 -0.48996405408E+02  0.57187272234E+01 -0.10645032551E+03  0.11739887472E+03  0.41800000000E+01 0.  1.
         -5    1    3    3    0  502  0.65749441317E+02  0.22312346967E+02 -0.50587013550E+02  0.86007838019E+02  0.41800000000E+01 0.  1.
        -11    1    4    4    0    0  0.20791728430E+02 -0.49829574760E+02 -0.77152910419E+02  0.94169284154E+02  0.00000000000E+00 0.  1.
         11    1    4    4    0    0 -0.37544764339E+02  0.21798500570E+02 -0.65128599657E+02  0.78272079631E+02  0.00000000000E+00 0. -1.
</event>
<event>
 8    1  0.6840084E-009  0.1144165E+03  0.7561462E-02  0.1252603E+00
         -2   -1    0    0    0  501 -0.00000000000E+00  0.00000000000E+00  0.23502767266E+02  0.23502767266E+02  0.00000000000E+00 0.  1.
          2   -1    0    0  501    0  0.00000000000E+00 -0.00000000000E+00 -0.74847646129E+03  0.74847646129E+03  0.00000000000E+00 0. -1.
         25    2    1    2    0    0  0.60666919080E+02 -0.30364008135E+02 -0.50116647139E+03  0.52097778746E+03  0.12509026711E+03 0.  0.
         23    2    1    2    0    0 -0.60666919080E+02  0.30364008135E+02 -0.22380722264E+03  0.25100144110E+03  0.91157020934E+02 0.  0.
          5    1    3    3  502    0 -0.32036955347E+02 -0.35374905171E+02 -0.20742856275E+03  0.21288924695E+03  0.41800000000E+01 0. -1.
         -5    1    3    3    0  502  0.92703874427E+02  0.50108970351E+01 -0.29373790864E+03  0.30808854051E+03  0.41800000000E+01 0. -1.
        -11    1    4    4    0    0 -0.54864303359E+02 -0.22057227375E+01 -0.50616138925E+02  0.74678983091E+02  0.00000000000E+00 0.  1.
         11    1    4    4    0    0 -0.58026157213E+01  0.32569730873E+02 -0.17319108372E+03  0.17632245801E+03  0.00000000000E+00 0. -1.
</event>
<event>
 8    1  0.6840084E-009  0.1118107E+03  0.7561462E-02  0.1257253E+00
          2   -1    0    0  501    0  0.00000000000E+00  0.00000000000E+00  0.64137041225E+03  0.64137041225E+03  0.00000000000E+00 0. -1.
         -2   -1    0    0    0  501 -0.00000000000E+00 -0.00000000000E+00 -0.29658323013E+02  0.29658323013E+02  0.00000000000E+00 0.  1.
         25    2    1    2    0    0  0.20231534257E+02 -0.81538042481E+02  0.35543796734E+03  0.38605856422E+03  0.12508916433E+03 0.  0.
         23    2    1    2    0    0 -0.20231534257E+02  0.81538042481E+02  0.25627412190E+03  0.28497017104E+03  0.92053275215E+02 0.  0.
          5    1    3    3  502    0  0.30573113400E+02 -0.86602246343E+02  0.12434391967E+03  0.15464005656E+03  0.41800000000E+01 0.  1.
         -5    1    3    3    0  502 -0.10341579143E+02  0.50642038622E+01  0.23109404767E+03  0.23141850766E+03  0.41800000000E+01 0.  1.
        -11    1    4    4    0    0 -0.28968696265E+02 -0.75370211917E+01  0.10518152574E+03  0.10935787767E+03  0.00000000000E+00 0. -1.
         11    1    4    4    0    0  0.87371620086E+01  0.89075063673E+02  0.15109259615E+03  0.17561229336E+03  0.00000000000E+00 0.  1.
</event>
<event>
 8    1  0.6840084E-009  0.8406952E+02  0.7561462E-02  0.1317884E+00
          1   -1    0    0  501    0  0.00000000000E+00  0.00000000000E+00  0.48044421510E+02  0.48044421510E+02  0.00000000000E+00 0. -1.
         -1   -1    0    0    0  501 -0.00000000000E+00 -0.00000000000E+00 -0.25901669823E+03  0.25901669823E+03  0.00000000000E+00 0.  1.
         25    2    1    2    0    0 -0.49850843465E+01  0.84667122575E+01 -0.89859838834E+02  0.15433294728E+03  0.12508929490E+03 0.  0.
         23    2    1    2    0    0  0.49850843465E+01 -0.84667122575E+01 -0.12111243789E+03  0.15272817247E+03  0.92526405803E+02 0.  0.
          5    1    3    3  502    0  0.48046917114E+01 -0.45540048569E+02  0.33260502996E+01  0.46103319801E+02  0.41800000000E+01 0.  1.
         -5    1    3    3    0  502 -0.97897760579E+01  0.54006760826E+02 -0.93185889133E+02  0.10822962748E+03  0.41800000000E+01 0.  1.
        -11    1    4    4    0    0 -0.19039372057E+02 -0.29545854677E+02 -0.91884129852E+01  0.36330182357E+02  0.00000000000E+00 0. -1.
         11    1    4    4    0    0  0.24024456404E+02  0.21079142419E+02 -0.11192402490E+03  0.11639799011E+03  0.00000000000E+00 0.  1.
</event>
<event>
 8    1  0.6840084E-009  0.8182183E+02  0.7561462E-02  0.1323959E+00
          2   -1    0    0  501    0  0.00000000000E+00  0.00000000000E+00  0.15930634888E+03  0.15930634888E+03  0.00000000000E+00 0. -1.
         -2   -1    0    0    0  501 -0.00000000000E+00 -0.00000000000E+00 -0.96342040592E+02  0.96342040592E+02  0.00000000000E+00 0.  1.
         25    2    1    2    0    0  0.30994191314E+02  0.26120068706E+01  0.87854955608E+02  0.15595039389E+03  0.12503827276E+03 0.  0.
         23    2    1    2    0    0 -0.30994191314E+02 -0.26120068706E+01 -0.24890647323E+02  0.99697995577E+02  0.91393016816E+02 0.  0.
          5    1    3    3  502    0  0.10472952571E+02 -0.54209860361E+02  0.83309447504E+01  0.55993470480E+02  0.41800000000E+01 0.  1.
         -5    1    3    3    0  502  0.20521238743E+02  0.56821867232E+02  0.79524010857E+02  0.99956923413E+02  0.41800000000E+01 0.  1.
        -11    1    4    4    0    0 -0.12904509585E+00  0.13086404824E+02 -0.53315162070E+02  0.54897879289E+02  0.00000000000E+00 0.  1.
         11    1    4    4    0    0 -0.30865146218E+02 -0.15698411694E+02  0.28424514747E+02  0.44800116288E+02  0.00000000000E+00 0. -1.
</event>
<event>
 8    1  0.6840084E-009  0.1034086E+03  0.7561462E-02  0.1273287E+00
          1   -1    0    0  501    0  0.00000000000E+00  0.00000000000E+00  0.48073136971E+03  0.48073136971E+03  0.00000000000E+00 0. -1.
         -1   -1    0    0    0  501 -0.00000000000E+00 -0.00000000000E+00 -0.30125836356E+02  0.30125836356E+02  0.00000000000E+00 0.  1.
         25    2    1    2    0    0 -0.47951342710E+01  0.39478954329E+02  0.18186068484E+03  0.22428202197E+03  0.12509010969E+03 0.  0.
         23    2    1    2    0    0  0.47951342710E+01 -0.39478954329E+02  0.26874484852E+03  0.28657518409E+03  0.91213822339E+02 0.  0.
          5    1    3    3  502    0  0.52351586432E+02 -0.17649420840E+01  0.11764186665E+03  0.12884442096E+03  0.41800000000E+01 0. -1.
         -5    1    3    3    0  502 -0.57146720703E+02  0.41243896413E+02  0.64218818184E+02  0.95437601015E+02  0.41800000000E+01 0. -1.
        -11    1    4    4    0    0  0.24425746799E+02 -0.53989974068E+02  0.24658588059E+03  0.25360625172E+03  0.00000000000E+00 0. -1.
         11    1    4    4    0    0 -0.19630612528E+02  0.14511019739E+02  0.22158967931E+02  0.32968932374E+02  0.00000000000E+00 0.  1.
</event>
<event>
 8    1  0.6840084E-009  0.1092733E+03  0.7561462E-02  0.1261921E+00
          1   -1    0    0  501    0  0.00000000000E+00  0.00000000000E+00  0.29933979908E+02  0.29933979908E+02  0.00000000000E+00 0. -1.
         -1   -1    0    0    0  501 -0.00000000000E+00 -0.00000000000E+00 -0.51565873784E+03  0.51565873784E+03  0.00000000000E+00 0.  1.
         25    2    1    2    0    0 -0.30736387573E+02  0.94136987436E+01 -0.15857458026E+03  0.20451520403E+03  0.12508888012E+03 0.  0.
         23    2    1    2    0    0  0.30736387573E+02 -0.94136987436E+01 -0.32715017767E+03  0.34107751372E+03  0.90957618542E+02 0.  0.
          5    1    3    3  502    0  0.24894117096E+02  0.48413062264E+02 -0.39607650589E+02  0.67452057411E+02  0.41800000000E+01 0. -1.
         -5    1    3    3    0  502 -0.55630504669E+02 -0.38999363521E+02 -0.11896692967E+03  0.13706314662E+03  0.41800000000E+01 0. -1.
        -11    1    4    4    0    0  0.43717846195E+02  0.30895243662E+02 -0.20113463776E+03  0.20813675471E+03  0.00000000000E+00 0. -1.
         11    1    4    4    0    0 -0.12981458622E+02 -0.40308942406E+02 -0.12601553992E+03  0.13294075901E+03  0.00000000000E+00 0.  1.
</event>
<event>
 8    1  0.6840084E-009  0.1557682E+03  0.7561462E-02  0.1193559E+00
         -1   -1    0    0    0  501 -0.00000000000E+00  0.00000000000E+00  0.65947044590E+02  0.65947044590E+02  0.00000000000E+00 0.  1.
          1   -1    0    0  501    0  0.00000000000E+00 -0.00000000000E+00 -0.46472456008E+03  0.46472456008E+03  0.00000000000E+00 0. -1.
         25    2    1    2    0    0 -0.51091940998E+02  0.10538328926E+03 -0.31506072999E+03  0.35864396522E+03  0.12508479570E+03 0.  0.
         23    2    1    2    0    0  0.51091940998E+02 -0.10538328926E+03 -0.83716785504E+02  0.17202763946E+03  0.94175285884E+02 0.  0.
          5    1    3    3  502    0 -0.68848462851E+02  0.16630046631E+02 -0.81130452666E+02  0.10777890349E+03  0.41800000000E+01 0.  1.
         -5    1    3    3    0  502  0.17756521853E+02  0.88753242631E+02 -0.23393027732E+03  0.25086506173E+03  0.41800000000E+01 0.  1.
        -11    1    4    4    0    0  0.51412559031E+02 -0.73418405137E+01 -0.34272206561E+02  0.62223291385E+02  0.00000000000E+00 0.  1.
         11    1    4    4    0    0 -0.32061803282E+00 -0.98041448749E+02 -0.49444578943E+02  0.10980434807E+03  0.00000000000E+00 0. -1.
</event>
<event>
 8    1  0.6840084E-009  0.3512654E+03  0.7561462E-02  0.1062097E+00
          1   -1    0    0  501    0  0.00000000000E+00  0.00000000000E+00  0.61434987808E+03  0.61434987808E+03  0.00000000000E+00 0. -1.
         -1   -1    0    0    0  501 -0.00000000000E+00 -0.00000000000E+00 -0.20778031873E+03  0.20778031873E+03  0.00000000000E+00 0.  1.
         25    2    1    2    0    0 -0.17619919931E+03  0.28750031400E+03  0.15157005023E+03  0.39028697473E+03  0.12509138312E+03 0.  0.
         23    2    1    2    0    0  0.17619919931E+03 -0.28750031400E+03  0.25499950912E+03  0.43184322208E+03  0.88097845727E+02 0.  0.
          5    1    3    3  502    0 -0.55311275633E+02  0.19594812983E+03  0.56814868961E+02  0.21142471126E+03  0.41800000000E+01 0. -1.
         -5    1    3    3    0  502 -0.12088792368E+03  0.91552184171E+02  0.94755181267E+02  0.17886226347E+03  0.41800000000E+01 0. -1.
        -11    1    4    4    0    0  0.29509341967E+02 -0.12426017387E+03  0.11227579098E+03  0.17005071395E+03  0.00000000000E+00 0. -1.
         11    1    4    4    0    0  0.14668985735E+03 -0.16324014013E+03  0.14272371814E+03  0.26179250813E+03  0.00000000000E+00 0.  1.
</event>
<event>
 8    1  0.6840084E-009  0.1794346E+03  0.7561462E-02  0.1168351E+00
          1   -1    0    0  501    0  0.00000000000E+00  0.00000000000E+00  0.88100768236E+03  0.88100768236E+03  0.00000000000E+00 0. -1.
         -1   -1    0    0    0  501 -0.00000000000E+00 -0.00000000000E+00 -0.42704488920E+02  0.42704488920E+02  0.00000000000E+00 0.  1.
         25    2    1    2    0    0 -0.15396478676E+03  0.90807733773E+01  0.33646026416E+03  0.39071100030E+03  0.12514775424E+03 0.  0.
         23    2    1    2    0    0  0.15396478676E+03 -0.90807733773E+01  0.50184292928E+03  0.53300117098E+03  0.91958178493E+02 0.  0.
          5    1    3    3  502    0 -0.12779317485E+03  0.57503395623E+02  0.27072257771E+03  0.30487033724E+03  0.41800000000E+01 0. -1.
         -5    1    3    3    0  502 -0.26171611906E+02 -0.48422622245E+02  0.65737686453E+02  0.85840663063E+02  0.41800000000E+01 0. -1.
        -11    1    4    4    0    0  0.51451095506E+02  0.22568109553E+02  0.80191937014E+02  0.97914664681E+02  0.00000000000E+00 0.  1.
         11    1    4    4    0    0  0.10251369125E+03 -0.31648882930E+02  0.42165099227E+03  0.43508650630E+03  0.00000000000E+00 0. -1.
</event>
<event>
 8    1  0.6840084E-009  0.1014437E+03  0.7561462E-02  0.1277289E+00
          1   -1    0    0  501    0  0.00000000000E+00  0.00000000000E+00  0.25251643390E+03  0.25251643390E+03  0.00000000000E+00 0. -1.
         -1   -1    0    0    0  501 -0.00000000000E+00 -0.00000000000E+00 -0.63459929226E+02  0.63459929226E+02  0.00000000000E+00 0.  1.
         25    2    1    2    0    0  0.49642936369E+02 -0.39148556571E+02  0.78688281219E+02  0.16073851692E+03  0.12509194461E+03 0.  0.
         23    2    1    2    0    0 -0.49642936369E+02  0.39148556571E+02  0.11036822346E+03  0.15523784621E+03  0.88997828822E+02 0.  0.
          5    1    3    3  502    0  0.13650752961E+02  0.35135853161E+02  0.67377237846E+02  0.77317758720E+02  0.41800000000E+01 0. -1.
         -5    1    3    3    0  502  0.35992183407E+02 -0.74284409732E+02  0.11311043374E+02  0.83420758195E+02  0.41800000000E+01 0. -1.
        -11    1    4    4    0    0  0.91609925118E+01  0.17307495591E+02 -0.80963072461E+01  0.21190171742E+02  0.00000000000E+00 0.  1.
         11    1    4    4    0    0 -0.58803928880E+02  0.21841060980E+02  0.11846453070E+03  0.13404767447E+03  0.00000000000E+00 0. -1.
</event>
<event>
 8    1  0.6840084E-009  0.1301449E+03  0.7561462E-02  0.1227241E+00
         -1   -1    0    0    0  501 -0.00000000000E+00  0.00000000000E+00  0.54407570261E+02  0.54407570261E+02  0.00000000000E+00 0.  1.
          1   -1    0    0  501    0  0.00000000000E+00 -0.00000000000E+00 -0.39831362172E+03  0.39831362172E+03  0.00000000000E+00 0. -1.
         25    2    1    2    0    0  0.39198847794E+02 -0.78819860778E+02 -0.11683859065E+03  0.19247540157E+03  0.12508558599E+03 0.  0.
         23    2    1    2    0    0 -0.39198847794E+02  0.78819860778E+02 -0.22706746081E+03  0.26024579041E+03  0.91755760300E+02 0.  0.
          5    1    3    3  502    0  0.65952556592E+02 -0.95932034437E+02 -0.70565921986E+02  0.13619734468E+03  0.41800000000E+01 0. -1.
         -5    1    3    3    0  502 -0.26753708799E+02  0.17112173659E+02 -0.46272668667E+02  0.56278056891E+02  0.41800000000E+01 0. -1.
        -11    1    4    4    0    0 -0.53507744905E+02  0.30972234237E+02 -0.18463835637E+03  0.19471435669E+03  0.00000000000E+00 0.  1.
         11    1    4    4    0    0  0.14308897112E+02  0.47847626541E+02 -0.42429104438E+02  0.65531433722E+02  0.00000000000E+00 0. -1.
</event>
<event>
 8    1  0.6840084E-009  0.1363150E+03  0.7561462E-02  0.1218375E+00
          2   -1    0    0  501    0  0.00000000000E+00  0.00000000000E+00  0.14930297981E+04  0.14930297981E+04  0.00000000000E+00 0. -1.
         -2   -1    0    0    0  501 -0.00000000000E+00 -0.00000000000E+00 -0.15807306066E+02  0.15807306066E+02  0.00000000000E+00 0.  1.
         25    2    1    2    0    0 -0.49655251412E+02  0.95553817878E+02  0.89037089012E+03  0.90553946475E+03  0.12508087038E+03 0.  0.
         23    2    1    2    0    0  0.49655251412E+02 -0.95553817878E+02  0.58685160192E+03  0.60329763942E+03  0.89314405095E+02 0.  0.
          5    1    3    3  502    0  0.20182885702E+02  0.39792983123E+02  0.93748281056E+02  0.10390882052E+03  0.41800000000E+01 0.  1.
         -5    1    3    3    0  502 -0.69838137114E+02  0.55760834755E+02  0.79662260906E+03  0.80163064422E+03  0.41800000000E+01 0.  1.
        -11    1    4    4    0    0 -0.24888293762E+02 -0.17540205361E+02  0.95444123357E+02  0.10018316552E+03  0.00000000000E+00 0.  1.
         11    1    4    4    0    0  0.74543545174E+02 -0.78013612517E+02  0.49140747856E+03  0.50311447390E+03  0.00000000000E+00 0. -1.
</event>
<event>
 8    1  0.6840084E-009  0.1004332E+03  0.7561462E-02  0.1279388E+00
         -2   -1    0    0    0  501 -0.00000000000E+00  0.00000000000E+00  0.90632718901E+02  0.90632718901E+02  0.00000000000E+00 0.  1.
          2   -1    0    0  501    0  0.00000000000E+00 -0.00000000000E+00 -0.19486418144E+03  0.19486418144E+03  0.00000000000E+00 0. -1.
         25    2    1    2    0    0  0.64470421087E+02 -0.32312017237E+01 -0.10212517935E+03  0.17390669824E+03  0.12508841503E+03 0.  0.
         23    2    1    2    0    0 -0.64470421087E+02  0.32312017237E+01 -0.21062831869E+01  0.11159020210E+03  0.91000334706E+02 0.  0.
          5    1    3    3  502    0  0.82125630191E+02  0.17397706632E+02 -0.11590365625E+03  0.14317272528E+03  0.41800000000E+01 0.  1.
         -5    1    3    3    0  502 -0.17655209104E+02 -0.20628908356E+02  0.13778476899E+02  0.30733972963E+02  0.41800000000E+01 0.  1.
        -11    1    4    4    0    0 -0.35937321062E+02 -0.29084594733E+02  0.32330113914E+02  0.56414900173E+02  0.00000000000E+00 0.  1.
         11    1    4    4    0    0 -0.28533100025E+02  0.32315796457E+02 -0.34436397100E+02  0.55175301929E+02  0.00000000000E+00 0. -1.
</event>
<event>
 8    1  0.6840084E-009  0.1305784E+03  0.7561462E-02  0.1226600E+00
         -2   -1    0    0    0  501 -0.00000000000E+00  0.00000000000E+00  0.22162933214E+02  0.22162933214E+02  0.00000000000E+00 0.  1.
          2   -1    0    0  501    0  0.00000000000E+00 -0.00000000000E+00 -0.84011683155E+03  0.84011683155E+03  0.00000000000E+00 0. -1.
         25    2    1    2    0    0 -0.71732348071E+02 -0.94975789640E+01 -0.55572941289E+03  0.57421111156E+03  0.12508991376E+03 0.  0.
         23    2    1    2    0    0  0.71732348071E+02  0.94975789640E+01 -0.26222448544E+03  0.28806865320E+03  0.94795223633E+02 0.  0.
          5    1    3    3  502    0 -0.76026025447E+02  0.45661428536E+02 -0.35800874363E+03  0.36885316254E+03  0.41800000000E+01 0.  1.
         -5    1    3    3    0  502  0.42936773758E+01 -0.55159007500E+02 -0.19772066926E+03  0.20535794902E+03  0.41800000000E+01 0.  1.
        -11    1    4    4    0    0  0.92493452699E+01  0.44377431017E+02 -0.13069267692E+03  0.13833106148E+03  0.00000000000E+00 0.  1.
         11    1    4    4    0    0  0.62483002801E+02 -0.34879852053E+02 -0.13153180853E+03  0.14973759171E+03  0.00000000000E+00 0. -1.
</event>
<event>
 8    1  0.6840084E-009  0.1077892E+03  0.7561462E-02  0.1264720E+00
         -1   -1    0    0    0  501 -0.00000000000E+00  0.00000000000E+00  0.55928769557E+03  0.55928769557E+03  0.00000000000E+00 0.  1.
          1   -1    0    0  501    0  0.00000000000E+00 -0.00000000000E+00 -0.21429025762E+02  0.21429025762E+02  0.00000000000E+00 0. -1.
         25    2    1    2    0    0  0.20903751050E+02 -0.15846983744E+01  0.30582233681E+03  0.33107911680E+03  0.12508637740E+03 0.  0.
         23    2    1    2    0    0 -0.20903751050E+02  0.15846983744E+01  0.23203633300E+03  0.24963760453E+03  0.89658215961E+02 0.  0.
          5    1    3    3  502    0  0.46441841246E+02  0.48498458860E+02  0.20242117138E+03  0.21330904377E+03  0.41800000000E+01 0.  1.
         -5    1    3    3    0  502 -0.25538090197E+02 -0.50083157235E+02  0.10340116543E+03  0.11777007303E+03  0.41800000000E+01 0.  1.
        -11    1    4    4    0    0  0.15075331777E+02 -0.36526154821E+02  0.10685610077E+03  0.11392827518E+03  0.00000000000E+00 0.  1.
         11    1    4    4    0    0 -0.35979082827E+02  0.38110853196E+02  0.12518023223E+03  0.13570932935E+03  0.00000000000E+00 0. -1.
</event>
<event>
 8    1  0.6840084E-009  0.9316001E+02  0.7561462E-02  0.1295375E+00
          4   -1    0    0  501    0  0.00000000000E+00  0.00000000000E+00  0.14061068520E+03  0.14061068520E+03  0.00000000000E+00 0. -1.
         -4   -1    0    0    0  501 -0.00000000000E+00 -0.00000000000E+00 -0.10338644126E+03  0.10338644126E+03  0.00000000000E+00 0.  1.
         25    2    1    2    0    0 -0.63847741745E+01  0.29734018404E+02 -0.22562710404E+02  0.13069556398E+03  0.12508947738E+03 0.  0.
         23    2    1    2    0    0  0.63847741745E+01 -0.29734018404E+02  0.59786954346E+02  0.11330156248E+03  0.91312030745E+02 0.  0.
          5    1    3    3  502    0  0.39492740835E+02 -0.27222196626E+02 -0.30526598278E+02  0.57009386685E+02  0.41800000000E+01 0.  1.
         -5    1    3    3    0  502 -0.45877515010E+02  0.56956215029E+02  0.79638878739E+01  0.73686177293E+02  0.41800000000E+01 0.  1.
        -11    1    4    4    0    0  0.31262252293E+02 -0.89976461967E+01 -0.11899048279E+02  0.34639188868E+02  0.00000000000E+00 0.  1.
         11    1    4    4    0    0 -0.24877478119E+02 -0.20736372207E+02  0.71686002625E+02  0.78662373612E+02  0.00000000000E+00 0. -1.
</event>
<event>
 8    1  0.6840084E-009  0.9278764E+02  0.7561462E-02  0.1296238E+00
         -1   -1    0    0    0  501 -0.00000000000E+00  0.00000000000E+00  0.20860341158E+02  0.20860341158E+02  0.00000000000E+00 0.  1.
          1   -1    0    0  501    0  0.00000000000E+00 -0.00000000000E+00 -0.59706884799E+03  0.59706884799E+03  0.00000000000E+00 0. -1.
         25    2    1    2    0    0  0.16890836813E+02 -0.22615432511E+02 -0.34400015331E+03  0.36712410814E+03  0.12508895692E+03 0.  0.
         23    2    1    2    0    0 -0.16890836813E+02  0.22615432511E+02 -0.23220835351E+03  0.25080508100E+03  0.90474919502E+02 0.  0.
          5    1    3    3  502    0 -0.65167682076E+01  0.36254428009E+02 -0.25566766936E+03  0.25834140468E+03  0.41800000000E+01 0.  1.
         -5    1    3    3    0  502  0.23407605021E+02 -0.58869860520E+02 -0.88332483958E+02  0.10878270346E+03  0.41800000000E+01 0.  1.
        -11    1    4    4    0    0 -0.40044732919E+02  0.39583916500E+02 -0.93401432959E+02  0.10906096808E+03  0.00000000000E+00 0.  1.
         11    1    4    4    0    0  0.23153896105E+02 -0.16968483989E+02 -0.13880692056E+03  0.14174411292E+03  0.00000000000E+00 0. -1.
</event>
<event>
 8    1  0.6840084E-009  0.3028524E+03  0.7561462E-02  0.1083823E+00
          2   -1    0    0  501    0  0.00000000000E+00  0.00000000000E+00  0.19327870646E+04  0.19327870646E+04  0.00000000000E+00 0.  1.
         -2   -1    0    0    0  501 -0.00000000000E+00 -0.00000000000E+00 -0.70746553704E+02  0.70746553704E+02  0.00000000000E+00 0. -1.
         25    2    1    2    0    0 -0.28859097365E+03 -0.15341444971E+02  0.14925271193E+04  0.15253869918E+04  0.12509261813E+03 0.  0.
         23    2    1    2    0    0  0.28859097365E+03  0.15341444971E+02  0.36951339164E+03  0.47814662647E+03  0.92541557184E+02 0.  0.
          5    1    3    3  502    0 -0.21103013756E+03  0.43350419914E+02  0.11054308815E+04  0.11262361582E+04  0.41800000000E+01 0.  1.
         -5    1    3    3    0  502 -0.77560836091E+02 -0.58691864885E+02  0.38709623773E+03  0.39915083360E+03  0.41800000000E+01 0.  1.
        -11    1    4    4    0    0  0.21030827707E+03  0.32300915664E+02  0.31900070122E+03  0.38345060691E+03  0.00000000000E+00 0. -1.
         11    1    4    4    0    0  0.78282696572E+02 -0.16959470693E+02  0.50512690417E+02  0.94696019568E+02  0.00000000000E+00 0.  1.
</event>
<event>
 8    1  0.6840084E-009  0.1776348E+03  0.7561462E-02  0.1170112E+00
          2   -1    0    0  501    0  0.00000000000E+00  0.00000000000E+00  0.67214034867E+03  0.67214034867E+03  0.00000000000E+00 0. -1.
         -2   -1    0    0    0  501 -0.00000000000E+00 -0.00000000000E+00 -0.59880255965E+02  0.59880255965E+02  0.00000000000E+00 0.  1.
         25    2    1    2    0    0  0.16007265055E+03 -0.28910217025E+02  0.24044620528E+03  0.31610265898E+03  0.12508980485E+03 0.  0.
         23    2    1    2    0    0 -0.16007265055E+03  0.28910217025E+02  0.37181388742E+03  0.41591794565E+03  0.91011628559E+02 0.  0.
          5    1    3    3  502    0  0.78714454679E+02 -0.42852238939E+02  0.20940439871E+03  0.22781561482E+03  0.41800000000E+01 0.  1.
         -5    1    3    3    0  502  0.81358195873E+02  0.13942021914E+02  0.31041806570E+02  0.88287044157E+02  0.41800000000E+01 0.  1.
        -11    1    4    4    0    0 -0.11296601116E+03 -0.20301338572E+02  0.19276805868E+03  0.22435014704E+03  0.00000000000E+00 0.  1.
         11    1    4    4    0    0 -0.47106639389E+02  0.49211555597E+02  0.17904582874E+03  0.19156779862E+03  0.00000000000E+00 0. -1.
</event>
<event>
 8    1  0.6840084E-009  0.1196433E+03  0.7561462E-02  0.1243687E+00
          2   -1    0    0  501    0  0.00000000000E+00  0.00000000000E+00  0.32831204383E+03  0.32831204383E+03  0.00000000000E+00 0. -1.
         -2   -1    0    0    0  501 -0.00000000000E+00 -0.00000000000E+00 -0.64503188462E+02  0.64503188462E+02  0.00000000000E+00 0.  1.
         25    2    1    2    0    0  0.64835172149E+02  0.68088855714E+01  0.46581674075E+02  0.14854847593E+03  0.12508731699E+03 0.  0.
         23    2    1    2    0    0 -0.64835172149E+02 -0.68088855714E+01  0.21722718129E+03  0.24426675637E+03  0.90711848740E+02 0.  0.
          5    1    3    3  502    0  0.97308685543E+02  0.19173391717E+02  0.53658330863E+02  0.11284187212E+03  0.41800000000E+01 0.  1.
         -5    1    3    3    0  502 -0.32473513395E+02 -0.12364506146E+02 -0.70766567876E+01  0.35706603811E+02  0.41800000000E+01 0.  1.
        -11    1    4    4    0    0 -0.43184466598E+02  0.36537773194E+02  0.15754356414E+03  0.16739140249E+03  0.00000000000E+00 0.  1.
         11    1    4    4    0    0 -0.21650705551E+02 -0.43346658766E+02  0.59683617158E+02  0.76875353879E+02  0.00000000000E+00 0. -1.
</event>
<event>
 8    1  0.6840084E-009  0.1128074E+03  0.7561462E-02  0.1255458E+00
          1   -1    0    0  501    0  0.00000000000E+00  0.00000000000E+00  0.11030661128E+03  0.11030661128E+03  0.00000000000E+00 0. -1.
         -1   -1    0    0    0  501 -0.00000000000E+00 -0.00000000000E+00 -0.17169108385E+03  0.17169108385E+03  0.00000000000E+00 0.  1.
         25    2    1    2    0    0 -0.28946921815E+02  0.68402042698E+02 -0.74044506080E+02  0.16323886997E+03  0.12509027164E+03 0.  0.
         23    2    1    2    0    0  0.28946921815E+02 -0.68402042698E+02  0.12660033515E+02  0.11875882516E+03  0.91796614193E+02 0.  0.
          5    1    3    3  502    0 -0.51138440986E+01  0.98886480905E+02 -0.28076041442E+02  0.10300691244E+03  0.41800000000E+01 0. -1.
         -5    1    3    3    0  502 -0.23833077716E+02 -0.30484438207E+02 -0.45968464638E+02  0.60231957526E+02  0.41800000000E+01 0. -1.
        -11    1    4    4    0    0  0.38977586188E+02 -0.33900086184E+02  0.46424784711E+02  0.69453068354E+02  0.00000000000E+00 0. -1.
         11    1    4    4    0    0 -0.10030664373E+02 -0.34501956513E+02 -0.33764751195E+02  0.49305756807E+02  0.00000000000E+00 0.  1.
</event>
<event>
 8    1  0.6840084E-009  0.1149025E+03  0.7561462E-02  0.1251751E+00
         -1   -1    0    0    0  501 -0.00000000000E+00  0.00000000000E+00  0.54543108430E+02  0.54543108430E+02  0.00000000000E+00 0.  1.
          1   -1    0    0  501    0  0.00000000000E+00 -0.00000000000E+00 -0.26704232870E+03  0.26704232870E+03  0.00000000000E+00 0. -1.
         25    2    1    2    0    0 -0.81305693486E+01 -0.52091470794E+02 -0.13340562190E+03  0.19032541725E+03  0.12508827686E+03 0.  0.
         23    2    1    2    0    0  0.81305693486E+01  0.52091470794E+02 -0.79093598375E+02  0.13126001989E+03  0.90519434539E+02 0.  0.
          5    1    3    3  502    0 -0.29174848839E+02  0.29020659452E+02 -0.12594021512E+02  0.43237162923E+02  0.41800000000E+01 0. -1.
         -5    1    3    3    0  502  0.21044279490E+02 -0.81112130246E+02 -0.12081160039E+03  0.14708825432E+03  0.41800000000E+01 0. -1.
        -11    1    4    4    0    0 -0.12372674065E+01 -0.25929714929E+02 -0.23339901939E+02  0.34908909600E+02  0.00000000000E+00 0.  1.
         11    1    4    4    0    0  0.93678367551E+01  0.78021185723E+02 -0.55753696435E+02  0.96351110286E+02  0.00000000000E+00 0. -1.
</event>
<event>
 7    1  0.6840084E-009  0.1037160E+03  0.7561462E-02  0.1272670E+00
         -1   -1    0    0    0  501 -0.00000000000E+00  0.00000000000E+00  0.39969559359E+03  0.39969559359E+03  0.00000000000E+00 0.  1.
          1   -1    0    0  501    0  0.00000000000E+00 -0.00000000000E+00 -0.29901887889E+02  0.29901887889E+02  0.00000000000E+00 0. -1.
         25    2    1    2    0    0  0.57022097350E+02  0.21040470916E+01  0.29405461295E+03  0.32461029737E+03  0.12509109945E+03 0.  0.
          5    1    3    3  502    0 -0.32098060641E+02 -0.26750752743E+02  0.68578460230E+02  0.80413716969E+02  0.41800000000E+01 0.  1.
         -5    1    3    3    0  502  0.89120157992E+02  0.28854799834E+02  0.22547615272E+03  0.24419658040E+03  0.41800000000E+01 0.  1.
        -11    1    1    2    0    0  0.41792260522E+00  0.12417241270E+02  0.20571994725E+02  0.24032675819E+02  0.00000000000E+00 0. -1.
         11    1    1    2    0    0 -0.57440019956E+02 -0.14521288362E+02  0.55167098032E+02  0.80954508296E+02  0.00000000000E+00 0.  1.
</event>
<event>
 8    1  0.6840084E-009  0.1074021E+03  0.7561462E-02  0.1265458E+00
          1   -1    0    0  501    0  0.00000000000E+00  0.00000000000E+00  0.12434886773E+04  0.12434886773E+04  0.00000000000E+00 0. -1.
         -1   -1    0    0    0  501 -0.00000000000E+00 -0.00000000000E+00 -0.24543618337E+02  0.24543618337E+02  0.00000000000E+00 0.  1.
         25    2    1    2    0    0  0.18272377695E+02 -0.52136636429E+02  0.11011001420E+04  0.11095590158E+04  0.12509028021E+03 0.  0.
         23    2    1    2    0    0 -0.18272377695E+02  0.52136636429E+02  0.11784491700E+03  0.15847327987E+03  0.90411544198E+02 0.  0.
          5    1    3    3  502    0  0.60010359709E+02 -0.42124994393E+02  0.93744856942E+03  0.94032071717E+03  0.41800000000E+01 0. -1.
         -5    1    3    3    0  502 -0.41737982014E+02 -0.10011642036E+02  0.16365157254E+03  0.16923829860E+03  0.41800000000E+01 0. -1.
        -11    1    4    4    0    0 -0.47673827620E+02  0.13232556969E+02  0.29610068078E+02  0.57659782652E+02  0.00000000000E+00 0.  1.
         11    1    4    4    0    0  0.29401449925E+02  0.38904079460E+02  0.88234848925E+02  0.10081349722E+03  0.00000000000E+00 0. -1.
</event>
<event>
 8    1  0.6840084E-009  0.1238331E+03  0.7561462E-02  0.1236904E+00
          1   -1    0    0  501    0  0.00000000000E+00  0.00000000000E+00  0.13909427948E+03  0.13909427948E+03  0.00000000000E+00 0. -1.
         -1   -1    0    0    0  501 -0.00000000000E+00 -0.00000000000E+00 -0.13422577004E+03  0.13422577004E+03  0.00000000000E+00 0.  1.
         25    2    1    2    0    0 -0.81108635041E+02 -0.18343098606E+02  0.66107402510E+00  0.15020943411E+03  0.12508939657E+03 0.  0.
         23    2    1    2    0    0  0.81108635041E+02  0.18343098606E+02  0.42074354107E+01  0.12311061540E+03  0.90683191209E+02 0.  0.
          5    1    3    3  502    0  0.26326470191E+02 -0.31192184379E+02  0.75074994882E+01  0.41711753111E+02  0.41800000000E+01 0.  1.
         -5    1    3    3    0  502 -0.10743510523E+03  0.12849085773E+02 -0.68464254631E+01  0.10849768100E+03  0.41800000000E+01 0.  1.
        -11    1    4    4    0    0  0.52631734389E+02 -0.14784918086E+02 -0.34582846349E+02  0.64688998518E+02  0.00000000000E+00 0.  1.
         11    1    4    4    0    0  0.28476900652E+02  0.33128016692E+02  0.38790281760E+02  0.58421616887E+02  0.00000000000E+00 0. -1.
</event>
<event>
 8    1  0.6840084E-009  0.1077914E+03  0.7561462E-02  0.1264715E+00
          1   -1    0    0  501    0  0.00000000000E+00  0.00000000000E+00  0.23273571688E+02  0.23273571688E+02  0.00000000000E+00 0. -1.
         -1   -1    0    0    0  501 -0.00000000000E+00 -0.00000000000E+00 -0.58956189758E+03  0.58956189758E+03  0.00000000000E+00 0.  1.
         25    2    1    2    0    0  0.18871844121E+02  0.32589898124E+02 -0.25041801005E+03  0.28244482511E+03  0.12509057323E+03 0.  0.
         23    2    1    2    0    0 -0.18871844121E+02 -0.32589898124E+02 -0.31587031584E+03  0.33039064416E+03  0.89250621056E+02 0.  0.
          5    1    3    3  502    0  0.11623786136E+01 -0.47883628170E+02 -0.88395876713E+02  0.10062552554E+03  0.41800000000E+01 0.  1.
         -5    1    3    3    0  502  0.17709465507E+02  0.80473526294E+02 -0.16202213334E+03  0.18181929957E+03  0.41800000000E+01 0.  1.
        -11    1    4    4    0    0 -0.45003557088E+02 -0.23975428433E+01 -0.86152311259E+02  0.97228026296E+02  0.00000000000E+00 0. -1.
         11    1    4    4    0    0  0.26131712967E+02 -0.30192355281E+02 -0.22971800458E+03  0.23316261786E+03  0.00000000000E+00 0.  1.
</event>
<event>
 8    1  0.6840084E-009  0.1121237E+03  0.7561462E-02  0.1256687E+00
         -2   -1    0    0    0  501 -0.00000000000E+00  0.00000000000E+00  0.42667781225E+02  0.42667781225E+02  0.00000000000E+00 0.  1.
          2   -1    0    0  501    0  0.00000000000E+00 -0.00000000000E+00 -0.34704139542E+03  0.34704139542E+03  0.00000000000E+00 0. -1.
         25    2    1    2    0    0  0.39553883104E+02  0.45003725121E+01 -0.11186195915E+03  0.17246589400E+03  0.12508646476E+03 0.  0.
         23    2    1    2    0    0 -0.39553883104E+02 -0.45003725121E+01 -0.19251165504E+03  0.21724328265E+03  0.92461578544E+02 0.  0.
          5    1    3    3  502    0  0.55460321220E+02  0.54330418186E+02 -0.55963892301E+02  0.95797031329E+02  0.41800000000E+01 0. -1.
         -5    1    3    3    0  502 -0.15906438115E+02 -0.49830045674E+02 -0.55898066853E+02  0.76668862671E+02  0.41800000000E+01 0. -1.
        -11    1    4    4    0    0 -0.65049385649E+01 -0.42882496297E+02 -0.51050369522E+02  0.66987782041E+02  0.00000000000E+00 0.  1.
         11    1    4    4    0    0 -0.33048944540E+02  0.38382123785E+02 -0.14146128552E+03  0.15025550061E+03  0.00000000000E+00 0. -1.
</event>
<event>
 8    1  0.6840084E-009  0.1109239E+03  0.7561462E-02  0.1258868E+00
         -2   -1    0    0    0  501 -0.00000000000E+00  0.00000000000E+00  0.12976627634E+03  0.12976627634E+03  0.00000000000E+00 0.  1.
          2   -1    0    0  501    0  0.00000000000E+00 -0.00000000000E+00 -0.12388550190E+03  0.12388550190E+03  0.00000000000E+00 0. -1.
         25    2    1    2    0    0 -0.17684891574E+02  0.55828956447E+02  0.55885525688E+02  0.14900779535E+03  0.12510197172E+03 0.  0.
         23    2    1    2    0    0  0.17684891574E+02 -0.55828956447E+02 -0.50004751247E+02  0.10464398289E+03  0.70853794820E+02 0.  0.
          5    1    3    3  502    0  0.22060523043E+02  0.83183589281E+02  0.51502489645E+02  0.10038005301E+03  0.41800000000E+01 0.  1.
         -5    1    3    3    0  502 -0.39745414617E+02 -0.27354632835E+02  0.43830360430E+01  0.48627742345E+02  0.41800000000E+01 0.  1.
        -11    1    4    4    0    0  0.41948390223E+02 -0.28512522249E+02 -0.12404156961E+02  0.52215845079E+02  0.00000000000E+00 0.  1.
         11    1    4    4    0    0 -0.24263498649E+02 -0.27316434197E+02 -0.37600594286E+02  0.52428137814E+02  0.00000000000E+00 0. -1.
</event>
<event>
 8    1  0.6840084E-009  0.1047419E+03  0.7561462E-02  0.1270629E+00
         -1   -1    0    0    0  501 -0.00000000000E+00  0.00000000000E+00  0.37583094932E+03  0.37583094932E+03  0.00000000000E+00 0.  1.
          1   -1    0    0  501    0  0.00000000000E+00 -0.00000000000E+00 -0.40207137870E+02  0.40207137870E+02  0.00000000000E+00 0. -1.
         25    2    1    2    0    0 -0.27445334509E+02  0.42530327781E+02  0.13953359363E+03  0.19411132589E+03  0.12508999928E+03 0.  0.
         23    2    1    2    0    0  0.27445334509E+02 -0.42530327781E+02  0.19609021782E+03  0.22192676130E+03  0.90763641889E+02 0.  0.
          5    1    3    3  502    0 -0.69505320095E+02  0.26086325082E+02  0.12681773458E+03  0.14700917006E+03  0.41800000000E+01 0. -1.
         -5    1    3    3    0  502  0.42059985586E+02  0.16444002699E+02  0.12715859048E+02  0.47102155827E+02  0.41800000000E+01 0. -1.
        -11    1    4    4    0    0 -0.20963494057E+02  0.54029511262E+01  0.11016555738E+03  0.11227248103E+03  0.00000000000E+00 0.  1.
         11    1    4    4    0    0  0.48408828566E+02 -0.47933278907E+02  0.85924660447E+02  0.10965428028E+03  0.00000000000E+00 0. -1.
</event>
<event>
 8    1  0.6840084E-009  0.2330000E+03  0.7561462E-02  0.1124546E+00
          3   -1    0    0  501    0  0.00000000000E+00  0.00000000000E+00  0.78513371150E+02  0.78513371150E+02  0.00000000000E+00 0. -1.
         -3   -1    0    0    0  501 -0.00000000000E+00 -0.00000000000E+00 -0.83563692154E+03  0.83563692154E+03  0.00000000000E+00 0.  1.
         25    2    1    2    0    0 -0.21115157539E+02  0.21580413345E+03 -0.24399446590E+03  0.34956799890E+03  0.12508881874E+03 0.  0.
         23    2    1    2    0    0  0.21115157539E+02 -0.21580413345E+03 -0.51312908448E+03  0.56458229379E+03  0.91839181299E+02 0.  0.
          5    1    3    3  502    0  0.22044647971E+02  0.20236920985E+03 -0.18478152526E+03  0.27495626576E+03  0.41800000000E+01 0.  1.
         -5    1    3    3    0  502 -0.43159805510E+02  0.13434923594E+02 -0.59212940637E+02  0.74611733142E+02  0.41800000000E+01 0.  1.
        -11    1    4    4    0    0  0.18313826808E+02 -0.14731998215E+03 -0.43992928075E+03  0.46430199812E+03  0.00000000000E+00 0. -1.
         11    1    4    4    0    0  0.28013307310E+01 -0.68484151297E+02 -0.73199803731E+02  0.10028029567E+03  0.00000000000E+00 0.  1.
</event>
<event>
 8    1  0.6840084E-009  0.8416233E+02  0.7561462E-02  0.1317638E+00
         -1   -1    0    0    0  501 -0.00000000000E+00  0.00000000000E+00  0.11039654055E+03  0.11039654055E+03  0.00000000000E+00 0.  1.
          1   -1    0    0  501    0  0.00000000000E+00 -0.00000000000E+00 -0.12156150912E+03  0.12156150912E+03  0.00000000000E+00 0. -1.
         25    2    1    2    0    0  0.41703370788E+01  0.30510071669E+02  0.18172910726E+02  0.13009986628E+03  0.12508982507E+03 0.  0.
         23    2    1    2    0    0 -0.41703370788E+01 -0.30510071669E+02 -0.29337879304E+02  0.10185818340E+03  0.92553347740E+02 0.  0.
          5    1    3    3  502    0 -0.25553606547E+02  0.32312889828E+02  0.63438545476E+02  0.75756393187E+02  0.41800000000E+01 0. -1.
         -5    1    3    3    0  502  0.29723943625E+02 -0.18028181584E+01 -0.45265634750E+02  0.54343473088E+02  0.41800000000E+01 0. -1.
        -11    1    4    4    0    0  0.16387867411E+02  0.29316714656E+02 -0.44568103313E+01  0.33880600862E+02  0.00000000000E+00 0.  1.
         11    1    4    4    0    0 -0.20558204490E+02 -0.59826786325E+02 -0.24881068973E+02  0.67977582533E+02  0.00000000000E+00 0. -1.
</event>
<event>
 8    1  0.6840084E-009  0.1695481E+03  0.7561462E-02  0.1178320E+00
         -2   -1    0    0    0  501 -0.00000000000E+00  0.00000000000E+00  0.35321514309E+02  0.35321514309E+02  0.00000000000E+00 0.  1.
          2   -1    0    0  501    0  0.00000000000E+00 -0.00000000000E+00 -0.12444676285E+04  0.12444676285E+04  0.00000000000E+00 0. -1.
         25    2    1    2    0    0 -0.15889502873E+03 -0.42853076876E+02 -0.41371453894E+03  0.46248396858E+03  0.12509070753E+03 0.  0.
         23    2    1    2    0    0  0.15889502873E+03  0.42853076876E+02 -0.79543157527E+03  0.81730517424E+03  0.90511549299E+02 0.  0.
          5    1    3    3  502    0 -0.11820971699E+03 -0.50849481238E+02 -0.39739046159E+03  0.41772701409E+03  0.41800000000E+01 0. -1.
         -5    1    3    3    0  502 -0.40685311742E+02  0.79964043615E+01 -0.16324077344E+02  0.44756954492E+02  0.41800000000E+01 0. -1.
        -11    1    4    4    0    0  0.47313766302E+02 -0.43576937595E+01 -0.92302395503E+02  0.10381384393E+03  0.00000000000E+00 0.  1.
         11    1    4    4    0    0  0.11158126243E+03  0.47210770636E+02 -0.70312917976E+03  0.71349133031E+03  0.00000000000E+00 0. -1.
</event>
<event>
 8    1  0.6840084E-009  0.8419406E+02  0.7561462E-02  0.1317554E+00
          2   -1    0    0  501    0  0.00000000000E+00  0.00000000000E+00  0.11120731409E+03  0.11120731409E+03  0.00000000000E+00 0.  1.
         -2   -1    0    0    0  501 -0.00000000000E+00 -0.00000000000E+00 -0.24669023167E+03  0.24669023167E+03  0.00000000000E+00 0. -1.
         25    2    1    2    0    0 -0.46410905326E+02  0.52363800575E+01 -0.19897516129E+03  0.23962476826E+03  0.12509005934E+03 0.  0.
         23    2    1    2    0    0  0.46410905326E+02 -0.52363800575E+01  0.63492243711E+02  0.11827277750E+03  0.88180457454E+02 0.  0.
          5    1    3    3  502    0 -0.76544830866E+02  0.86800554041E+00 -0.60166666044E+02  0.97454423546E+02  0.41800000000E+01 0. -1.
         -5    1    3    3    0  502  0.30133925540E+02  0.43683745171E+01 -0.13880849524E+03  0.14217034471E+03  0.41800000000E+01 0. -1.
        -11    1    4    4    0    0  0.44563421789E+02 -0.18023302323E+02 -0.52234235332E+01  0.48353098573E+02  0.00000000000E+00 0. -1.
         11    1    4    4    0    0  0.18474835367E+01  0.12786922266E+02  0.68715667244E+02  0.69919678927E+02  0.00000000000E+00 0.  1.
</event>
<event>
 8    1  0.6840084E-009  0.1389449E+03  0.7561462E-02  0.1214756E+00
          1   -1    0    0  501    0  0.00000000000E+00  0.00000000000E+00  0.10235307697E+04  0.10235307697E+04  0.00000000000E+00 0. -1.
         -1   -1    0    0    0  501 -0.00000000000E+00 -0.00000000000E+00 -0.19358923058E+02  0.19358923058E+02  0.00000000000E+00 0.  1.
         25    2    1    2    0    0 -0.78025121551E+02 -0.41326334148E+02  0.52334640972E+03  0.54528328714E+03  0.12508642285E+03 0.  0.
         23    2    1    2    0    0  0.78025121551E+02  0.41326334148E+02  0.48082543697E+03  0.49760640566E+03  0.92861448588E+02 0.  0.
          5    1    3    3  502    0 -0.38414240450E+02 -0.84758769030E+02  0.28904236592E+03  0.30368184749E+03  0.41800000000E+01 0. -1.
         -5    1    3    3    0  502 -0.39610881101E+02  0.43432434882E+02  0.23430404380E+03  0.24160143966E+03  0.41800000000E+01 0. -1.
        -11    1    4    4    0    0  0.21031585271E+02  0.61774581713E+02  0.20188813068E+03  0.21217267457E+03  0.00000000000E+00 0.  1.
         11    1    4    4    0    0  0.56993536280E+02 -0.20448247565E+02  0.27893730628E+03  0.28543373109E+03  0.00000000000E+00 0. -1.
</event>
<event>
 8    1  0.6840084E-009  0.1170281E+03  0.7561462E-02  0.1248082E+00
          1   -1    0    0  501    0  0.00000000000E+00  0.00000000000E+00  0.16529400828E+03  0.16529400828E+03  0.00000000000E+00 0. -1.
         -1   -1    0    0    0  501 -0.00000000000E+00 -0.00000000000E+00 -0.17238800256E+03  0.17238800256E+03  0.00000000000E+00 0.  1.
         25    2    1    2    0    0 -0.51138758290E+02  0.88640327628E+02 -0.88549093727E+02  0.18428642064E+03  0.12509301560E+03 0.  0.
         23    2    1    2    0    0  0.51138758290E+02 -0.88640327628E+02  0.81455099447E+02  0.15339559021E+03  0.80143581077E+02 0.  0.
          5    1    3    3  502    0 -0.29323352250E+02  0.80473301229E+02  0.68225906330E+01  0.86022272353E+02  0.41800000000E+01 0. -1.
         -5    1    3    3    0  502 -0.21815406040E+02  0.81670263989E+01 -0.95371684360E+02  0.98264148287E+02  0.41800000000E+01 0. -1.
        -11    1    4    4    0    0 -0.86760847118E+01  0.74610182250E+01 -0.33870106037E+01  0.11933695141E+02  0.00000000000E+00 0.  1.
         11    1    4    4    0    0  0.59814843002E+02 -0.96101345853E+02  0.84842110050E+02  0.14146189507E+03  0.00000000000E+00 0. -1.
</event>
<event>
 8    1  0.6840084E-009  0.2132028E+03  0.7561462E-02  0.1139054E+00
          2   -1    0    0  501    0  0.00000000000E+00  0.00000000000E+00  0.44482508276E+03  0.44482508276E+03  0.00000000000E+00 0. -1.
         -2   -1    0    0    0  501 -0.00000000000E+00 -0.00000000000E+00 -0.14876076787E+03  0.14876076787E+03  0.00000000000E+00 0.  1.
         25    2    1    2    0    0  0.17321017985E+03  0.72404520099E+02 -0.66163350401E+01  0.22568153443E+03  0.12507676907E+03 0.  0.
         23    2    1    2    0    0 -0.17321017985E+03 -0.72404520099E+02  0.30268064993E+03  0.36790431620E+03  0.92161972106E+02 0.  0.
          5    1    3    3  502    0  0.23201804833E+02  0.69143899879E+02  0.13334059659E+02  0.74259492221E+02  0.41800000000E+01 0. -1.
         -5    1    3    3    0  502  0.15000837501E+03  0.32606202208E+01 -0.19950394699E+02  0.15142204221E+03  0.41800000000E+01 0. -1.
        -11    1    4    4    0    0 -0.93715164936E+02 -0.80236660031E+02  0.13954211535E+03  0.18625910906E+03  0.00000000000E+00 0.  1.
         11    1    4    4    0    0 -0.79495014912E+02  0.78321399314E+01  0.16313853457E+03  0.18164520713E+03  0.00000000000E+00 0. -1.
</event>
<event>
 8    1  0.6840084E-009  0.1557862E+03  0.7561462E-02  0.1193538E+00
         -1   -1    0    0    0  501 -0.00000000000E+00  0.00000000000E+00  0.47086455659E+02  0.47086455659E+02  0.00000000000E+00 0.  1.
          1   -1    0    0  501    0  0.00000000000E+00 -0.00000000000E+00 -0.65806696492E+03  0.65806696492E+03  0.00000000000E+00 0. -1.
         25    2    1    2    0    0  0.11450515054E+03  0.49250766821E+02 -0.45585115299E+03  0.48886078613E+03  0.12509007552E+03 0.  0.
         23    2    1    2    0    0 -0.11450515054E+03 -0.49250766821E+02 -0.15512935627E+03  0.21629263445E+03  0.84736763038E+02 0.  0.
          5    1    3    3  502    0  0.68114252993E+02 -0.31248944181E+02 -0.13121606430E+03  0.15116605408E+03  0.41800000000E+01 0.  1.
         -5    1    3    3    0  502  0.46390897546E+02  0.80499711001E+02 -0.32463508869E+03  0.33769473205E+03  0.41800000000E+01 0.  1.
        -11    1    4    4    0    0 -0.89659618104E+02 -0.67880482690E+02 -0.89635152062E+02  0.14380913578E+03  0.00000000000E+00 0.  1.
         11    1    4    4    0    0 -0.24845532435E+02  0.18629715869E+02 -0.65494204203E+02  0.72483498671E+02  0.00000000000E+00 0. -1.
</event>
<event>
 8    1  0.6840084E-009  0.1336997E+03  0.7561462E-02  0.1222067E+00
         -1   -1    0    0    0  501 -0.00000000000E+00  0.00000000000E+00  0.30375380366E+02  0.30375380366E+02  0.00000000000E+00 0.  1.
          1   -1    0    0  501    0  0.00000000000E+00 -0.00000000000E+00 -0.79482919845E+03  0.79482919845E+03  0.00000000000E+00 0. -1.
         25    2    1    2    0    0  0.53652919834E+02  0.84207692705E+02 -0.28540042620E+03  0.32721813760E+03  0.12509490389E+03 0.  0.
         23    2    1    2    0    0 -0.53652919834E+02 -0.84207692705E+02 -0.47905339189E+03  0.49798644122E+03  0.92351351074E+02 0.  0.
          5    1    3    3  502    0  0.45066225499E+02 -0.21403313353E+02 -0.60183624967E+02  0.78285424042E+02  0.41800000000E+01 0. -1.
         -5    1    3    3    0  502  0.85866943349E+01  0.10561100606E+03 -0.22521680123E+03  0.24893271355E+03  0.41800000000E+01 0. -1.
        -11    1    4    4    0    0 -0.25463329965E+02 -0.78505351092E+02 -0.44848274281E+03  0.45601342296E+03  0.00000000000E+00 0.  1.
         11    1    4    4    0    0 -0.28189589869E+02 -0.57023416128E+01 -0.30570649075E+02  0.41973018258E+02  0.00000000000E+00 0. -1.
</event>
<event>
 8    1  0.6840084E-009  0.1485151E+03  0.7561462E-02  0.1202310E+00
          1   -1    0    0  501    0  0.00000000000E+00  0.00000000000E+00  0.36984533249E+03  0.36984533249E+03  0.00000000000E+00 0. -1.
         -1   -1    0    0    0  501 -0.00000000000E+00 -0.00000000000E+00 -0.15720949681E+03  0.15720949681E+03  0.00000000000E+00 0.  1.
         25    2    1    2    0    0  0.10146875504E+03 -0.16060726094E+02  0.31582826802E+03  0.35489285811E+03  0.12509033012E+03 0.  0.
         23    2    1    2    0    0 -0.10146875504E+03  0.16060726094E+02 -0.10319243234E+03  0.17216197118E+03  0.91854292542E+02 0.  0.
          5    1    3    3  502    0  0.86093708730E+02 -0.66196835795E+02  0.22650546578E+03  0.25122966820E+03  0.41800000000E+01 0. -1.
         -5    1    3    3    0  502  0.15375046308E+02  0.50136109700E+02  0.89322802233E+02  0.10366318992E+03  0.41800000000E+01 0. -1.
        -11    1    4    4    0    0 -0.74470020851E+02  0.51972963908E+02 -0.54514878261E+02  0.10591904897E+03  0.00000000000E+00 0. -1.
         11    1    4    4    0    0 -0.26998734187E+02 -0.35912237814E+02 -0.48677554076E+02  0.66242922212E+02  0.00000000000E+00 0.  1.
</event>
<event>
 8    1  0.6840084E-009  0.1169090E+03  0.7561462E-02  0.1248285E+00
          4   -1    0    0  501    0  0.00000000000E+00  0.00000000000E+00  0.43111216688E+02  0.43111216688E+02  0.00000000000E+00 0. -1.
         -4   -1    0    0    0  501 -0.00000000000E+00 -0.00000000000E+00 -0.42155655064E+03  0.42155655064E+03  0.00000000000E+00 0.  1.
         25    2    1    2    0    0 -0.54330226295E+02 -0.57669913250E+02 -0.20186697211E+03  0.25034710286E+03  0.12508319270E+03 0.  0.
         23    2    1    2    0    0  0.54330226295E+02  0.57669913250E+02 -0.17657836184E+03  0.21432066447E+03  0.92064308862E+02 0.  0.
          5    1    3    3  502    0  0.23775158755E+02 -0.27941641113E+02 -0.60715700024E+01  0.37420981337E+02  0.41800000000E+01 0. -1.
         -5    1    3    3    0  502 -0.78105385050E+02 -0.29728272137E+02 -0.19579540211E+03  0.21292612152E+03  0.41800000000E+01 0. -1.
        -11    1    4    4    0    0  0.28388489729E+02 -0.17735815589E+02 -0.21053838450E+02  0.39544021257E+02  0.00000000000E+00 0. -1.
         11    1    4    4    0    0  0.25941736566E+02  0.75405728839E+02 -0.15552452339E+03  0.17477664322E+03  0.00000000000E+00 0.  1.
</event>
<event>
 8    1  0.6840084E-009  0.1719319E+03  0.7561462E-02  0.1175848E+00
          1   -1    0    0  501    0  0.00000000000E+00  0.00000000000E+00  0.68396573982E+03  0.68396573982E+03  0.00000000000E+00 0. -1.
         -1   -1    0    0    0  501 -0.00000000000E+00 -0.00000000000E+00 -0.65404594587E+02  0.65404594587E+02  0.00000000000E+00 0.  1.
         25    2    1    2    0    0  0.41877582462E+02  0.14294075880E+03  0.50454808371E+03  0.54074190095E+03  0.12508893730E+03 0.  0.
         23    2    1    2    0    0 -0.41877582462E+02 -0.14294075880E+03  0.11401306152E+03  0.20862843345E+03  0.91329363334E+02 0.  0.
          5    1    3    3  502    0  0.83701299915E+02  0.10162518013E+03  0.39442195186E+03  0.41583618572E+03  0.41800000000E+01 0.  1.
         -5    1    3    3    0  502 -0.41823717453E+02  0.41315578673E+02  0.11012613185E+03  0.12490571524E+03  0.41800000000E+01 0.  1.
        -11    1    4    4    0    0 -0.58709924621E+01 -0.83504023683E+02  0.11089880892E+02  0.84441553645E+02  0.00000000000E+00 0.  1.
         11    1    4    4    0    0 -0.36006590000E+02 -0.59436735118E+02  0.10292318063E+03  0.12418687981E+03  0.00000000000E+00 0. -1.
</event>
<event>
 8    1  0.6840084E-009  0.1354342E+03  0.7561462E-02  0.1219608E+00
          2   -1    0    0  501    0  0.00000000000E+00  0.00000000000E+00  0.27394140646E+04  0.27394140646E+04  0.00000000000E+00 0. -1.
         -2   -1    0    0    0  501 -0.00000000000E+00 -0.00000000000E+00 -0.92896240575E+01  0.92896240575E+01  0.00000000000E+00 0.  1.
         25    2    1    2    0    0 -0.22630278811E+02 -0.90663624014E+02  0.20823512915E+04  0.20881969183E+04  0.12508975154E+03 0.  0.
         23    2    1    2    0    0  0.22630278811E+02  0.90663624014E+02  0.64777314898E+03  0.66050677034E+03  0.89034369167E+02 0.  0.
          5    1    3    3  502    0  0.48556396116E+02 -0.17945196195E+02  0.54213275797E+03  0.54461468337E+03  0.41800000000E+01 0.  1.
         -5    1    3    3    0  502 -0.71186674927E+02 -0.72718427818E+02  0.15402185335E+04  0.15435822349E+04  0.41800000000E+01 0.  1.
        -11    1    4    4    0    0  0.31213784404E+02  0.99789522048E+02  0.63082184156E+03  0.63942821711E+03  0.00000000000E+00 0. -1.
         11    1    4    4    0    0 -0.85835055935E+01 -0.91258980337E+01  0.16951307418E+02  0.21078553232E+02  0.00000000000E+00 0.  1.
</event>
<event>
 8    1  0.6840084E-009  0.1176436E+03  0.7561462E-02  0.1247036E+00
          1   -1    0    0  501    0  0.00000000000E+00  0.00000000000E+00  0.53653170069E+03  0.53653170069E+03  0.00000000000E+00 0. -1.
         -1   -1    0    0    0  501 -0.00000000000E+00 -0.00000000000E+00 -0.29964337708E+02  0.29964337708E+02  0.00000000000E+00 0.  1.
         25    2    1    2    0    0  0.64903131389E+02  0.17511931187E+02  0.27182839931E+03  0.30668467223E+03  0.12508287379E+03 0.  0.
         23    2    1    2    0    0 -0.64903131389E+02 -0.17511931187E+02  0.23473896368E+03  0.25981136617E+03  0.88772071750E+02 0.  0.
          5    1    3    3  502    0  0.63211708061E+02  0.63783174441E+02  0.13516514898E+03  0.16233022909E+03  0.41800000000E+01 0. -1.
         -5    1    3    3    0  502  0.16914233278E+01 -0.46271243254E+02  0.13666325033E+03  0.14435444315E+03  0.41800000000E+01 0. -1.
        -11    1    4    4    0    0 -0.50805822838E+01 -0.35944438831E+02  0.34744805791E+02  0.50249542571E+02  0.00000000000E+00 0.  1.
         11    1    4    4    0    0 -0.59822549105E+02  0.18432507644E+02  0.19999415789E+03  0.20956182360E+03  0.00000000000E+00 0. -1.
</event>
<event>
 8    1  0.6840084E-009  0.6861642E+02  0.7561462E-02  0.1364862E+00
          1   -1    0    0  501    0  0.00000000000E+00  0.00000000000E+00  0.29853431853E+03  0.29853431853E+03  0.00000000000E+00 0. -1.
         -1   -1    0    0    0  501 -0.00000000000E+00 -0.00000000000E+00 -0.46474277899E+02  0.46474277899E+02  0.00000000000E+00 0.  1.
         25    2    1    2    0    0 -0.31829419353E+02  0.14012365981E+02  0.18381249428E+03  0.22506726633E+03  0.12513505896E+03 0.  0.
         23    2    1    2    0    0  0.31829419353E+02 -0.14012365981E+02  0.68247546343E+02  0.11994133010E+03  0.92297002913E+02 0.  0.
          5    1    3    3  502    0 -0.30497308153E+02  0.38132172499E+02  0.10614303319E+02  0.50142638732E+02  0.41800000000E+01 0.  1.
         -5    1    3    3    0  502 -0.13321112003E+01 -0.24119806518E+02  0.17319819097E+03  0.17492462760E+03  0.41800000000E+01 0.  1.
        -11    1    4    4    0    0  0.35147826908E+02  0.12263902165E+02 -0.89840192667E+01  0.38294720718E+02  0.00000000000E+00 0.  1.
         11    1    4    4    0    0 -0.33184075553E+01 -0.26276268146E+02  0.77231565610E+02  0.81646609378E+02  0.00000000000E+00 0. -1.
</event>
<event>
 8    1  0.6840084E-009  0.2872911E+03  0.7561462E-02  0.1091772E+00
         -1   -1    0    0    0  501 -0.00000000000E+00  0.00000000000E+00  0.32592567069E+03  0.32592567069E+03  0.00000000000E+00 0.  1.
          1   -1    0    0  501    0  0.00000000000E+00 -0.00000000000E+00 -0.26779267802E+03  0.26779267802E+03  0.00000000000E+00 0. -1.
         25    2    1    2    0    0 -0.52985533877E+02 -0.26445851377E+03 -0.22569307064E+02  0.29816554146E+03  0.12509014424E+03 0.  0.
         23    2    1    2    0    0  0.52985533877E+02  0.26445851377E+03  0.80702299738E+02  0.29555280726E+03  0.89960148901E+02 0.  0.
          5    1    3    3  502    0 -0.85119817064E+02 -0.24464982842E+03 -0.15485448486E+02  0.25953071748E+03  0.41800000000E+01 0. -1.
         -5    1    3    3    0  502  0.32134283187E+02 -0.19808685349E+02 -0.70838585778E+01  0.38634823974E+02  0.41800000000E+01 0. -1.
        -11    1    4    4    0    0 -0.13434972005E+02  0.87411323283E+02  0.56424242654E+02  0.10490439967E+03  0.00000000000E+00 0.  1.
         11    1    4    4    0    0  0.66420505882E+02  0.17704719049E+03  0.24278057084E+02  0.19064840759E+03  0.00000000000E+00 0. -1.
</event>
<event>
 8    1  0.6840084E-009  0.2877909E+03  0.7561462E-02  0.1091508E+00
         -1   -1    0    0    0  501 -0.00000000000E+00  0.00000000000E+00  0.65831207656E+03  0.65831207656E+03  0.00000000000E+00 0.  1.
          1   -1    0    0  501    0  0.00000000000E+00 -0.00000000000E+00 -0.13137105369E+03  0.13137105369E+03  0.00000000000E+00 0. -1.
         25    2    1    2    0    0  0.25856193466E+03 -0.85651210722E+02  0.24063668218E+03  0.38437473304E+03  0.12509004211E+03 0.  0.
         23    2    1    2    0    0 -0.25856193466E+03  0.85651210722E+02  0.28630434069E+03  0.40530839721E+03  0.90079505994E+02 0.  0.
          5    1    3    3  502    0  0.20540058719E+03 -0.11807256407E+03  0.18257996321E+03  0.29913783941E+03  0.41800000000E+01 0.  1.
         -5    1    3    3    0  502  0.53161347474E+02  0.32421353345E+02  0.58056718964E+02  0.85236893625E+02  0.41800000000E+01 0.  1.
        -11    1    4    4    0    0 -0.13322956929E+03  0.68218221656E+02  0.99693376084E+02  0.17984052139E+03  0.00000000000E+00 0. -1.
         11    1    4    4    0    0 -0.12533236538E+03  0.17432989066E+02  0.18661096460E+03  0.22546787582E+03  0.00000000000E+00 0.  1.
</event>
<event>
 8    1  0.6840084E-009  0.8763891E+02  0.7561462E-02  0.1308672E+00
          2   -1    0    0  501    0  0.00000000000E+00  0.00000000000E+00  0.55679723946E+03  0.55679723946E+03  0.00000000000E+00 0. -1.
         -2   -1    0    0    0  501 -0.00000000000E+00 -0.00000000000E+00 -0.22545602955E+02  0.22545602955E+02  0.00000000000E+00 0.  1.
         25    2    1    2    0    0 -0.43101669237E+02 -0.31725330294E+02  0.31837992341E+03  0.34623334541E+03  0.12508998109E+03 0.  0.
         23    2    1    2    0    0  0.43101669237E+02  0.31725330294E+02  0.21587171310E+03  0.23310949701E+03  0.69822565165E+02 0.  0.
          5    1    3    3  502    0  0.20342925224E+02  0.27305767000E+01  0.12737065899E+01  0.20985361190E+02  0.41800000000E+01 0.  1.
         -5    1    3    3    0  502 -0.63444594462E+02 -0.34455906994E+02  0.31710621682E+03  0.32524798422E+03  0.41800000000E+01 0.  1.
        -11    1    4    4    0    0  0.32558175392E+02  0.50730335210E+02  0.11411311962E+03  0.12905582422E+03  0.00000000000E+00 0.  1.
         11    1    4    4    0    0  0.10543493846E+02 -0.19005004916E+02  0.10175859348E+03  0.10405367279E+03  0.00000000000E+00 0. -1.
</event>
<event>
 8    1  0.6840084E-009  0.9728394E+02  0.7561462E-02  0.1286113E+00
         -1   -1    0    0    0  501 -0.00000000000E+00  0.00000000000E+00  0.13297900447E+03  0.13297900447E+03  0.00000000000E+00 0. -1.
          1   -1    0    0  501    0  0.00000000000E+00 -0.00000000000E+00 -0.12226095098E+03  0.12226095098E+03  0.00000000000E+00 0.  1.
         25    2    1    2    0    0  0.48295119768E+01  0.39138629317E+02  0.61226377094E+02  0.14474684902E+03  0.12509126492E+03 0.  0.
         23    2    1    2    0    0 -0.48295119768E+01 -0.39138629317E+02 -0.50508323602E+02  0.11049310643E+03  0.90013772971E+02 0.  0.
          5    1    3    3  502    0  0.48612465440E+02 -0.45115425695E+01  0.66448410289E+02  0.82561428297E+02  0.41800000000E+01 0. -1.
         -5    1    3    3    0  502 -0.43782953463E+02  0.43650171887E+02 -0.52220331953E+01  0.62185420722E+02  0.41800000000E+01 0. -1.
        -11    1    4    4    0    0 -0.12041278249E+02  0.20367451261E+02  0.96653943277E+01  0.25558663898E+02  0.00000000000E+00 0. -1.
         11    1    4    4    0    0  0.72117662725E+01 -0.59506080578E+02 -0.60173717929E+02  0.84934442531E+02  0.00000000000E+00 0.  1.
</event>
<event>
 8    1  0.6840084E-009  0.2432175E+03  0.7561462E-02  0.1117668E+00
          2   -1    0    0  501    0  0.00000000000E+00  0.00000000000E+00  0.61123312115E+03  0.61123312115E+03  0.00000000000E+00 0. -1.
         -2   -1    0    0    0  501 -0.00000000000E+00 -0.00000000000E+00 -0.10192205804E+03  0.10192205804E+03  0.00000000000E+00 0.  1.
         25    2    1    2    0    0  0.20416748640E+02 -0.22333490792E+03  0.23985576410E+03  0.35138703011E+03  0.12508690036E+03 0.  0.
         23    2    1    2    0    0 -0.20416748640E+02  0.22333490792E+03  0.26945529902E+03  0.36176814908E+03  0.89301236255E+02 0.  0.
          5    1    3    3  502    0  0.72430030006E+02 -0.10688058308E+03  0.11982027473E+03  0.17619290259E+03  0.41800000000E+01 0.  1.
         -5    1    3    3    0  502 -0.52013281367E+02 -0.11645432483E+03  0.12003548937E+03  0.17519412752E+03  0.41800000000E+01 0.  1.
        -11    1    4    4    0    0 -0.35250791657E+02  0.18875949081E+03  0.17386448955E+03  0.25903981241E+03  0.00000000000E+00 0.  1.
         11    1    4    4    0    0  0.14834043017E+02  0.34575417105E+02  0.95590809469E+02  0.10272833667E+03  0.00000000000E+00 0. -1.
</event>
<event>
 8    1  0.6840084E-009  0.1265672E+03  0.7561462E-02  0.1232640E+00
          2   -1    0    0  501    0  0.00000000000E+00  0.00000000000E+00  0.65932762341E+02  0.65932762341E+02  0.00000000000E+00 0. -1.
         -2   -1    0    0    0  501 -0.00000000000E+00 -0.00000000000E+00 -0.27891593966E+03  0.27891593966E+03  0.00000000000E+00 0.  1.
         25    2    1    2    0    0  0.21257705992E+02  0.73259827019E+02 -0.15050648603E+03  0.21004759081E+03  0.12509554649E+03 0.  0.
         23    2    1    2    0    0 -0.21257705992E+02 -0.73259827019E+02 -0.62476691289E+02  0.13480111119E+03  0.91919042118E+02 0.  0.
          5    1    3    3  502    0 -0.51829890527E+01 -0.31576212433E+02 -0.12323972786E+02  0.34543787753E+02  0.41800000000E+01 0.  1.
         -5    1    3    3    0  502  0.26440695045E+02  0.10483603945E+03 -0.13818251324E+03  0.17550380306E+03  0.41800000000E+01 0.  1.
        -11    1    4    4    0    0  0.69049320468E+01  0.16874475032E+02 -0.29686690219E+02  0.34838564413E+02  0.00000000000E+00 0.  1.
         11    1    4    4    0    0 -0.28162638039E+02 -0.90134302050E+02 -0.32790001070E+02  0.99962546774E+02  0.00000000000E+00 0. -1.
</event>
<event>
 8    1  0.6840084E-009  0.1655985E+03  0.7561462E-02  0.1182517E+00
          2   -1    0    0  501    0  0.00000000000E+00  0.00000000000E+00  0.15656454113E+03  0.15656454113E+03  0.00000000000E+00 0. -1.
         -2   -1    0    0    0  501 -0.00000000000E+00 -0.00000000000E+00 -0.24337929560E+03  0.24337929560E+03  0.00000000000E+00 0.  1.
         25    2    1    2    0    0  0.14761307640E+03 -0.10589021443E+02  0.28191390167E+02  0.19581576146E+03  0.12508920919E+03 0.  0.
         23    2    1    2    0    0 -0.14761307640E+03  0.10589021443E+02 -0.11500614464E+03  0.20412807528E+03  0.80870947265E+02 0.  0.
          5    1    3    3  502    0  0.13169844938E+03  0.16095792903E+02  0.64718085384E+02  0.14768025966E+03  0.41800000000E+01 0.  1.
         -5    1    3    3    0  502  0.15914627022E+02 -0.26684814345E+02 -0.36526695217E+02  0.48135501798E+02  0.41800000000E+01 0.  1.
        -11    1    4    4    0    0 -0.12196215532E+03 -0.23737715427E+02 -0.97072695435E+02  0.15767483839E+03  0.00000000000E+00 0. -1.
         11    1    4    4    0    0 -0.25650921081E+02  0.34326736869E+02 -0.17933449207E+02  0.46453236883E+02  0.00000000000E+00 0.  1.
</event>
<event>
 8    1  0.6840084E-009  0.1101390E+03  0.7561462E-02  0.1260313E+00
          2   -1    0    0  501    0  0.00000000000E+00  0.00000000000E+00  0.43227067408E+03  0.43227067408E+03  0.00000000000E+00 0. -1.
         -2   -1    0    0    0  501 -0.00000000000E+00 -0.00000000000E+00 -0.40959751334E+02  0.40959751334E+02  0.00000000000E+00 0.  1.
         25    2    1    2    0    0  0.62191213461E+02  0.73300374880E+01  0.13872241706E+03  0.19701031324E+03  0.12509067930E+03 0.  0.
         23    2    1    2    0    0 -0.62191213461E+02 -0.73300374880E+01  0.25258850568E+03  0.27622011217E+03  0.92601947503E+02 0.  0.
          5    1    3    3  502    0  0.83901354965E+02  0.22616369474E+02  0.14528643393E+03  0.16934154191E+03  0.41800000000E+01 0.  1.
         -5    1    3    3    0  502 -0.21710141504E+02 -0.15286331986E+02 -0.65640168662E+01  0.27668771334E+02  0.41800000000E+01 0.  1.
        -11    1    4    4    0    0 -0.42227749914E+02 -0.46270425730E+02  0.10485712545E+03  0.12214398028E+03  0.00000000000E+00 0. -1.
         11    1    4    4    0    0 -0.19963463548E+02  0.38940388242E+02  0.14773138023E+03  0.15407613189E+03  0.00000000000E+00 0.  1.
</event>
<event>
 8    1  0.6840084E-009  0.1256952E+03  0.7561462E-02  0.1233987E+00
         -1   -1    0    0    0  501 -0.00000000000E+00  0.00000000000E+00  0.21212966426E+03  0.21212966426E+03  0.00000000000E+00 0.  1.
          1   -1    0    0  501    0  0.00000000000E+00 -0.00000000000E+00 -0.16087150804E+03  0.16087150804E+03  0.00000000000E+00 0. -1.
         25    2    1    2    0    0  0.57416275897E+02  0.10249996789E+03  0.12163943580E+03  0.21034594257E+03  0.12508553497E+03 0.  0.
         23    2    1    2    0    0 -0.57416275897E+02 -0.10249996789E+03 -0.70381279578E+02  0.16265522973E+03  0.87751507600E+02 0.  0.
          5    1    3    3  502    0 -0.11644579947E+01  0.26365298469E+02  0.11034088841E+03  0.11353003559E+03  0.41800000000E+01 0. -1.
         -5    1    3    3    0  502  0.58580733892E+02  0.76134669426E+02  0.11298547387E+02  0.96815906983E+02  0.41800000000E+01 0. -1.
        -11    1    4    4    0    0  0.10048999024E+02 -0.12581583453E+02  0.14598970044E+02  0.21734961466E+02  0.00000000000E+00 0.  1.
         11    1    4    4    0    0 -0.67465274921E+02 -0.89918384441E+02 -0.84980249622E+02  0.14092026826E+03  0.00000000000E+00 0. -1.
</event>
<event>
 8    1  0.6840084E-009  0.9769563E+02  0.7561462E-02  0.1285218E+00
          2   -1    0    0  501    0  0.00000000000E+00  0.00000000000E+00  0.95553201897E+02  0.95553201897E+02  0.00000000000E+00 0. -1.
         -2   -1    0    0    0  501 -0.00000000000E+00 -0.00000000000E+00 -0.13086840732E+03  0.13086840732E+03  0.00000000000E+00 0.  1.
         25    2    1    2    0    0 -0.11811334298E+02  0.13104077680E+02 -0.23126074162E+02  0.12842640348E+03  0.12508917354E+03 0.  0.
         23    2    1    2    0    0  0.11811334298E+02 -0.13104077680E+02 -0.12189131264E+02  0.97995205737E+02  0.95620400316E+02 0.  0.
          5    1    3    3  502    0 -0.38055797613E+02  0.43951541675E+02  0.26673226628E+02  0.64100820325E+02  0.41800000000E+01 0. -1.
         -5    1    3    3    0  502  0.26244463315E+02 -0.30847463995E+02 -0.49799300790E+02  0.64325583159E+02  0.41800000000E+01 0. -1.
        -11    1    4    4    0    0 -0.31866033454E+02 -0.35164433847E+02  0.44895450297E+00  0.47457170755E+02  0.00000000000E+00 0.  1.
         11    1    4    4    0    0  0.43677367752E+02  0.22060356168E+02 -0.12638085767E+02  0.50538034982E+02  0.00000000000E+00 0. -1.
</event>
<event>
 8    1  0.6840084E-009  0.1312179E+03  0.7561462E-02  0.1225660E+00
         -2   -1    0    0    0  501 -0.00000000000E+00  0.00000000000E+00  0.99626451677E+01  0.99626451677E+01  0.00000000000E+00 0.  1.
          2   -1    0    0  501    0  0.00000000000E+00 -0.00000000000E+00 -0.36490783679E+04  0.36490783679E+04  0.00000000000E+00 0. -1.
         25    2    1    2    0    0  0.57129595718E+02  0.81477822083E+02 -0.31116853482E+04  0.31157880836E+04  0.12508896683E+03 0.  0.
         23    2    1    2    0    0 -0.57129595718E+02 -0.81477822083E+02 -0.52743037450E+03  0.54325292942E+03  0.83895882949E+02 0.  0.
          5    1    3    3  502    0 -0.35838328598E+02  0.49077487467E+02 -0.10850053387E+04  0.10867138736E+04  0.41800000000E+01 0.  1.
         -5    1    3    3    0  502  0.92967924316E+02  0.32400334616E+02 -0.20266800095E+04  0.20290742101E+04  0.41800000000E+01 0.  1.
        -11    1    4    4    0    0 -0.41429587026E+02 -0.75617964654E+02 -0.51555113381E+03  0.52271164024E+03  0.00000000000E+00 0. -1.
         11    1    4    4    0    0 -0.15700008692E+02 -0.58598574294E+01 -0.11879240688E+02  0.20541289184E+02  0.00000000000E+00 0.  1.
</event>
<event>
 8    1  0.6840084E-009  0.1354309E+03  0.7561462E-02  0.1219613E+00
          1   -1    0    0  501    0  0.00000000000E+00  0.00000000000E+00  0.46718580393E+03  0.46718580393E+03  0.00000000000E+00 0. -1.
         -1   -1    0    0    0  501 -0.00000000000E+00 -0.00000000000E+00 -0.56040590067E+02  0.56040590067E+02  0.00000000000E+00 0.  1.
         25    2    1    2    0    0  0.14421740636E+02  0.88796809857E+02  0.34119206567E+03  0.37437075103E+03  0.12509425847E+03 0.  0.
         23    2    1    2    0    0 -0.14421740636E+02 -0.88796809857E+02  0.69953148183E+02  0.14885564296E+03  0.95768990063E+02 0.  0.
          5    1    3    3  502    0  0.58696753881E+02  0.48931006926E+01  0.13646082670E+03  0.14868853679E+03  0.41800000000E+01 0.  1.
         -5    1    3    3    0  502 -0.44275013246E+02  0.83903709164E+02  0.20473123898E+03  0.22568221423E+03  0.41800000000E+01 0.  1.
        -11    1    4    4    0    0 -0.43095309080E+02 -0.33576741295E+02  0.67157404636E+02  0.86572052177E+02  0.00000000000E+00 0.  1.
         11    1    4    4    0    0  0.28673568444E+02 -0.55220068562E+02  0.27957435467E+01  0.62283590787E+02  0.00000000000E+00 0. -1.
</event>
<event>
 8    1  0.6840084E-009  0.7924571E+02  0.7561462E-02  0.1331206E+00
          4   -1    0    0  501    0  0.00000000000E+00  0.00000000000E+00  0.60502835048E+02  0.60502835048E+02  0.00000000000E+00 0.  1.
         -4   -1    0    0    0  501 -0.00000000000E+00 -0.00000000000E+00 -0.19030405277E+03  0.19030405277E+03  0.00000000000E+00 0. -1.
         25    2    1    2    0    0  0.42881114641E+01 -0.16950067578E+02 -0.12716212611E+03  0.17920240966E+03  0.12505040832E+03 0.  0.
         23    2    1    2    0    0 -0.42881114641E+01  0.16950067578E+02 -0.26390916105E+01  0.71604478158E+02  0.69386913729E+02 0.  0.
          5    1    3    3  502    0  0.44557376575E+02 -0.10324269757E+02 -0.36077496361E+00  0.45929869495E+02  0.41800000000E+01 0. -1.
         -5    1    3    3    0  502 -0.40269265111E+02 -0.66257978216E+01 -0.12680135115E+03  0.13327254017E+03  0.41800000000E+01 0. -1.
        -11    1    4    4    0    0 -0.36089114178E+02  0.16629347947E+02 -0.68829077466E+00  0.39742082476E+02  0.00000000000E+00 0. -1.
         11    1    4    4    0    0  0.31801002714E+02  0.32071963088E+00 -0.19508008358E+01  0.31862395682E+02  0.00000000000E+00 0.  1.
</event>
<event>
 8    1  0.6840084E-009  0.1320668E+03  0.7561462E-02  0.1224421E+00
          1   -1    0    0  501    0  0.00000000000E+00  0.00000000000E+00  0.13113434193E+03  0.13113434193E+03  0.00000000000E+00 0. -1.
         -1   -1    0    0    0  501 -0.00000000000E+00 -0.00000000000E+00 -0.17425475659E+03  0.17425475659E+03  0.00000000000E+00 0.  1.
         25    2    1    2    0    0  0.92743872368E+02  0.36759356704E+02  0.94344314095E+01  0.16028044353E+03  0.12509250942E+03 0.  0.
         23    2    1    2    0    0 -0.92743872368E+02 -0.36759356704E+02 -0.52554846071E+02  0.14510865500E+03  0.91333639706E+02 0.  0.
          5    1    3    3  502    0 -0.31573697708E+01  0.39762177584E+02 -0.36130480976E+02  0.53980402051E+02  0.41800000000E+01 0.  1.
         -5    1    3    3    0  502  0.95901242139E+02 -0.30028208802E+01  0.45564912385E+02  0.10630004148E+03  0.41800000000E+01 0.  1.
        -11    1    4    4    0    0 -0.10019458386E+03 -0.10559027630E+02 -0.20094857857E+02  0.10273388443E+03  0.00000000000E+00 0. -1.
         11    1    4    4    0    0  0.74507114884E+01 -0.26200329073E+02 -0.32459988214E+02  0.42374770561E+02  0.00000000000E+00 0.  1.
</event>
<event>
 8    1  0.6840084E-009  0.1189376E+03  0.7561462E-02  0.1244860E+00
         -1   -1    0    0    0  501 -0.00000000000E+00  0.00000000000E+00  0.44969350652E+02  0.44969350652E+02  0.00000000000E+00 0.  1.
          1   -1    0    0  501    0  0.00000000000E+00 -0.00000000000E+00 -0.46703163995E+03  0.46703163995E+03  0.00000000000E+00 0. -1.
         25    2    1    2    0    0  0.66101252684E+02 -0.69199424592E+02 -0.21348613407E+03  0.26529508764E+03  0.12508884088E+03 0.  0.
         23    2    1    2    0    0 -0.66101252684E+02  0.69199424592E+02 -0.20857615522E+03  0.24670590296E+03  0.90564088129E+02 0.  0.
          5    1    3    3  502    0  0.75183588786E+02 -0.10264762168E+02 -0.18308671273E+03  0.19823257589E+03  0.41800000000E+01 0. -1.
         -5    1    3    3    0  502 -0.90823361023E+01 -0.58934662424E+02 -0.30399421342E+02  0.67062511748E+02  0.41800000000E+01 0. -1.
        -11    1    4    4    0    0 -0.11522581036E+02  0.36956869831E+02 -0.12565752949E+02  0.40699855634E+02  0.00000000000E+00 0.  1.
         11    1    4    4    0    0 -0.54578671648E+02  0.32242554761E+02 -0.19601040227E+03  0.20600604733E+03  0.00000000000E+00 0. -1.
</event>
<event>
 8    1  0.6840084E-009  0.9797644E+02  0.7561462E-02  0.1284610E+00
         -1   -1    0    0    0  501 -0.00000000000E+00  0.00000000000E+00  0.53626811091E+02  0.53626811091E+02  0.00000000000E+00 0.  1.
          1   -1    0    0  501    0  0.00000000000E+00 -0.00000000000E+00 -0.40690473986E+03  0.40690473986E+03  0.00000000000E+00 0. -1.
         25    2    1    2    0    0 -0.53660772210E+02 -0.47329928010E+02 -0.29949248871E+03  0.33235964768E+03  0.12509030360E+03 0.  0.
         23    2    1    2    0    0  0.53660772210E+02  0.47329928010E+02 -0.53785440063E+02  0.12817190327E+03  0.91736375916E+02 0.  0.
          5    1    3    3  502    0 -0.33742461695E+02  0.19112408929E+02 -0.18996205593E+02  0.43383938540E+02  0.41800000000E+01 0. -1.
         -5    1    3    3    0  502 -0.19918310514E+02 -0.66442336939E+02 -0.28049628312E+03  0.28897570914E+03  0.41800000000E+01 0. -1.
        -11    1    4    4    0    0  0.41000411427E+02  0.27231472573E+01  0.16242131481E+02  0.44184342286E+02  0.00000000000E+00 0.  1.
         11    1    4    4    0    0  0.12660360782E+02  0.44606780753E+02 -0.70027571543E+02  0.83987560987E+02  0.00000000000E+00 0. -1.
</event>
<event>
 8    1  0.6840084E-009  0.1162208E+03  0.7561462E-02  0.1249465E+00
         -1   -1    0    0    0  501 -0.00000000000E+00  0.00000000000E+00  0.50318453749E+03  0.50318453749E+03  0.00000000000E+00 0.  1.
          1   -1    0    0  501    0  0.00000000000E+00 -0.00000000000E+00 -0.61800840788E+02  0.61800840788E+02  0.00000000000E+00 0. -1.
         25    2    1    2    0    0 -0.54704026576E+02 -0.10179066849E+03  0.11193710480E+03  0.20379299526E+03  0.12509116184E+03 0.  0.
         23    2    1    2    0    0  0.54704026576E+02  0.10179066849E+03  0.32944659189E+03  0.36119238301E+03  0.92579748967E+02 0.  0.
          5    1    3    3  502    0 -0.16900894733E+02 -0.31690537969E+02 -0.25947485388E+02  0.44504773199E+02  0.41800000000E+01 0. -1.
         -5    1    3    3    0  502 -0.37803131843E+02 -0.70100130520E+02  0.13788459019E+03  0.15928822206E+03  0.41800000000E+01 0. -1.
        -11    1    4    4    0    0  0.28748257574E+02  0.68714349608E+02  0.84411407258E+02  0.11257624008E+03  0.00000000000E+00 0. -1.
         11    1    4    4    0    0  0.25955769002E+02  0.33076318882E+02  0.24503518464E+03  0.24861614293E+03  0.00000000000E+00 0.  1.
</event>
<event>
 8    1  0.6840084E-009  0.1147937E+03  0.7561462E-02  0.1251942E+00
         -1   -1    0    0    0  501 -0.00000000000E+00  0.00000000000E+00  0.11229197757E+03  0.11229197757E+03  0.00000000000E+00 0.  1.
          1   -1    0    0  501    0  0.00000000000E+00 -0.00000000000E+00 -0.22238361708E+03  0.22238361708E+03  0.00000000000E+00 0. -1.
         25    2    1    2    0    0 -0.79541620654E+02 -0.40369736425E+00 -0.13595543870E+03  0.20114233755E+03  0.12508927315E+03 0.  0.
         23    2    1    2    0    0  0.79541620654E+02  0.40369736425E+00  0.25863799186E+02  0.13353325709E+03  0.10409208545E+03 0.  0.
          5    1    3    3  502    0 -0.26901665726E+02 -0.28896507759E+02  0.12006571182E+02  0.41476956627E+02  0.41800000000E+01 0. -1.
         -5    1    3    3    0  502 -0.52639954928E+02  0.28492810395E+02 -0.14796200988E+03  0.15966538093E+03  0.41800000000E+01 0. -1.
        -11    1    4    4    0    0  0.10387169390E+03 -0.79103986888E+01  0.27589436952E+02  0.10776400249E+03  0.00000000000E+00 0. -1.
         11    1    4    4    0    0 -0.24330073244E+02  0.83140960530E+01 -0.17256377658E+01  0.25769254606E+02  0.00000000000E+00 0.  1.
</event>
<event>
 8    1  0.6840084E-009  0.1052817E+03  0.7561462E-02  0.1269566E+00
         -2   -1    0    0    0  501 -0.00000000000E+00  0.00000000000E+00  0.18067487915E+02  0.18067487915E+02  0.00000000000E+00 0.  1.
          2   -1    0    0  501    0  0.00000000000E+00 -0.00000000000E+00 -0.70744362127E+03  0.70744362127E+03  0.00000000000E+00 0. -1.
         25    2    1    2    0    0 -0.29373685174E+02 -0.14838569055E+02 -0.46202838494E+03  0.47979156037E+03  0.12508683543E+03 0.  0.
         23    2    1    2    0    0  0.29373685174E+02  0.14838569055E+02 -0.22734774841E+03  0.24571954881E+03  0.87224431495E+02 0.  0.
          5    1    3    3  502    0 -0.67983231497E+02  0.24460108608E+02 -0.22250272373E+03  0.23397639014E+03  0.41800000000E+01 0. -1.
         -5    1    3    3    0  502  0.38609546323E+02 -0.39298677663E+02 -0.23952566122E+03  0.24581517023E+03  0.41800000000E+01 0. -1.
        -11    1    4    4    0    0  0.48154939398E+02 -0.12522082880E+02 -0.76450719777E+02  0.91216299543E+02  0.00000000000E+00 0. -1.
         11    1    4    4    0    0 -0.18781254224E+02  0.27360651935E+02 -0.15089702864E+03  0.15450324927E+03  0.00000000000E+00 0.  1.
</event>
<event>
 8    1  0.6840084E-009  0.7671878E+02  0.7561462E-02  0.1338630E+00
         -1   -1    0    0    0  501 -0.00000000000E+00  0.00000000000E+00  0.16274154832E+02  0.16274154832E+02  0.00000000000E+00 0.  1.
          1   -1    0    0  501    0  0.00000000000E+00 -0.00000000000E+00 -0.92777459749E+03  0.92777459749E+03  0.00000000000E+00 0. -1.
         25    2    1    2    0    0  0.79295907606E+01 -0.51648146631E+02 -0.60222380322E+03  0.61728330397E+03  0.12503902884E+03 0.  0.
         23    2    1    2    0    0 -0.79295907606E+01  0.51648146631E+02 -0.30927663943E+03  0.32676544835E+03  0.91614458881E+02 0.  0.
          5    1    3    3  502    0 -0.48569353701E+01 -0.42957338380E+02 -0.59945961022E+03  0.60103096379E+03  0.41800000000E+01 0. -1.
         -5    1    3    3    0  502  0.12786526131E+02 -0.86908082512E+01 -0.27641930012E+01  0.16252340185E+02  0.41800000000E+01 0. -1.
        -11    1    4    4    0    0 -0.40985250193E+02  0.12706535432E+02 -0.70061130437E+02  0.82157219855E+02  0.00000000000E+00 0.  1.
         11    1    4    4    0    0  0.33055659433E+02  0.38941611199E+02 -0.23921550900E+03  0.24460822849E+03  0.00000000000E+00 0. -1.
</event>
<event>
 8    1  0.6840084E-009  0.1359971E+03  0.7561462E-02  0.1218819E+00
         -2   -1    0    0    0  501 -0.00000000000E+00  0.00000000000E+00  0.42799376622E+02  0.42799376622E+02  0.00000000000E+00 0.  1.
          2   -1    0    0  501    0  0.00000000000E+00 -0.00000000000E+00 -0.66308511814E+03  0.66308511814E+03  0.00000000000E+00 0. -1.
         25    2    1    2    0    0  0.12692700730E+03 -0.16624918483E+02 -0.32928999062E+03  0.37478623143E+03  0.12508384487E+03 0.  0.
         23    2    1    2    0    0 -0.12692700730E+03  0.16624918483E+02 -0.29099575089E+03  0.33109826333E+03  0.92523942030E+02 0.  0.
          5    1    3    3  502    0 -0.77754158837E+00  0.12798466458E+01 -0.16883014389E+03  0.16888852082E+03  0.41800000000E+01 0.  1.
         -5    1    3    3    0  502  0.12770454888E+03 -0.17904765129E+02 -0.16045984673E+03  0.20589771061E+03  0.41800000000E+01 0.  1.
        -11    1    4    4    0    0 -0.36260600156E+02  0.29773436720E+02 -0.33114763132E+02  0.57427138141E+02  0.00000000000E+00 0.  1.
         11    1    4    4    0    0 -0.90666407141E+02 -0.13148518237E+02 -0.25788098776E+03  0.27367112519E+03  0.00000000000E+00 0. -1.
</event>
<event>
 8    1  0.6840084E-009  0.1012975E+03  0.7561462E-02  0.1277591E+00
         -1   -1    0    0    0  501 -0.00000000000E+00  0.00000000000E+00  0.59779517018E+02  0.59779517018E+02  0.00000000000E+00 0.  1.
          1   -1    0    0  501    0  0.00000000000E+00 -0.00000000000E+00 -0.20713564667E+03  0.20713564667E+03  0.00000000000E+00 0. -1.
         25    2    1    2    0    0  0.27071640186E+02  0.88198616150E+01 -0.89091960432E+02  0.15620407864E+03  0.12510664694E+03 0.  0.
         23    2    1    2    0    0 -0.27071640186E+02 -0.88198616150E+01 -0.58264169224E+02  0.11071108505E+03  0.89730525890E+02 0.  0.
          5    1    3    3  502    0  0.63767549725E+02 -0.23212627093E+02 -0.18725813880E+02  0.70521308552E+02  0.41800000000E+01 0. -1.
         -5    1    3    3    0  502 -0.36695909539E+02  0.32032488708E+02 -0.70366146552E+02  0.85682770090E+02  0.41800000000E+01 0. -1.
        -11    1    4    4    0    0  0.28770816100E+02 -0.80212186753E+01  0.18654509477E+00  0.29868622452E+02  0.00000000000E+00 0.  1.
         11    1    4    4    0    0 -0.55842456286E+02 -0.79864293974E+00 -0.58450714319E+02  0.80842462599E+02  0.00000000000E+00 0. -1.
</event>
<event>
 7    1  0.6840084E-009  0.7481889E+02  0.7561462E-02  0.1344433E+00
          2   -1    0    0  501    0  0.00000000000E+00  0.00000000000E+00  0.23072176425E+03  0.23072176425E+03  0.00000000000E+00 0. -1.
         -2   -1    0    0    0  501 -0.00000000000E+00 -0.00000000000E+00 -0.55405707925E+02  0.55405707925E+02  0.00000000000E+00 0.  1.
         23    2    1    2    0    0  0.21490076564E+02 -0.22572902439E+02  0.94435237334E+02  0.13402637251E+03  0.89853743170E+02 0.  0.
          5    1    1    2  502    0  0.37687431087E+01  0.31260185246E+02  0.10873757912E+03  0.11328166718E+03  0.41800000000E+01 0.  1.
         -5    1    1    2    0  502 -0.25258819673E+02 -0.86872828066E+01 -0.27856760129E+02  0.38819432488E+02  0.41800000000E+01 0.  1.
        -11    1    3    3    0    0  0.46042882397E+02 -0.39787770484E+02  0.43082024556E+02  0.74559201574E+02  0.00000000000E+00 0. -1.
         11    1    3    3    0    0 -0.24552805833E+02  0.17214868045E+02  0.51353212778E+02  0.59467170932E+02  0.00000000000E+00 0.  1.
</event>
<event>
 8    1  0.6840084E-009  0.1359653E+03  0.7561462E-02  0.1218863E+00
         -1   -1    0    0    0  501 -0.00000000000E+00  0.00000000000E+00  0.14672354709E+03  0.14672354709E+03  0.00000000000E+00 0.  1.
          1   -1    0    0  501    0  0.00000000000E+00 -0.00000000000E+00 -0.13368541138E+03  0.13368541138E+03  0.00000000000E+00 0. -1.
         25    2    1    2    0    0  0.41830331677E+02  0.75310955288E+02 -0.80646507327E+01  0.15210373879E+03  0.12509593170E+03 0.  0.
         23    2    1    2    0    0 -0.41830331677E+02 -0.75310955288E+02  0.21102786439E+02  0.12830521969E+03  0.92711300116E+02 0.  0.
          5    1    3    3  502    0 -0.15872331128E+01 -0.32914605643E+02 -0.12092327926E+02  0.35349503084E+02  0.41800000000E+01 0. -1.
         -5    1    3    3    0  502  0.43417564790E+02  0.10822556093E+03  0.40276771933E+01  0.11675423570E+03  0.41800000000E+01 0. -1.
        -11    1    4    4    0    0 -0.66492268229E+02 -0.35972499883E+02  0.29446623661E+02  0.81131659216E+02  0.00000000000E+00 0.  1.
         11    1    4    4    0    0  0.24661936552E+02 -0.39338455405E+02 -0.83438372222E+01  0.47173560473E+02  0.00000000000E+00 0. -1.
</event>
<event>
 8    1  0.6840084E-009  0.7095871E+02  0.7561462E-02  0.1356863E+00
         -2   -1    0    0    0  501 -0.00000000000E+00  0.00000000000E+00  0.42329038116E+03  0.42329038116E+03  0.00000000000E+00 0. -1.
          2   -1    0    0  501    0  0.00000000000E+00 -0.00000000000E+00 -0.39060073158E+02  0.39060073158E+02  0.00000000000E+00 0.  1.
         25    2    1    2    0    0  0.24596747514E+01  0.43903366392E+02  0.30891649052E+03  0.33617079083E+03  0.12509135427E+03 0.  0.
         23    2    1    2    0    0 -0.24596747514E+01 -0.43903366392E+02  0.75313817486E+02  0.12617966349E+03  0.91189806413E+02 0.  0.
          5    1    3    3  502    0  0.16441364717E+02  0.51428709212E+02  0.41439782735E+02  0.68190604911E+02  0.41800000000E+01 0.  1.
         -5    1    3    3    0  502 -0.13981689966E+02 -0.75253428202E+01  0.26747670779E+03  0.26798018592E+03  0.41800000000E+01 0.  1.
        -11    1    4    4    0    0 -0.20134618108E+02 -0.48977674347E+02  0.46457470488E+01  0.53158239215E+02  0.00000000000E+00 0.  1.
         11    1    4    4    0    0  0.17674943357E+02  0.50743079547E+01  0.70668070437E+02  0.73021424275E+02  0.00000000000E+00 0. -1.
</event>
<event>
 8    1  0.6840084E-009  0.1099045E+03  0.7561462E-02  0.1260747E+00
          1   -1    0    0  501    0  0.00000000000E+00  0.00000000000E+00  0.11095497376E+04  0.11095497376E+04  0.00000000000E+00 0. -1.
         -1   -1    0    0    0  501 -0.00000000000E+00 -0.00000000000E+00 -0.16868506865E+02  0.16868506865E+02  0.00000000000E+00 0.  1.
         25    2    1    2    0    0 -0.70476822111E+02 -0.22755532991E+02  0.72432519375E+03  0.73876895974E+03  0.12509113816E+03 0.  0.
         23    2    1    2    0    0  0.70476822111E+02  0.22755532991E+02  0.36835603695E+03  0.38764928469E+03  0.95399167824E+02 0.  0.
          5    1    3    3  502    0 -0.78508030905E+02 -0.33314915503E+02  0.24887312754E+03  0.26311347462E+03  0.41800000000E+01 0.  1.
         -5    1    3    3    0  502  0.80312087942E+01  0.10559382512E+02  0.47545206620E+03  0.47565548512E+03  0.41800000000E+01 0.  1.
        -11    1    4    4    0    0 -0.25757916337E+01 -0.30184862885E+02  0.10399701032E+03  0.10831961413E+03  0.00000000000E+00 0.  1.
         11    1    4    4    0    0  0.73052613744E+02  0.52940395876E+02  0.26435902663E+03  0.27932967056E+03  0.00000000000E+00 0. -1.
</event>
<event>
 8    1  0.6840084E-009  0.9996954E+02  0.7561462E-02  0.1280360E+00
         -2   -1    0    0    0  501 -0.00000000000E+00  0.00000000000E+00  0.10542487879E+03  0.10542487879E+03  0.00000000000E+00 0. -1.
          2   -1    0    0  501    0  0.00000000000E+00 -0.00000000000E+00 -0.11279815463E+03  0.11279815463E+03  0.00000000000E+00 0.  1.
         25    2    1    2    0    0  0.49029295169E+01 -0.12219927921E+02 -0.55475614641E+01  0.12589865880E+03  0.12508529687E+03 0.  0.
         23    2    1    2    0    0 -0.49029295169E+01  0.12219927921E+02 -0.18257143802E+01  0.92324374618E+02  0.91362418747E+02 0.  0.
          5    1    3    3  502    0 -0.57249844481E+02 -0.24239003728E+02 -0.39838353785E+01  0.62437307270E+02  0.41800000000E+01 0.  1.
         -5    1    3    3    0  502  0.62152773998E+02  0.12019075807E+02 -0.15637260855E+01  0.63461351531E+02  0.41800000000E+01 0.  1.
        -11    1    4    4    0    0 -0.38293835354E+02 -0.91675141818E+00  0.26526315423E+02  0.46592957292E+02  0.00000000000E+00 0. -1.
         11    1    4    4    0    0  0.33390905837E+02  0.13136679340E+02 -0.28352029803E+02  0.45731417326E+02  0.00000000000E+00 0.  1.
</event>
<event>
 8    1  0.6840084E-009  0.1102831E+03  0.7561462E-02  0.1260047E+00
         -1   -1    0    0    0  501 -0.00000000000E+00  0.00000000000E+00  0.48812137286E+03  0.48812137286E+03  0.00000000000E+00 0.  1.
          1   -1    0    0  501    0  0.00000000000E+00 -0.00000000000E+00 -0.47844599546E+02  0.47844599546E+02  0.00000000000E+00 0. -1.
         25    2    1    2    0    0  0.85571411734E+02 -0.13974850457E+01  0.35324592531E+03  0.38438924945E+03  0.12509193369E+03 0.  0.
         23    2    1    2    0    0 -0.85571411734E+02  0.13974850457E+01  0.87030848004E+02  0.15157672296E+03  0.89870545603E+02 0.  0.
          5    1    3    3  502    0 -0.12356576871E+02  0.62869686400E+00  0.21229226872E+03  0.21269358244E+03  0.41800000000E+01 0. -1.
         -5    1    3    3    0  502  0.97927988605E+02 -0.20261819097E+01  0.14095365659E+03  0.17169566701E+03  0.41800000000E+01 0. -1.
        -11    1    4    4    0    0 -0.82750042833E+02  0.24416603572E+02  0.93773244878E+02  0.12742512144E+03  0.00000000000E+00 0.  1.
         11    1    4    4    0    0 -0.28213689005E+01 -0.23019118526E+02 -0.67423968739E+01  0.24151601516E+02  0.00000000000E+00 0. -1.
</event>
<event>
 8    1  0.6840084E-009  0.9091541E+02  0.7561462E-02  0.1300650E+00
         -1   -1    0    0    0  501 -0.00000000000E+00  0.00000000000E+00  0.16863975739E+02  0.16863975739E+02  0.00000000000E+00 0.  1.
          1   -1    0    0  501    0  0.00000000000E+00 -0.00000000000E+00 -0.11481064593E+04  0.11481064593E+04  0.00000000000E+00 0. -1.
         25    2    1    2    0    0  0.19216138857E+02  0.25400172416E+02 -0.98168316823E+03  0.99013351028E+03  0.12509235243E+03 0.  0.
         23    2    1    2    0    0 -0.19216138857E+02 -0.25400172416E+02 -0.14955931530E+03  0.17483692473E+03  0.84767521520E+02 0.  0.
          5    1    3    3  502    0 -0.40360135568E+02 -0.70881625262E+01 -0.14628949026E+03  0.15197786007E+03  0.41800000000E+01 0. -1.
         -5    1    3    3    0  502  0.59576274425E+02  0.32488334942E+02 -0.83539367797E+03  0.83815565021E+03  0.41800000000E+01 0. -1.
        -11    1    4    4    0    0  0.21481127338E+02 -0.23604972757E+02 -0.17003787249E+02  0.36162996991E+02  0.00000000000E+00 0.  1.
         11    1    4    4    0    0 -0.40697266195E+02 -0.17951996589E+01 -0.13255552805E+03  0.13867392774E+03  0.00000000000E+00 0. -1.
</event>
<event>
 8    1  0.6840084E-009  0.1046023E+03  0.7561462E-02  0.1270905E+00
          2   -1    0    0  501    0  0.00000000000E+00  0.00000000000E+00  0.15080020156E+04  0.15080020156E+04  0.00000000000E+00 0. -1.
         -2   -1    0    0    0  501 -0.00000000000E+00 -0.00000000000E+00 -0.99867533026E+01  0.99867533026E+01  0.00000000000E+00 0.  1.
         25    2    1    2    0    0 -0.16840987707E+01 -0.37648768610E+02  0.11277150323E+04  0.11352570087E+04  0.12508803144E+03 0.  0.
         23    2    1    2    0    0  0.16840987707E+01  0.37648768610E+02  0.37030022994E+03  0.38273176021E+03  0.89112704001E+02 0.  0.
          5    1    3    3  502    0  0.22923024102E+02  0.33491439044E+02  0.68130054858E+03  0.68252109962E+03  0.41800000000E+01 0.  1.
         -5    1    3    3    0  502 -0.24607122872E+02 -0.71140207653E+02  0.44641448374E+03  0.45273590904E+03  0.41800000000E+01 0.  1.
        -11    1    4    4    0    0 -0.39289513260E+02  0.33856408799E+02  0.25723629921E+03  0.26241272054E+03  0.00000000000E+00 0. -1.
         11    1    4    4    0    0  0.40973612031E+02  0.37923598110E+01  0.11306393073E+03  0.12031903967E+03  0.00000000000E+00 0.  1.
</event>
<event>
 8    1  0.6840084E-009  0.1364617E+03  0.7561462E-02  0.1218171E+00
         -1   -1    0    0    0  501 -0.00000000000E+00  0.00000000000E+00  0.56946684194E+03  0.56946684194E+03  0.00000000000E+00 0.  1.
          1   -1    0    0  501    0  0.00000000000E+00 -0.00000000000E+00 -0.40147131435E+02  0.40147131435E+02  0.00000000000E+00 0. -1.
         25    2    1    2    0    0 -0.52129058684E+02  0.90476528586E+02  0.28978996840E+03  0.33246040611E+03  0.12509298485E+03 0.  0.
         23    2    1    2    0    0  0.52129058684E+02 -0.90476528586E+02  0.23952974210E+03  0.27715356726E+03  0.92391349774E+02 0.  0.
          5    1    3    3  502    0 -0.76746544020E+02  0.15191593143E+02  0.10208015914E+03  0.12868040958E+03  0.41800000000E+01 0.  1.
         -5    1    3    3    0  502  0.24617485336E+02  0.75284935443E+02  0.18770980926E+03  0.20377999652E+03  0.41800000000E+01 0.  1.
        -11    1    4    4    0    0  0.21559519888E+01 -0.52368836867E+02  0.19011546481E+03  0.19720809610E+03  0.00000000000E+00 0. -1.
         11    1    4    4    0    0  0.49973106695E+02 -0.38107691719E+02  0.49414277285E+02  0.79945471170E+02  0.00000000000E+00 0.  1.
</event>
<event>
 8    1  0.6840084E-009  0.8477953E+02  0.7561462E-02  0.1316010E+00
         -2   -1    0    0    0  501 -0.00000000000E+00  0.00000000000E+00  0.42526477829E+02  0.42526477829E+02  0.00000000000E+00 0.  1.
          2   -1    0    0  501    0  0.00000000000E+00 -0.00000000000E+00 -0.28592705323E+03  0.28592705323E+03  0.00000000000E+00 0. -1.
         25    2    1    2    0    0  0.88391004539E+01  0.19974505056E+02 -0.14043831633E+03  0.18933388247E+03  0.12508911947E+03 0.  0.
         23    2    1    2    0    0 -0.88391004539E+01 -0.19974505056E+02 -0.10296225906E+03  0.13911964858E+03  0.90972189600E+02 0.  0.
          5    1    3    3  502    0 -0.56232515302E+02  0.33411373914E+01 -0.43346743460E+02  0.71201625998E+02  0.41800000000E+01 0. -1.
         -5    1    3    3    0  502  0.65071615756E+02  0.16633367664E+02 -0.97091572875E+02  0.11813225648E+03  0.41800000000E+01 0. -1.
        -11    1    4    4    0    0 -0.41952940692E+01  0.12390894895E+02  0.13115744872E+02  0.18524511658E+02  0.00000000000E+00 0.  1.
         11    1    4    4    0    0 -0.46438063847E+01 -0.32365399951E+02 -0.11607800393E+03  0.12059513692E+03  0.00000000000E+00 0. -1.
</event>
<event>
 8    1  0.6840084E-009  0.1503736E+03  0.7561462E-02  0.1200015E+00
          1   -1    0    0  501    0  0.00000000000E+00  0.00000000000E+00  0.60610133005E+03  0.60610133005E+03  0.00000000000E+00 0. -1.
         -1   -1    0    0    0  501 -0.00000000000E+00 -0.00000000000E+00 -0.46992867740E+02  0.46992867740E+02  0.00000000000E+00 0.  1.
         25    2    1    2    0    0 -0.85441911540E+02  0.91819685513E+02  0.36552253080E+03  0.40618295091E+03  0.12508674665E+03 0.  0.
         23    2    1    2    0    0  0.85441911540E+02 -0.91819685513E+02  0.19358593151E+03  0.24691124689E+03  0.88082211966E+02 0.  0.
          5    1    3    3  502    0 -0.64986998252E+02 -0.14529144286E+02  0.17012551724E+03  0.18274181238E+03  0.41800000000E+01 0. -1.
         -5    1    3    3    0  502 -0.20454913288E+02  0.10634882980E+03  0.19539701356E+03  0.22344113852E+03  0.41800000000E+01 0. -1.
        -11    1    4    4    0    0  0.38510867709E+02 -0.46864195524E+02  0.23882981051E+02  0.65190003357E+02  0.00000000000E+00 0.  1.
         11    1    4    4    0    0  0.46931043832E+02 -0.44955489989E+02  0.16970295046E+03  0.18172124353E+03  0.00000000000E+00 0. -1.
</event>
<event>
 7    1  0.6840084E-009  0.2571625E+03  0.7561462E-02  0.1108860E+00
         -2   -1    0    0    0  501 -0.00000000000E+00  0.00000000000E+00  0.21749794807E+03  0.21749794807E+03  0.00000000000E+00 0.  1.
          2   -1    0    0  501    0  0.00000000000E+00 -0.00000000000E+00 -0.31048360368E+03  0.31048360368E+03  0.00000000000E+00 0. -1.
         25    2    1    2    0    0  0.18677005177E+03 -0.15486636646E+03 -0.40205102175E+02  0.27591879464E+03  0.12509231509E+03 0.  0.
          5    1    3    3  502    0  0.11930235708E+03 -0.25236052772E+02 -0.43912745514E+02  0.12967541163E+03  0.41800000000E+01 0. -1.
         -5    1    3    3    0  502  0.67467694692E+02 -0.12963031369E+03  0.37076433393E+01  0.14624338300E+03  0.41800000000E+01 0. -1.
        -11    1    1    2    0    0 -0.16418643284E+03  0.15126666583E+03 -0.51779137996E+02  0.22917213629E+03  0.00000000000E+00 0.  1.
         11    1    1    2    0    0 -0.22583618928E+02  0.35997006233E+01 -0.10014154444E+01  0.22890620817E+02  0.00000000000E+00 0. -1.
</event>
<event>
 8    1  0.6840084E-009  0.6417559E+02  0.7561462E-02  0.1381100E+00
         -1   -1    0    0    0  501 -0.00000000000E+00  0.00000000000E+00  0.20178486183E+02  0.20178486183E+02  0.00000000000E+00 0.  1.
          1   -1    0    0  501    0  0.00000000000E+00 -0.00000000000E+00 -0.12627951958E+04  0.12627951958E+04  0.00000000000E+00 0. -1.
         25    2    1    2    0    0 -0.19010043199E+02 -0.12548185113E+02 -0.11314728523E+04  0.11385945694E+04  0.12509172343E+03 0.  0.
         23    2    1    2    0    0  0.19010043199E+02  0.12548185113E+02 -0.11114385737E+03  0.14437911264E+03  0.89294638382E+02 0.  0.
          5    1    3    3  502    0  0.33234772961E+00  0.24076510396E+02 -0.44050353135E+02  0.50375537905E+02  0.41800000000E+01 0. -1.
         -5    1    3    3    0  502 -0.19342390929E+02 -0.36624695508E+02 -0.10874224991E+04  0.10882190315E+04  0.41800000000E+01 0. -1.
        -11    1    4    4    0    0  0.38757322214E+02 -0.23786271436E+00 -0.11425421045E+03  0.12064912436E+03  0.00000000000E+00 0. -1.
         11    1    4    4    0    0 -0.19747279015E+02  0.12786047827E+02  0.31103530776E+01  0.23729988281E+02  0.00000000000E+00 0.  1.
</event>
<event>
 8    1  0.6840084E-009  0.2003917E+03  0.7561462E-02  0.1149409E+00
         -2   -1    0    0    0  501 -0.00000000000E+00  0.00000000000E+00  0.40622847652E+02  0.40622847652E+02  0.00000000000E+00 0.  1.
          2   -1    0    0  501    0  0.00000000000E+00 -0.00000000000E+00 -0.11393898482E+04  0.11393898482E+04  0.00000000000E+00 0. -1.
         25    2    1    2    0    0  0.40190128624E+02 -0.17846001407E+03 -0.48770803812E+03  0.53569531101E+03  0.12508841965E+03 0.  0.
         23    2    1    2    0    0 -0.40190128624E+02  0.17846001407E+03 -0.61105896244E+03  0.64431738486E+03  0.91041824379E+02 0.  0.
          5    1    3    3  502    0  0.52335946355E+02 -0.17015979623E+02 -0.17560872628E+03  0.18407740760E+03  0.41800000000E+01 0. -1.
         -5    1    3    3    0  502 -0.12145817731E+02 -0.16144403445E+03 -0.31209931184E+03  0.35161790341E+03  0.41800000000E+01 0. -1.
        -11    1    4    4    0    0 -0.96472019083E+01  0.79193866088E+02 -0.13288214770E+03  0.15499161948E+03  0.00000000000E+00 0.  1.
         11    1    4    4    0    0 -0.30542926715E+02  0.99266147982E+02 -0.47817681474E+03  0.48932576538E+03  0.00000000000E+00 0. -1.
</event>
<event>
 8    1  0.6840084E-009  0.1628471E+03  0.7561462E-02  0.1185519E+00
          1   -1    0    0  501    0  0.00000000000E+00  0.00000000000E+00  0.62426721287E+03  0.62426721287E+03  0.00000000000E+00 0. -1.
         -1   -1    0    0    0  501 -0.00000000000E+00 -0.00000000000E+00 -0.59211267447E+02  0.59211267447E+02  0.00000000000E+00 0.  1.
         25    2    1    2    0    0  0.13618699885E+03 -0.72933907981E+02  0.36694652232E+03  0.41732903209E+03  0.12509003636E+03 0.  0.
         23    2    1    2    0    0 -0.13618699885E+03  0.72933907981E+02  0.19810942311E+03  0.26614944823E+03  0.87874522339E+02 0.  0.
          5    1    3    3  502    0  0.77674060573E+02 -0.29447115209E+02  0.31972898539E+03  0.33037022986E+03  0.41800000000E+01 0. -1.
         -5    1    3    3    0  502  0.58512938282E+02 -0.43486792772E+02  0.47217536926E+02  0.86958802231E+02  0.41800000000E+01 0. -1.
        -11    1    4    4    0    0 -0.12353259014E+03  0.33371508494E+02  0.11000878408E+03  0.16874801030E+03  0.00000000000E+00 0.  1.
         11    1    4    4    0    0 -0.12654408718E+02  0.39562399487E+02  0.88100639027E+02  0.97401437926E+02  0.00000000000E+00 0. -1.
</event>
<event>
 8    1  0.6840084E-009  0.8925395E+02  0.7561462E-02  0.1304668E+00
         -2   -1    0    0    0  501 -0.00000000000E+00  0.00000000000E+00  0.19324967823E+03  0.19324967823E+03  0.00000000000E+00 0.  1.
          2   -1    0    0  501    0  0.00000000000E+00 -0.00000000000E+00 -0.16550878116E+03  0.16550878116E+03  0.00000000000E+00 0. -1.
         25    2    1    2    0    0  0.23866835666E+02  0.39514744206E+02  0.14911134478E+03  0.20004545166E+03  0.12511174499E+03 0.  0.
         23    2    1    2    0    0 -0.23866835666E+02 -0.39514744206E+02 -0.12137044771E+03  0.15871300773E+03  0.91257834672E+02 0.  0.
          5    1    3    3  502    0 -0.29649704873E+02 -0.31192422907E+02  0.36043402155E+02  0.56290953845E+02  0.41800000000E+01 0. -1.
         -5    1    3    3    0  502  0.53516540539E+02  0.70707167113E+02  0.11306794263E+03  0.14375449781E+03  0.41800000000E+01 0. -1.
        -11    1    4    4    0    0 -0.99426986093E+01 -0.11441529107E+02  0.13470558745E+02  0.20278604411E+02  0.00000000000E+00 0.  1.
         11    1    4    4    0    0 -0.13924137057E+02 -0.28073215099E+02 -0.13484100646E+03  0.13843440332E+03  0.00000000000E+00 0. -1.
</event>
<event>
 8    1  0.6840084E-009  0.1471655E+03  0.7561462E-02  0.1204000E+00
          2   -1    0    0  501    0  0.00000000000E+00  0.00000000000E+00  0.81078834241E+03  0.81078834241E+03  0.00000000000E+00 0. -1.
         -2   -1    0    0    0  501 -0.00000000000E+00 -0.00000000000E+00 -0.37265097821E+02  0.37265097821E+02  0.00000000000E+00 0.  1.
         25    2    1    2    0    0  0.79305606421E+01 -0.12081087800E+03  0.26146801613E+03  0.31411581326E+03  0.12508020883E+03 0.  0.
         23    2    1    2    0    0 -0.79305606421E+01  0.12081087800E+03  0.51205522845E+03  0.53393762697E+03  0.90723042686E+02 0.  0.
          5    1    3    3  502    0  0.42262554438E+02 -0.82278936480E+02  0.70846484273E+02  0.11658749345E+03  0.41800000000E+01 0.  1.
         -5    1    3    3    0  502 -0.34331993796E+02 -0.38531941522E+02  0.19062153186E+03  0.19752831980E+03  0.41800000000E+01 0.  1.
        -11    1    4    4    0    0  0.31483432383E+02  0.10110892021E+03  0.39197763485E+03  0.40603040093E+03  0.00000000000E+00 0. -1.
         11    1    4    4    0    0 -0.39413993025E+02  0.19701957794E+02  0.12007759361E+03  0.12790722604E+03  0.00000000000E+00 0.  1.
</event>
<event>
 8    1  0.6840084E-009  0.1066149E+03  0.7561462E-02  0.1266970E+00
          2   -1    0    0  501    0  0.00000000000E+00  0.00000000000E+00  0.76307860825E+03  0.76307860825E+03  0.00000000000E+00 0. -1.
         -2   -1    0    0    0  501 -0.00000000000E+00 -0.00000000000E+00 -0.20035381723E+02  0.20035381723E+02  0.00000000000E+00 0.  1.
         25    2    1    2    0    0  0.26520148178E+02 -0.49385600443E+02  0.40129669496E+03  0.42406231346E+03  0.12509017755E+03 0.  0.
         23    2    1    2    0    0 -0.26520148178E+02  0.49385600443E+02  0.34174653157E+03  0.35905167651E+03  0.94790077430E+02 0.  0.
          5    1    3    3  502    0 -0.30657141228E+02 -0.28634153750E+02  0.31829061434E+03  0.32107033909E+03  0.41800000000E+01 0.  1.
         -5    1    3    3    0  502  0.57177289406E+02 -0.20751446693E+02  0.83006080623E+02  0.10299197437E+03  0.41800000000E+01 0.  1.
        -11    1    4    4    0    0  0.35934488647E+02  0.19002793908E+02  0.12965815605E+03  0.13588094451E+03  0.00000000000E+00 0. -1.
         11    1    4    4    0    0 -0.62454636825E+02  0.30382806535E+02  0.21208837552E+03  0.22317073200E+03  0.00000000000E+00 0.  1.
</event>
<event>
 8    1  0.6840084E-009  0.1448418E+03  0.7561462E-02  0.1206958E+00
         -1   -1    0    0    0  501 -0.00000000000E+00  0.00000000000E+00  0.51811779313E+03  0.51811779313E+03  0.00000000000E+00 0.  1.
          1   -1    0    0  501    0  0.00000000000E+00 -0.00000000000E+00 -0.52348407174E+02  0.52348407174E+02  0.00000000000E+00 0. -1.
         25    2    1    2    0    0  0.83461278533E+02  0.73671249232E+02  0.15216438526E+03  0.22626443698E+03  0.12509339439E+03 0.  0.
         23    2    1    2    0    0 -0.83461278533E+02 -0.73671249232E+02  0.31360500069E+03  0.34420176332E+03  0.87940431199E+02 0.  0.
          5    1    3    3  502    0 -0.50070309585E+01  0.77746835803E+02  0.60416332797E+02  0.98677487327E+02  0.41800000000E+01 0. -1.
         -5    1    3    3    0  502  0.88468309492E+02 -0.40755865706E+01  0.91748052466E+02  0.12758694965E+03  0.41800000000E+01 0. -1.
        -11    1    4    4    0    0 -0.35468850124E+02 -0.65264513453E+02  0.96942546348E+02  0.12212842969E+03  0.00000000000E+00 0. -1.
         11    1    4    4    0    0 -0.47992428409E+02 -0.84067357797E+01  0.21666245434E+03  0.22207333364E+03  0.00000000000E+00 0.  1.
</event>
<event>
 8    1  0.6840084E-009  0.1328478E+03  0.7561462E-02  0.1223290E+00
          1   -1    0    0  501    0  0.00000000000E+00  0.00000000000E+00  0.20513701188E+03  0.20513701188E+03  0.00000000000E+00 0. -1.
         -1   -1    0    0    0  501 -0.00000000000E+00 -0.00000000000E+00 -0.10287321439E+03  0.10287321439E+03  0.00000000000E+00 0.  1.
         25    2    1    2    0    0  0.66817960377E+02 -0.68427019955E+02  0.72729189745E+02  0.17344773623E+03  0.12509070819E+03 0.  0.
         23    2    1    2    0    0 -0.66817960377E+02  0.68427019955E+02  0.29534607754E+02  0.13456249004E+03  0.89932606883E+02 0.  0.
          5    1    3    3  502    0 -0.50506119563E+01  0.22554547977E+02 -0.15109749688E+02  0.27928359265E+02  0.41800000000E+01 0.  1.
         -5    1    3    3    0  502  0.71868572334E+02 -0.90981567932E+02  0.87838939433E+02  0.14551937697E+03  0.41800000000E+01 0.  1.
        -11    1    4    4    0    0 -0.73506576432E+02  0.18476582542E+02  0.35719123904E+02  0.83788165594E+02  0.00000000000E+00 0. -1.
         11    1    4    4    0    0  0.66886160548E+01  0.49950437414E+02 -0.61845161500E+01  0.50774324442E+02  0.00000000000E+00 0.  1.
</event>
<event>
 8    1  0.6840084E-009  0.1006880E+03  0.7561462E-02  0.1278856E+00
         -1   -1    0    0    0  501 -0.00000000000E+00  0.00000000000E+00  0.25335729465E+02  0.25335729465E+02  0.00000000000E+00 0.  1.
          1   -1    0    0  501    0  0.00000000000E+00 -0.00000000000E+00 -0.63436075630E+03  0.63436075630E+03  0.00000000000E+00 0. -1.
         25    2    1    2    0    0 -0.52718026646E+02  0.27513441035E+02 -0.26439313398E+03  0.29847863683E+03  0.12509831165E+03 0.  0.
         23    2    1    2    0    0  0.52718026646E+02 -0.27513441035E+02 -0.34463189285E+03  0.36121784893E+03  0.90393655994E+02 0.  0.
          5    1    3    3  502    0 -0.82029886969E+01  0.44434955775E+02 -0.24103876039E+03  0.24527313495E+03  0.41800000000E+01 0.  1.
         -5    1    3    3    0  502 -0.44515037949E+02 -0.16921514740E+02 -0.23354373592E+02  0.53205501882E+02  0.41800000000E+01 0.  1.
        -11    1    4    4    0    0 -0.79715820155E+01 -0.44468927149E+02 -0.14613002088E+03  0.15295428926E+03  0.00000000000E+00 0.  1.
         11    1    4    4    0    0  0.60689608661E+02  0.16955486114E+02 -0.19850187197E+03  0.20826355967E+03  0.00000000000E+00 0. -1.
</event>
<event>
 8    1  0.6840084E-009  0.1443653E+03  0.7561462E-02  0.1207573E+00
          3   -1    0    0  501    0  0.00000000000E+00  0.00000000000E+00  0.11773223193E+03  0.11773223193E+03  0.00000000000E+00 0. -1.
         -3   -1    0    0    0  501 -0.00000000000E+00 -0.00000000000E+00 -0.22974453070E+03  0.22974453070E+03  0.00000000000E+00 0.  1.
         25    2    1    2    0    0 -0.12136656355E+03 -0.12415502943E+02 -0.77014985316E+02  0.19095069641E+03  0.12508746154E+03 0.  0.
         23    2    1    2    0    0  0.12136656355E+03  0.12415502943E+02 -0.34997313447E+02  0.15652606622E+03  0.91605731253E+02 0.  0.
          5    1    3    3  502    0 -0.88325336808E+02 -0.36045797431E+02  0.88214649622E+01  0.95895543581E+02  0.41800000000E+01 0. -1.
         -5    1    3    3    0  502 -0.33041226740E+02  0.23630294488E+02 -0.85836450278E+02  0.95055152824E+02  0.41800000000E+01 0. -1.
        -11    1    4    4    0    0  0.84425943104E+02  0.51285278804E+02 -0.26072520488E+02  0.10216504302E+03  0.00000000000E+00 0. -1.
         11    1    4    4    0    0  0.36940620443E+02 -0.38869775861E+02 -0.89247929590E+01  0.54361023202E+02  0.00000000000E+00 0.  1.
</event>
<event>
 7    1  0.6840084E-009  0.1968978E+03  0.7561462E-02  0.1152383E+00
          1   -1    0    0  501    0  0.00000000000E+00  0.00000000000E+00  0.12579063264E+03  0.12579063264E+03  0.00000000000E+00 0. -1.
         -1   -1    0    0    0  501 -0.00000000000E+00 -0.00000000000E+00 -0.38909581427E+03  0.38909581427E+03  0.00000000000E+00 0.  1.
         23    2    1    2    0    0 -0.44513626315E+02 -0.18524013001E+03 -0.13101207345E+03  0.25132471372E+03  0.98511824893E+02 0.  0.
          5    1    1    2  502    0  0.40268406047E+02  0.16765477275E+03 -0.15660955406E+03  0.23296714828E+03  0.41800000000E+01 0.  1.
         -5    1    1    2    0  502  0.42452202679E+01  0.17585357259E+02  0.24316445892E+02  0.30594584911E+02  0.41800000000E+01 0.  1.
        -11    1    3    3    0    0 -0.41882002253E+02 -0.41398777820E+02 -0.33506293516E+01  0.58984638973E+02  0.00000000000E+00 0. -1.
         11    1    3    3    0    0 -0.26316240620E+01 -0.14384135219E+03 -0.12766144410E+03  0.19234007475E+03  0.00000000000E+00 0.  1.
</event>
<event>
 8    1  0.6840084E-009  0.1240368E+03  0.7561462E-02  0.1236582E+00
          3   -1    0    0  501    0  0.00000000000E+00  0.00000000000E+00  0.22750335712E+03  0.22750335712E+03  0.00000000000E+00 0. -1.
         -3   -1    0    0    0  501 -0.00000000000E+00 -0.00000000000E+00 -0.15228551948E+03  0.15228551948E+03  0.00000000000E+00 0.  1.
         25    2    1    2    0    0  0.70606846128E+02  0.45955874513E+02  0.16583946071E+03  0.22415579916E+03  0.12508327805E+03 0.  0.
         23    2    1    2    0    0 -0.70606846128E+02 -0.45955874513E+02 -0.90621623068E+02  0.15563307743E+03  0.94403957014E+02 0.  0.
          5    1    3    3  502    0  0.82616500983E+02  0.76123952492E+02  0.15089439004E+03  0.18816729717E+03  0.41800000000E+01 0.  1.
         -5    1    3    3    0  502 -0.12009654854E+02 -0.30168077978E+02  0.14945070667E+02  0.35988501995E+02  0.41800000000E+01 0.  1.
        -11    1    4    4    0    0 -0.18205923983E+02 -0.47107594049E+02  0.50770851651E+00  0.50505829892E+02  0.00000000000E+00 0. -1.
         11    1    4    4    0    0 -0.52400922145E+02  0.11517195351E+01 -0.91129331585E+02  0.10512724754E+03  0.00000000000E+00 0.  1.
</event>
<event>
 8    1  0.6840084E-009  0.1325658E+03  0.7561462E-02  0.1223697E+00
         -1   -1    0    0    0  501 -0.00000000000E+00  0.00000000000E+00  0.38869386191E+02  0.38869386191E+02  0.00000000000E+00 0.  1.
          1   -1    0    0  501    0  0.00000000000E+00 -0.00000000000E+00 -0.12983643464E+04  0.12983643464E+04  0.00000000000E+00 0. -1.
         25    2    1    2    0    0 -0.66983866554E+02 -0.68334034166E+02 -0.11858340903E+04  0.11962467550E+04  0.12508968993E+03 0.  0.
         23    2    1    2    0    0  0.66983866554E+02  0.68334034166E+02 -0.73660869836E+02  0.14098697752E+03  0.72766925737E+02 0.  0.
          5    1    3    3  502    0  0.14982342123E+02  0.21985069595E+02 -0.40893830889E+03  0.40982414124E+03  0.41800000000E+01 0. -1.
         -5    1    3    3    0  502 -0.81966208677E+02 -0.90319103762E+02 -0.77689578146E+03  0.78642261381E+03  0.41800000000E+01 0. -1.
        -11    1    4    4    0    0  0.25410458280E+02 -0.10137318161E+02 -0.34238521909E+02  0.43826167891E+02  0.00000000000E+00 0.  1.
         11    1    4    4    0    0  0.41573408273E+02  0.78471352327E+02 -0.39422347927E+02  0.97160809628E+02  0.00000000000E+00 0. -1.
</event>
<event>
 8    1  0.6840084E-009  0.1048531E+03  0.7561462E-02  0.1270409E+00
          1   -1    0    0  501    0  0.00000000000E+00  0.00000000000E+00  0.49474945461E+03  0.49474945461E+03  0.00000000000E+00 0. -1.
         -1   -1    0    0    0  501 -0.00000000000E+00 -0.00000000000E+00 -0.45194337191E+02  0.45194337191E+02  0.00000000000E+00 0.  1.
         25    2    1    2    0    0 -0.40693954350E+02 -0.12730264636E+02  0.40912126054E+03  0.42993818191E+03  0.12509427196E+03 0.  0.
         23    2    1    2    0    0  0.40693954350E+02  0.12730264636E+02  0.40433856873E+02  0.11000560989E+03  0.92996128237E+02 0.  0.
          5    1    3    3  502    0 -0.15842852409E+02 -0.59629892961E+02  0.11067298092E+03  0.12677815747E+03  0.41800000000E+01 0.  1.
         -5    1    3    3    0  502 -0.24851101941E+02  0.46899628325E+02  0.29844827963E+03  0.30316002444E+03  0.41800000000E+01 0.  1.
        -11    1    4    4    0    0  0.52065851843E+02 -0.23153805120E+02  0.44283581507E+02  0.72166385601E+02  0.00000000000E+00 0. -1.
         11    1    4    4    0    0 -0.11371897494E+02  0.35884069757E+02 -0.38497246337E+01  0.37839224287E+02  0.00000000000E+00 0.  1.
</event>
<event>
 8    1  0.6840084E-009  0.1661160E+03  0.7561462E-02  0.1181960E+00
         -2   -1    0    0    0  501 -0.00000000000E+00  0.00000000000E+00  0.70012959839E+02  0.70012959839E+02  0.00000000000E+00 0. -1.
          2   -1    0    0  501    0  0.00000000000E+00 -0.00000000000E+00 -0.44145816177E+03  0.44145816177E+03  0.00000000000E+00 0.  1.
         25    2    1    2    0    0  0.72550314060E+02 -0.10934606923E+03 -0.24666812463E+03  0.30612487949E+03  0.12508863741E+03 0.  0.
         23    2    1    2    0    0 -0.72550314060E+02  0.10934606923E+03 -0.12477707730E+03  0.20534624212E+03  0.96838263128E+02 0.  0.
          5    1    3    3  502    0  0.15768327286E+02 -0.11624887620E+03 -0.12422056677E+03  0.17091127222E+03  0.41800000000E+01 0. -1.
         -5    1    3    3    0  502  0.56781986774E+02  0.69028069640E+01 -0.12244755786E+03  0.13521360727E+03  0.41800000000E+01 0. -1.
        -11    1    4    4    0    0 -0.31427852207E+02  0.11195872352E+03 -0.11379733237E+03  0.16270309929E+03  0.00000000000E+00 0.  1.
         11    1    4    4    0    0 -0.41122461853E+02 -0.26126542831E+01 -0.10979744936E+02  0.42643142826E+02  0.00000000000E+00 0. -1.
</event>
<event>
 8    1  0.6840084E-009  0.1102421E+03  0.7561462E-02  0.1260122E+00
         -2   -1    0    0    0  501 -0.00000000000E+00  0.00000000000E+00  0.90739152136E+02  0.90739152136E+02  0.00000000000E+00 0.  1.
          2   -1    0    0  501    0  0.00000000000E+00 -0.00000000000E+00 -0.14148730344E+03  0.14148730344E+03  0.00000000000E+00 0. -1.
         25    2    1    2    0    0  0.34584340186E+02 -0.54685126388E+01 -0.32722195730E+02  0.13395714597E+03  0.12509114136E+03 0.  0.
         23    2    1    2    0    0 -0.34584340186E+02  0.54685126388E+01 -0.18025955569E+02  0.98269309604E+02  0.90032999057E+02 0.  0.
          5    1    3    3  502    0 -0.24691897234E+02  0.43070554361E+02  0.17236592655E+01  0.49851838915E+02  0.41800000000E+01 0. -1.
         -5    1    3    3    0  502  0.59276237420E+02 -0.48539067000E+02 -0.34445854996E+02  0.84105307052E+02  0.41800000000E+01 0. -1.
        -11    1    4    4    0    0 -0.63640685105E+02 -0.28691611598E+01 -0.12935555968E+01  0.63718460218E+02  0.00000000000E+00 0.  1.
         11    1    4    4    0    0  0.29056344919E+02  0.83376737987E+01 -0.16732399973E+02  0.34550849386E+02  0.00000000000E+00 0. -1.
</event>
<event>
 8    1  0.6840084E-009  0.1041266E+03  0.7561462E-02  0.1271850E+00
          1   -1    0    0  501    0  0.00000000000E+00  0.00000000000E+00  0.29339477886E+03  0.29339477886E+03  0.00000000000E+00 0. -1.
         -1   -1    0    0    0  501 -0.00000000000E+00 -0.00000000000E+00 -0.62101481176E+02  0.62101481176E+02  0.00000000000E+00 0.  1.
         25    2    1    2    0    0  0.18476142329E+02 -0.65297382081E+02  0.18002514810E+03  0.22947920482E+03  0.12508611256E+03 0.  0.
         23    2    1    2    0    0 -0.18476142329E+02  0.65297382081E+02  0.51268149586E+02  0.12601705521E+03  0.92987951371E+02 0.  0.
          5    1    3    3  502    0  0.44962800063E+02 -0.65135798370E+02  0.18584496261E+03  0.20203996671E+03  0.41800000000E+01 0.  1.
         -5    1    3    3    0  502 -0.26486657733E+02 -0.16158371139E+00 -0.58198145178E+01  0.27439238113E+02  0.41800000000E+01 0.  1.
        -11    1    4    4    0    0  0.17453365157E+02  0.63881721080E+02  0.36174320914E+01  0.66321791731E+02  0.00000000000E+00 0.  1.
         11    1    4    4    0    0 -0.35929507487E+02  0.14156610015E+01  0.47650717495E+02  0.59695263481E+02  0.00000000000E+00 0. -1.
</event>
<event>
 8    1  0.6840084E-009  0.1226904E+03  0.7561462E-02  0.1238724E+00
         -1   -1    0    0    0  501 -0.00000000000E+00  0.00000000000E+00  0.34686769196E+03  0.34686769196E+03  0.00000000000E+00 0.  1.
          1   -1    0    0  501    0  0.00000000000E+00 -0.00000000000E+00 -0.63394165361E+02  0.63394165361E+02  0.00000000000E+00 0. -1.
         25    2    1    2    0    0  0.63239108461E+02 -0.23430466272E+02  0.49996041936E+02  0.15065048489E+03  0.12509113797E+03 0.  0.
         23    2    1    2    0    0 -0.63239108461E+02  0.23430466272E+02  0.23347748467E+03  0.25961137244E+03  0.91313510849E+02 0.  0.
          5    1    3    3  502    0  0.74610875716E+02  0.31851147021E+02  0.11119466065E+02  0.81990202264E+02  0.41800000000E+01 0. -1.
         -5    1    3    3    0  502 -0.11371767255E+02 -0.55281613293E+02  0.38876575871E+02  0.68660282625E+02  0.41800000000E+01 0. -1.
        -11    1    4    4    0    0 -0.28517221917E+02 -0.31549804734E+02  0.54121557346E+02  0.68831425194E+02  0.00000000000E+00 0. -1.
         11    1    4    4    0    0 -0.34721886544E+02  0.54980271006E+02  0.17935592732E+03  0.19077994724E+03  0.00000000000E+00 0.  1.
</event>
<event>
 8    1  0.6840084E-009  0.1162957E+03  0.7561462E-02  0.1249336E+00
          2   -1    0    0  501    0  0.00000000000E+00  0.00000000000E+00  0.49481838044E+03  0.49481838044E+03  0.00000000000E+00 0. -1.
         -2   -1    0    0    0  501 -0.00000000000E+00 -0.00000000000E+00 -0.38362541124E+02  0.38362541124E+02  0.00000000000E+00 0.  1.
         25    2    1    2    0    0  0.13744758932E+01  0.85036626263E+02  0.24752791599E+03  0.29008935394E+03  0.12509455257E+03 0.  0.
         23    2    1    2    0    0 -0.13744758932E+01 -0.85036626263E+02  0.20892792332E+03  0.24309156762E+03  0.90606380102E+02 0.  0.
          5    1    3    3  502    0  0.10101465824E+02 -0.29944336135E+02  0.84881036127E+02  0.90669540488E+02  0.41800000000E+01 0.  1.
         -5    1    3    3    0  502 -0.87269899309E+01  0.11498096240E+03  0.16264687987E+03  0.19941981345E+03  0.41800000000E+01 0.  1.
        -11    1    4    4    0    0 -0.40445630692E+01 -0.62784056274E+02  0.21138144043E+03  0.22054548187E+03  0.00000000000E+00 0. -1.
         11    1    4    4    0    0  0.26700871760E+01 -0.22252569990E+02 -0.24535171103E+01  0.22546085755E+02  0.00000000000E+00 0.  1.
</event>
<event>
 8    1  0.6840084E-009  0.9572285E+02  0.7561462E-02  0.1289556E+00
         -1   -1    0    0    0  501 -0.00000000000E+00  0.00000000000E+00  0.61994903173E+02  0.61994903173E+02  0.00000000000E+00 0.  1.
          1   -1    0    0  501    0  0.00000000000E+00 -0.00000000000E+00 -0.24354961947E+03  0.24354961947E+03  0.00000000000E+00 0. -1.
         25    2    1    2    0    0  0.30937813594E+02  0.34766504404E+02 -0.14595568350E+03  0.19780801304E+03  0.12513628705E+03 0.  0.
         23    2    1    2    0    0 -0.30937813594E+02 -0.34766504404E+02 -0.35599032796E+02  0.10773650961E+03  0.90410210859E+02 0.  0.
          5    1    3    3  502    0  0.68055208726E+02  0.15569603672E+02 -0.13849739588E+03  0.15515451994E+03  0.41800000000E+01 0.  1.
         -5    1    3    3    0  502 -0.37117395131E+02  0.19196900732E+02 -0.74582876233E+01  0.42653493096E+02  0.41800000000E+01 0.  1.
        -11    1    4    4    0    0  0.15880256700E+02 -0.28022712172E+02  0.17473785359E+02  0.36644073533E+02  0.00000000000E+00 0.  1.
         11    1    4    4    0    0 -0.46818070295E+02 -0.67437922324E+01 -0.53072818155E+02  0.71092436073E+02  0.00000000000E+00 0. -1.
</event>
<event>
 8    1  0.6840084E-009  0.1181109E+03  0.7561462E-02  0.1246246E+00
          1   -1    0    0  501    0  0.00000000000E+00  0.00000000000E+00  0.30515377796E+03  0.30515377796E+03  0.00000000000E+00 0. -1.
         -1   -1    0    0    0  501 -0.00000000000E+00 -0.00000000000E+00 -0.56792434236E+02  0.56792434236E+02  0.00000000000E+00 0.  1.
         25    2    1    2    0    0 -0.56016710631E+02 -0.15803375476E+02  0.78593027424E+02  0.15878395436E+03  0.12509141320E+03 0.  0.
         23    2    1    2    0    0  0.56016710631E+02  0.15803375476E+02  0.16976831630E+03  0.20316225784E+03  0.95215561976E+02 0.  0.
          5    1    3    3  502    0 -0.22306705642E+02  0.48503419676E+02  0.26233448665E+01  0.53614598526E+02  0.41800000000E+01 0.  1.
         -5    1    3    3    0  502 -0.33710004989E+02 -0.64306795152E+02  0.75969682558E+02  0.10516935584E+03  0.41800000000E+01 0.  1.
        -11    1    4    4    0    0  0.11264124902E+02 -0.38189446759E+02  0.45413215985E+02  0.60395981155E+02  0.00000000000E+00 0.  1.
         11    1    4    4    0    0  0.44752585729E+02  0.53992822235E+02  0.12435510032E+03  0.14276627668E+03  0.00000000000E+00 0. -1.
</event>
<event>
 8    1  0.6840084E-009  0.1111639E+03  0.7561462E-02  0.1258430E+00
         -1   -1    0    0    0  501 -0.00000000000E+00  0.00000000000E+00  0.41579215514E+02  0.41579215514E+02  0.00000000000E+00 0.  1.
          1   -1    0    0  501    0  0.00000000000E+00 -0.00000000000E+00 -0.49021406218E+03  0.49021406218E+03  0.00000000000E+00 0. -1.
         25    2    1    2    0    0 -0.84247032250E+02  0.45401815272E+02 -0.27296247062E+03  0.31514271115E+03  0.12509009055E+03 0.  0.
         23    2    1    2    0    0  0.84247032250E+02 -0.45401815272E+02 -0.17567237605E+03  0.21665056654E+03  0.83173295016E+02 0.  0.
          5    1    3    3  502    0 -0.10035893417E+03  0.36136048865E+02 -0.11842523655E+03  0.15943568844E+03  0.41800000000E+01 0. -1.
         -5    1    3    3    0  502  0.16111901917E+02  0.92657664072E+01 -0.15453723406E+03  0.15570702271E+03  0.41800000000E+01 0. -1.
        -11    1    4    4    0    0  0.44993402379E+02 -0.31340750852E+02 -0.16462376715E+03  0.17351551410E+03  0.00000000000E+00 0. -1.
         11    1    4    4    0    0  0.39253629871E+02 -0.14061064421E+02 -0.11048608894E+02  0.43135052442E+02  0.00000000000E+00 0.  1.
</event>
<event>
 8    1  0.6840084E-009  0.1069229E+03  0.7561462E-02  0.1266377E+00
         -2   -1    0    0    0  501 -0.00000000000E+00  0.00000000000E+00  0.58115312191E+02  0.58115312191E+02  0.00000000000E+00 0.  1.
          2   -1    0    0  501    0  0.00000000000E+00 -0.00000000000E+00 -0.32685340964E+03  0.32685340964E+03  0.00000000000E+00 0. -1.
         25    2    1    2    0    0 -0.77509119572E+02  0.67075595911E+01 -0.14732604848E+03  0.20833984917E+03  0.12509145941E+03 0.  0.
         23    2    1    2    0    0  0.77509119572E+02 -0.67075595911E+01 -0.12141204897E+03  0.17662887266E+03  0.10200106888E+03 0.  0.
          5    1    3    3  502    0  0.55575176785E+01 -0.49693660740E+01  0.19651488044E+02  0.21429745315E+02  0.41800000000E+01 0.  1.
         -5    1    3    3    0  502 -0.83066637251E+02  0.11676925665E+02 -0.16697753653E+03  0.18691010385E+03  0.41800000000E+01 0.  1.
        -11    1    4    4    0    0 -0.19863674850E+02  0.10439884723E+02 -0.34372692346E+01  0.22701797096E+02  0.00000000000E+00 0.  1.
         11    1    4    4    0    0  0.97372794423E+02 -0.17147444314E+02 -0.11797477973E+03  0.15392707557E+03  0.00000000000E+00 0. -1.
</event>
<event>
 8    1  0.6840084E-009  0.6775033E+02  0.7561462E-02  0.1367915E+00
         -2   -1    0    0    0  501 -0.00000000000E+00  0.00000000000E+00  0.23598188604E+02  0.23598188604E+02  0.00000000000E+00 0. -1.
          2   -1    0    0  501    0  0.00000000000E+00 -0.00000000000E+00 -0.48864827403E+03  0.48864827403E+03  0.00000000000E+00 0.  1.
         25    2    1    2    0    0 -0.28530408952E+02 -0.17575972114E+02 -0.25769560981E+03  0.28840194636E+03  0.12508299772E+03 0.  0.
         23    2    1    2    0    0  0.28530408952E+02  0.17575972114E+02 -0.20735447562E+03  0.22384451628E+03  0.77379518459E+02 0.  0.
          5    1    3    3  502    0  0.57035005072E+01  0.20821246347E+02  0.34031036378E+01  0.22251016423E+02  0.41800000000E+01 0. -1.
         -5    1    3    3    0  502 -0.34233909459E+02 -0.38397218462E+02 -0.26109871345E+03  0.26615092994E+03  0.41800000000E+01 0. -1.
        -11    1    4    4    0    0  0.35439504089E+02 -0.72127580875E+01 -0.18851248827E+03  0.19195035964E+03  0.00000000000E+00 0.  1.
         11    1    4    4    0    0 -0.69090951370E+01  0.24788730202E+02 -0.18841987344E+02  0.31894156639E+02  0.00000000000E+00 0. -1.
</event>
<event>
 8    1  0.6840084E-009  0.1392041E+03  0.7561462E-02  0.1214404E+00
          1   -1    0    0  501    0  0.00000000000E+00  0.00000000000E+00  0.61622685622E+03  0.61622685622E+03  0.00000000000E+00 0. -1.
         -1   -1    0    0    0  501 -0.00000000000E+00 -0.00000000000E+00 -0.33859790526E+02  0.33859790526E+02  0.00000000000E+00 0.  1.
         25    2    1    2    0    0  0.70970915518E+02  0.60768907241E+02  0.27572417961E+03  0.31686281478E+03  0.12509392165E+03 0.  0.
         23    2    1    2    0    0 -0.70970915518E+02 -0.60768907241E+02  0.30664288608E+03  0.33322383196E+03  0.90986436708E+02 0.  0.
          5    1    3    3  502    0  0.10699499809E+03  0.42072225786E+02  0.19483304645E+03  0.22626398341E+03  0.41800000000E+01 0.  1.
         -5    1    3    3    0  502 -0.36024082572E+02  0.18696681456E+02  0.80891133163E+02  0.90598831378E+02  0.41800000000E+01 0.  1.
        -11    1    4    4    0    0 -0.87432955861E+02 -0.60078277162E+02  0.21094613440E+03  0.23611902247E+03  0.00000000000E+00 0.  1.
         11    1    4    4    0    0  0.16462040343E+02 -0.69063007989E+00  0.95696751687E+02  0.97104809488E+02  0.00000000000E+00 0. -1.
</event>
<event>
 8    1  0.6840084E-009  0.1516803E+03  0.7561462E-02  0.1198423E+00
          1   -1    0    0  501    0  0.00000000000E+00  0.00000000000E+00  0.73172075338E+03  0.73172075338E+03  0.00000000000E+00 0. -1.
         -1   -1    0    0    0  501 -0.00000000000E+00 -0.00000000000E+00 -0.34475965023E+02  0.34475965023E+02  0.00000000000E+00 0.  1.
         25    2    1    2    0    0 -0.67054643304E+02  0.88957464875E+02  0.41975400481E+03  0.45194383682E+03  0.12510016524E+03 0.  0.
         23    2    1    2    0    0  0.67054643304E+02 -0.88957464875E+02  0.27749078355E+03  0.31425288159E+03  0.96664279245E+02 0.  0.
          5    1    3    3  502    0 -0.27089235477E+02  0.11440219795E+03  0.33042759218E+03  0.35074428812E+03  0.41800000000E+01 0.  1.
         -5    1    3    3    0  502 -0.39965407827E+02 -0.25444733079E+02  0.89326412627E+02  0.10119954870E+03  0.41800000000E+01 0.  1.
        -11    1    4    4    0    0  0.61852602713E+02 -0.10468541710E+03  0.26991143789E+03  0.29603541228E+03  0.00000000000E+00 0. -1.
         11    1    4    4    0    0  0.52020405905E+01  0.15727952222E+02  0.75793456588E+01  0.18217469309E+02  0.00000000000E+00 0.  1.
</event>
<event>
 8    1  0.6840084E-009  0.9674008E+02  0.7561462E-02  0.1287304E+00
          2   -1    0    0  501    0  0.00000000000E+00  0.00000000000E+00  0.20976026818E+03  0.20976026818E+03  0.00000000000E+00 0. -1.
         -2   -1    0    0    0  501 -0.00000000000E+00 -0.00000000000E+00 -0.63613779244E+02  0.63613779244E+02  0.00000000000E+00 0.  1.
         25    2    1    2    0    0 -0.36757033521E+02 -0.94922206834E+01  0.72778675226E+02  0.14960122452E+03  0.12507041634E+03 0.  0.
         23    2    1    2    0    0  0.36757033521E+02  0.94922206834E+01  0.73367813714E+02  0.12377282290E+03  0.92172088148E+02 0.  0.
          5    1    3    3  502    0 -0.10761495437E+02  0.38827743007E+02  0.84166856982E+02  0.93407363871E+02  0.41800000000E+01 0. -1.
         -5    1    3    3    0  502 -0.25995538084E+02 -0.48319963691E+02 -0.11388181756E+02  0.56193860653E+02  0.41800000000E+01 0. -1.
        -11    1    4    4    0    0  0.62637667658E+02  0.25371359910E+02  0.39463283752E+02  0.78259402488E+02  0.00000000000E+00 0.  1.
         11    1    4    4    0    0 -0.25880634137E+02 -0.15879139227E+02  0.33904529962E+02  0.45513420415E+02  0.00000000000E+00 0. -1.
</event>
<event>
 8    1  0.6840084E-009  0.7659291E+02  0.7561462E-02  0.1339008E+00
         -1   -1    0    0    0  501 -0.00000000000E+00  0.00000000000E+00  0.19081942126E+03  0.19081942126E+03  0.00000000000E+00 0.  1.
          1   -1    0    0  501    0  0.00000000000E+00 -0.00000000000E+00 -0.89393139227E+02  0.89393139227E+02  0.00000000000E+00 0. -1.
         25    2    1    2    0    0 -0.61551263329E+02 -0.28886736897E+02  0.17414937885E+02  0.14343547393E+03  0.12508978189E+03 0.  0.
         23    2    1    2    0    0  0.61551263329E+02  0.28886736897E+02  0.84011344147E+02  0.13677708656E+03  0.83827584220E+02 0.  0.
          5    1    3    3  502    0 -0.35387030189E+02 -0.18342303095E+02 -0.53589889852E+02  0.66918089354E+02  0.41800000000E+01 0. -1.
         -5    1    3    3    0  502 -0.26164233140E+02 -0.10544433803E+02  0.71004827738E+02  0.76517384574E+02  0.41800000000E+01 0. -1.
        -11    1    4    4    0    0  0.30569718277E+02  0.41157852065E+02  0.55937946281E+01  0.51572928950E+02  0.00000000000E+00 0. -1.
         11    1    4    4    0    0  0.30981545051E+02 -0.12271115168E+02  0.78417549519E+02  0.85204157609E+02  0.00000000000E+00 0.  1.
</event>
<event>
 8    1  0.6840084E-009  0.1268612E+03  0.7561462E-02  0.1232189E+00
          1   -1    0    0  501    0  0.00000000000E+00  0.00000000000E+00  0.33808703947E+02  0.33808703947E+02  0.00000000000E+00 0. -1.
         -1   -1    0    0    0  501 -0.00000000000E+00 -0.00000000000E+00 -0.84100621379E+03  0.84100621379E+03  0.00000000000E+00 0.  1.
         25    2    1    2    0    0  0.21337948354E+02  0.12095093842E+03 -0.52971108456E+03  0.55796563201E+03  0.12508947140E+03 0.  0.
         23    2    1    2    0    0 -0.21337948354E+02 -0.12095093842E+03 -0.27748642528E+03  0.31684928572E+03  0.91160935182E+02 0.  0.
          5    1    3    3  502    0  0.29153963672E+02  0.48192678307E+02 -0.59354493045E+02  0.81932387277E+02  0.41800000000E+01 0. -1.
         -5    1    3    3    0  502 -0.78160153181E+01  0.72758260116E+02 -0.47035659152E+03  0.47603324474E+03  0.41800000000E+01 0. -1.
        -11    1    4    4    0    0 -0.20585441366E+02 -0.69364488874E+02 -0.62037212704E+02  0.95309015697E+02  0.00000000000E+00 0.  1.
         11    1    4    4    0    0 -0.75250698708E+00 -0.51586449549E+02 -0.21544921257E+03  0.22154027002E+03  0.00000000000E+00 0. -1.
</event>
<event>
 8    1  0.6840084E-009  0.1536896E+03  0.7561462E-02  0.1196011E+00
         -1   -1    0    0    0  501 -0.00000000000E+00  0.00000000000E+00  0.32407101641E+02  0.32407101641E+02  0.00000000000E+00 0.  1.
          1   -1    0    0  501    0  0.00000000000E+00 -0.00000000000E+00 -0.94534455258E+03  0.94534455258E+03  0.00000000000E+00 0. -1.
         25    2    1    2    0    0  0.87060189261E+02 -0.10421740141E+03 -0.39166185864E+03  0.43299725171E+03  0.12508743008E+03 0.  0.
         23    2    1    2    0    0 -0.87060189261E+02  0.10421740141E+03 -0.52127559229E+03  0.54475440251E+03  0.81168790912E+02 0.  0.
          5    1    3    3  502    0  0.80259396149E+02 -0.11218870285E+03 -0.39715548373E+03  0.42044955271E+03  0.41800000000E+01 0.  1.
         -5    1    3    3    0  502  0.68007931114E+01  0.79713014405E+01  0.54936250894E+01  0.12547699001E+02  0.41800000000E+01 0.  1.
        -11    1    4    4    0    0 -0.88133861967E+02  0.45167833143E+02 -0.31650109188E+03  0.33163330945E+03  0.00000000000E+00 0. -1.
         11    1    4    4    0    0  0.10736727067E+01  0.59049568264E+02 -0.20477450041E+03  0.21312109305E+03  0.00000000000E+00 0.  1.
</event>
<event>
 8    1  0.6840084E-009  0.7381366E+02  0.7561462E-02  0.1347585E+00
          2   -1    0    0  501    0  0.00000000000E+00  0.00000000000E+00  0.30344563684E+03  0.30344563684E+03  0.00000000000E+00 0. -1.
         -2   -1    0    0    0  501 -0.00000000000E+00 -0.00000000000E+00 -0.61175718701E+02  0.61175718701E+02  0.00000000000E+00 0.  1.
         25    2    1    2    0    0  0.63696307489E+01 -0.38471424310E+02  0.22972432212E+03  0.26446439755E+03  0.12509009038E+03 0.  0.
         23    2    1    2    0    0 -0.63696307489E+01  0.38471424310E+02  0.12545596013E+02  0.10015695799E+03  0.91396945083E+02 0.  0.
          5    1    3    3  502    0 -0.24068741705E+02 -0.31046603171E+02  0.77592872525E+01  0.40260089846E+02  0.41800000000E+01 0.  1.
         -5    1    3    3    0  502  0.30438372454E+02 -0.74248211383E+01  0.22196503487E+03  0.22420430770E+03  0.41800000000E+01 0.  1.
        -11    1    4    4    0    0 -0.32562149372E+02  0.38365254778E+02  0.38441562038E+02  0.63324087343E+02  0.00000000000E+00 0. -1.
         11    1    4    4    0    0  0.26192518624E+02  0.10616953206E+00 -0.25895966026E+02  0.36832870648E+02  0.00000000000E+00 0.  1.
</event>
<event>
 8    1  0.6840084E-009  0.1184723E+03  0.7561462E-02  0.1245639E+00
          2   -1    0    0  501    0  0.00000000000E+00  0.00000000000E+00  0.53161336333E+03  0.53161336333E+03  0.00000000000E+00 0. -1.
         -2   -1    0    0    0  501 -0.00000000000E+00 -0.00000000000E+00 -0.33009039104E+02  0.33009039104E+02  0.00000000000E+00 0.  1.
         25    2    1    2    0    0  0.24844384776E+01 -0.47405294780E+02  0.15481831282E+03  0.20462176376E+03  0.12509165366E+03 0.  0.
         23    2    1    2    0    0 -0.24844384776E+01  0.47405294780E+02  0.34378601141E+03  0.36000063867E+03  0.95698504662E+02 0.  0.
          5    1    3    3  502    0 -0.38993044432E+02 -0.71848003930E+02  0.11915800493E+03  0.14456381193E+03  0.41800000000E+01 0. -1.
         -5    1    3    3    0  502  0.41477482909E+02  0.24442709150E+02  0.35660307889E+02  0.60057951828E+02  0.41800000000E+01 0. -1.
        -11    1    4    4    0    0 -0.25257965760E+02 -0.22139246748E+02  0.11380219228E+03  0.11865517287E+03  0.00000000000E+00 0. -1.
         11    1    4    4    0    0  0.22773527282E+02  0.69544541529E+02  0.22998381913E+03  0.24134546581E+03  0.00000000000E+00 0.  1.
</event>
<event>
 8    1  0.6840084E-009  0.1521176E+03  0.7561462E-02  0.1197895E+00
         -2   -1    0    0    0  501 -0.00000000000E+00  0.00000000000E+00  0.22324247804E+03  0.22324247804E+03  0.00000000000E+00 0.  1.
          2   -1    0    0  501    0  0.00000000000E+00 -0.00000000000E+00 -0.13506564136E+03  0.13506564136E+03  0.00000000000E+00 0. -1.
         25    2    1    2    0    0 -0.11791238705E+03  0.51348708206E+01  0.11813240933E+03  0.20864291048E+03  0.12508756948E+03 0.  0.
         23    2    1    2    0    0  0.11791238705E+03 -0.51348708206E+01 -0.29955572652E+02  0.14966520892E+03  0.87020919953E+02 0.  0.
          5    1    3    3  502    0 -0.13163252137E+03  0.29717353517E+02  0.68413434379E+02  0.15135426055E+03  0.41800000000E+01 0.  1.
         -5    1    3    3    0  502  0.13720134314E+02 -0.24582482697E+02  0.49718974946E+02  0.57288649930E+02  0.41800000000E+01 0.  1.
        -11    1    4    4    0    0  0.13087715061E+02  0.27933533872E+02 -0.24880944972E+02  0.39631200118E+02  0.00000000000E+00 0. -1.
         11    1    4    4    0    0  0.10482467199E+03 -0.33068404692E+02 -0.50746276799E+01  0.11003400880E+03  0.00000000000E+00 0.  1.
</event>
<event>
 8    1  0.6840084E-009  0.6963988E+02  0.7561462E-02  0.1361322E+00
         -1   -1    0    0    0  501 -0.00000000000E+00  0.00000000000E+00  0.25425097918E+02  0.25425097918E+02  0.00000000000E+00 0.  1.
          1   -1    0    0  501    0  0.00000000000E+00 -0.00000000000E+00 -0.66858664131E+03  0.66858664131E+03  0.00000000000E+00 0. -1.
         25    2    1    2    0    0  0.18156146774E+02  0.31035434452E+02 -0.51864306322E+03  0.53472149139E+03  0.12507438776E+03 0.  0.
         23    2    1    2    0    0 -0.18156146774E+02 -0.31035434452E+02 -0.12451848017E+03  0.15929024783E+03  0.92605006849E+02 0.  0.
          5    1    3    3  502    0  0.20308580232E+02  0.29905932725E+01 -0.67070778983E+01  0.21996349086E+02  0.41800000000E+01 0. -1.
         -5    1    3    3    0  502 -0.21524334579E+01  0.28044841180E+02 -0.51193598532E+03  0.51272514231E+03  0.41800000000E+01 0. -1.
        -11    1    4    4    0    0 -0.38995613139E+02  0.13058685694E+02 -0.24126795124E+02  0.47679024310E+02  0.00000000000E+00 0.  1.
         11    1    4    4    0    0  0.20839466365E+02 -0.44094120147E+02 -0.10039168505E+03  0.11161122352E+03  0.00000000000E+00 0. -1.
</event>
<event>
 8    1  0.6840084E-009  0.1120408E+03  0.7561462E-02  0.1256837E+00
         -1   -1    0    0    0  501 -0.00000000000E+00  0.00000000000E+00  0.42303628582E+02  0.42303628582E+02  0.00000000000E+00 0.  1.
          1   -1    0    0  501    0  0.00000000000E+00 -0.00000000000E+00 -0.49791127408E+03  0.49791127408E+03  0.00000000000E+00 0. -1.
         25    2    1    2    0    0 -0.96081227625E+02  0.11253974910E+01 -0.27252409942E+03  0.31488048333E+03  0.12508982851E+03 0.  0.
         23    2    1    2    0    0  0.96081227625E+02 -0.11253974910E+01 -0.18308354608E+03  0.22533441933E+03  0.89572020569E+02 0.  0.
          5    1    3    3  502    0 -0.24372418344E+02 -0.53997735180E+01 -0.22951073911E+03  0.23090219596E+03  0.41800000000E+01 0. -1.
         -5    1    3    3    0  502 -0.71708809281E+02  0.65251710090E+01 -0.43013360303E+02  0.83978287371E+02  0.41800000000E+01 0. -1.
        -11    1    4    4    0    0 -0.15143963310E+02  0.25565531632E+01 -0.47536735969E+02  0.49956149325E+02  0.00000000000E+00 0. -1.
         11    1    4    4    0    0  0.11122519094E+03 -0.36819506542E+01 -0.13554681011E+03  0.17537827000E+03  0.00000000000E+00 0.  1.
</event>
<event>
 8    1  0.6840084E-009  0.1193444E+03  0.7561462E-02  0.1244183E+00
         -1   -1    0    0    0  501 -0.00000000000E+00  0.00000000000E+00  0.13516927848E+03  0.13516927848E+03  0.00000000000E+00 0.  1.
          1   -1    0    0  501    0  0.00000000000E+00 -0.00000000000E+00 -0.15388868863E+03  0.15388868863E+03  0.00000000000E+00 0. -1.
         25    2    1    2    0    0  0.74344546211E+02 -0.36288606638E+02  0.35614808493E+02  0.15414255836E+03  0.12509012427E+03 0.  0.
         23    2    1    2    0    0 -0.74344546211E+02  0.36288606638E+02 -0.54334218644E+02  0.13491540875E+03  0.91684162638E+02 0.  0.
          5    1    3    3  502    0  0.20024427581E+02 -0.62895202964E+02  0.59512943188E+02  0.88972170159E+02  0.41800000000E+01 0. -1.
         -5    1    3    3    0  502  0.54320118630E+02  0.26606596327E+02 -0.23898134695E+02  0.65170388198E+02  0.41800000000E+01 0. -1.
        -11    1    4    4    0    0 -0.75125149717E+02  0.55054148731E+02 -0.19230301605E+02  0.95102849128E+02  0.00000000000E+00 0. -1.
         11    1    4    4    0    0  0.78060350682E+00 -0.18765542093E+02 -0.35103917039E+02  0.39812559618E+02  0.00000000000E+00 0.  1.
</event>
<event>
 8    1  0.6840084E-009  0.1021599E+03  0.7561462E-02  0.1275819E+00
         -1   -1    0    0    0  501 -0.00000000000E+00  0.00000000000E+00  0.16973204022E+03  0.16973204022E+03  0.00000000000E+00 0.  1.
          1   -1    0    0  501    0  0.00000000000E+00 -0.00000000000E+00 -0.97000956020E+02  0.97000956020E+02  0.00000000000E+00 0. -1.
         25    2    1    2    0    0  0.56087699365E+02 -0.35408750465E+02  0.23575214842E+02  0.14353802229E+03  0.12509102069E+03 0.  0.
         23    2    1    2    0    0 -0.56087699365E+02  0.35408750465E+02  0.49155869362E+02  0.12319497396E+03  0.91439009653E+02 0.  0.
          5    1    3    3  502    0 -0.11087972290E+02 -0.20980015521E+02 -0.42030184920E+02  0.48447012551E+02  0.41800000000E+01 0.  1.
         -5    1    3    3    0  502  0.67175671655E+02 -0.14428734944E+02  0.65605399762E+02  0.95091009734E+02  0.41800000000E+01 0.  1.
        -11    1    4    4    0    0  0.20100742039E+02  0.28518361510E+02  0.61258909739E+01  0.35424049937E+02  0.00000000000E+00 0. -1.
         11    1    4    4    0    0 -0.76188441404E+02  0.68903889556E+01  0.43029978388E+02  0.87770924021E+02  0.00000000000E+00 0.  1.
</event>
<event>
 7    1  0.6840084E-009  0.1687894E+03  0.7561462E-02  0.1179116E+00
          1   -1    0    0  501    0  0.00000000000E+00  0.00000000000E+00  0.30105177088E+02  0.30105177088E+02  0.00000000000E+00 0. -1.
         -1   -1    0    0    0  501 -0.00000000000E+00 -0.00000000000E+00 -0.12047217351E+04  0.12047217351E+04  0.00000000000E+00 0.  1.
         25    2    1    2    0    0  0.31580252458E+02  0.16246505655E+03 -0.71579481310E+03  0.74525548281E+03  0.12510520869E+03 0.  0.
          5    1    3    3  502    0  0.83151851109E+01  0.13317552922E+03 -0.30749498206E+03  0.33522455202E+03  0.41800000000E+01 0. -1.
         -5    1    3    3    0  502  0.23265067347E+02  0.29289527331E+02 -0.40829983105E+03  0.41003093079E+03  0.41800000000E+01 0. -1.
        -11    1    1    2    0    0 -0.22356643277E+02 -0.69228009966E+02 -0.14762593174E+03  0.16457749720E+03  0.00000000000E+00 0. -1.
         11    1    1    2    0    0 -0.92236091811E+01 -0.93237046583E+02 -0.31119581319E+03  0.32499393220E+03  0.00000000000E+00 0.  1.
</event>
<event>
 8    1  0.6840084E-009  0.1063279E+03  0.7561462E-02  0.1267525E+00
          2   -1    0    0  501    0  0.00000000000E+00  0.00000000000E+00  0.11894079110E+04  0.11894079110E+04  0.00000000000E+00 0. -1.
         -2   -1    0    0    0  501 -0.00000000000E+00 -0.00000000000E+00 -0.11718433837E+02  0.11718433837E+02  0.00000000000E+00 0.  1.
         25    2    1    2    0    0 -0.22054722444E+02 -0.98525292541E+00  0.91311100476E+03  0.92190432605E+03  0.12509395617E+03 0.  0.
         23    2    1    2    0    0  0.22054722444E+02  0.98525292541E+00  0.26457847244E+03  0.27922201882E+03  0.86462628993E+02 0.  0.
          5    1    3    3  502    0  0.25553342686E+01 -0.59966752914E+02  0.53936273578E+03  0.54270818525E+03  0.41800000000E+01 0.  1.
         -5    1    3    3    0  502 -0.24610056712E+02  0.58981499988E+02  0.37374826898E+03  0.37919614080E+03  0.41800000000E+01 0.  1.
        -11    1    4    4    0    0  0.51916481273E+02 -0.15696453756E+02  0.17982806146E+03  0.18782926123E+03  0.00000000000E+00 0. -1.
         11    1    4    4    0    0 -0.29861758830E+02  0.16681706682E+02  0.84750410981E+02  0.91392757588E+02  0.00000000000E+00 0.  1.
</event>
<event>
 8    1  0.6840084E-009  0.8896140E+02  0.7561462E-02  0.1305386E+00
         -2   -1    0    0    0  501 -0.00000000000E+00  0.00000000000E+00  0.47378150242E+02  0.47378150242E+02  0.00000000000E+00 0.  1.
          2   -1    0    0  501    0  0.00000000000E+00 -0.00000000000E+00 -0.27398509457E+03  0.27398509457E+03  0.00000000000E+00 0. -1.
         25    2    1    2    0    0  0.50493426808E+01  0.17022116336E+02 -0.16978915097E+03  0.21163866952E+03  0.12508925751E+03 0.  0.
         23    2    1    2    0    0 -0.50493426808E+01 -0.17022116336E+02 -0.56817793358E+02  0.10972457529E+03  0.92173599662E+02 0.  0.
          5    1    3    3  502    0 -0.29582579827E+02  0.46342096089E+02 -0.26303019050E+02  0.61090425684E+02  0.41800000000E+01 0. -1.
         -5    1    3    3    0  502  0.34631922508E+02 -0.29319979753E+02 -0.14348613192E+03  0.15054824384E+03  0.41800000000E+01 0. -1.
        -11    1    4    4    0    0  0.33096491041E+02 -0.20469330582E+02  0.26332314739E+01  0.39003911621E+02  0.00000000000E+00 0.  1.
         11    1    4    4    0    0 -0.38145833722E+02  0.34472142463E+01 -0.59451024832E+02  0.70720663670E+02  0.00000000000E+00 0. -1.
</event>
<event>
 8    1  0.6840084E-009  0.1561237E+03  0.7561462E-02  0.1193144E+00
          1   -1    0    0  501    0  0.00000000000E+00  0.00000000000E+00  0.71659603981E+03  0.71659603981E+03  0.00000000000E+00 0. -1.
         -1   -1    0    0    0  501 -0.00000000000E+00 -0.00000000000E+00 -0.42136571441E+02  0.42136571441E+02  0.00000000000E+00 0.  1.
         25    2    1    2    0    0 -0.10638288491E+03  0.79944663319E+02  0.37027517026E+03  0.41286776881E+03  0.12509046894E+03 0.  0.
         23    2    1    2    0    0  0.10638288491E+03 -0.79944663319E+02  0.30418429811E+03  0.34586484244E+03  0.96881033353E+02 0.  0.
          5    1    3    3  502    0 -0.74899316489E+02 -0.10753227882E+02  0.23512097279E+03  0.24703215128E+03  0.41800000000E+01 0. -1.
         -5    1    3    3    0  502 -0.31483568421E+02  0.90697891201E+02  0.13515419746E+03  0.16583561753E+03  0.41800000000E+01 0. -1.
        -11    1    4    4    0    0  0.45211117009E+02 -0.79689672487E+01  0.20014268909E+03  0.20534031639E+03  0.00000000000E+00 0. -1.
         11    1    4    4    0    0  0.61171767902E+02 -0.71975696070E+02  0.10404160902E+03  0.14052452605E+03  0.00000000000E+00 0.  1.
</event>
<event>
 8    1  0.6840084E-009  0.1232212E+03  0.7561462E-02  0.1237876E+00
         -1   -1    0    0    0  501 -0.00000000000E+00  0.00000000000E+00  0.22902144567E+02  0.22902144567E+02  0.00000000000E+00 0.  1.
          1   -1    0    0  501    0  0.00000000000E+00 -0.00000000000E+00 -0.81018937135E+03  0.81018937135E+03  0.00000000000E+00 0. -1.
         25    2    1    2    0    0  0.30566778643E+02  0.75242632317E+02 -0.42482438694E+03  0.45024247436E+03  0.12508694698E+03 0.  0.
         23    2    1    2    0    0 -0.30566778643E+02 -0.75242632317E+02 -0.36246283983E+03  0.38284904155E+03  0.92727000811E+02 0.  0.
          5    1    3    3  502    0  0.23193109564E+02  0.98811110536E+02 -0.20289229054E+03  0.22690154221E+03  0.41800000000E+01 0. -1.
         -5    1    3    3    0  502  0.73736690788E+01 -0.23568478219E+02 -0.22193209640E+03  0.22334093216E+03  0.41800000000E+01 0. -1.
        -11    1    4    4    0    0 -0.45552122471E+02 -0.25837656244E+01 -0.18416555524E+03  0.18973303203E+03  0.00000000000E+00 0. -1.
         11    1    4    4    0    0  0.14985343828E+02 -0.72658866693E+02 -0.17829728459E+03  0.19311600952E+03  0.00000000000E+00 0.  1.
</event>
<event>
 8    1  0.6840084E-009  0.1509059E+03  0.7561462E-02  0.1199364E+00
          2   -1    0    0  501    0  0.00000000000E+00  0.00000000000E+00  0.86422085715E+03  0.86422085715E+03  0.00000000000E+00 0. -1.
         -2   -1    0    0    0  501 -0.00000000000E+00 -0.00000000000E+00 -0.27191559842E+02  0.27191559842E+02  0.00000000000E+00 0.  1.
         25    2    1    2    0    0 -0.61009052141E+02  0.84969368769E+02  0.51887142201E+03  0.54389084566E+03  0.12509117211E+03 0.  0.
         23    2    1    2    0    0  0.61009052141E+02 -0.84969368769E+02  0.31815787530E+03  0.34752157133E+03  0.92762658733E+02 0.  0.
          5    1    3    3  502    0  0.37050414361E+02  0.39927481228E+02  0.19370797463E+03  0.20126397789E+03  0.41800000000E+01 0. -1.
         -5    1    3    3    0  502 -0.98059466502E+02  0.45041887541E+02  0.32516344739E+03  0.34262686777E+03  0.41800000000E+01 0. -1.
        -11    1    4    4    0    0  0.56232126044E+02 -0.21901460735E+01  0.11287564021E+03  0.12612596438E+03  0.00000000000E+00 0.  1.
         11    1    4    4    0    0  0.47769260971E+01 -0.82779222696E+02  0.20528223509E+03  0.22139560695E+03  0.00000000000E+00 0. -1.
</event>
<event>
 8    1  0.6840084E-009  0.1081611E+03  0.7561462E-02  0.1264014E+00
         -2   -1    0    0    0  501 -0.00000000000E+00  0.00000000000E+00  0.14820344217E+02  0.14820344217E+02  0.00000000000E+00 0.  1.
          2   -1    0    0  501    0  0.00000000000E+00 -0.00000000000E+00 -0.11686548090E+04  0.11686548090E+04  0.00000000000E+00 0. -1.
         25    2    1    2    0    0 -0.26307233191E+02 -0.19599616812E+02 -0.94219839850E+03  0.95103177382E+03  0.12508955665E+03 0.  0.
         23    2    1    2    0    0  0.26307233191E+02  0.19599616812E+02 -0.21163606630E+03  0.23244337941E+03  0.90354217262E+02 0.  0.
          5    1    3    3  502    0  0.41584829400E+02 -0.40110519766E+02 -0.38884335149E+03  0.39313455232E+03  0.41800000000E+01 0.  1.
         -5    1    3    3    0  502 -0.67892062590E+02  0.20510902954E+02 -0.55335504701E+03  0.55789722149E+03  0.41800000000E+01 0.  1.
        -11    1    4    4    0    0 -0.10443654777E+02  0.42688077217E+02 -0.15488078600E+03  0.16099503015E+03  0.00000000000E+00 0. -1.
         11    1    4    4    0    0  0.36750887968E+02 -0.23088460405E+02 -0.56755280297E+02  0.71448349259E+02  0.00000000000E+00 0.  1.
</event>
<event>
 8    1  0.6840084E-009  0.1110402E+03  0.7561462E-02  0.1258656E+00
          1   -1    0    0  501    0  0.00000000000E+00  0.00000000000E+00  0.13233550361E+03  0.13233550361E+03  0.00000000000E+00 0. -1.
         -1   -1    0    0    0  501 -0.00000000000E+00 -0.00000000000E+00 -0.19542922268E+03  0.19542922268E+03  0.00000000000E+00 0.  1.
         25    2    1    2    0    0 -0.24136746503E+02  0.79793455829E+02  0.50770554203E+02  0.15867609099E+03  0.12510345540E+03 0.  0.
         23    2    1    2    0    0  0.24136746503E+02 -0.79793455829E+02 -0.11386427328E+03  0.16908863530E+03  0.93146743017E+02 0.  0.
          5    1    3    3  502    0 -0.63223751015E+02  0.54610133649E+02 -0.75312181779E+01  0.83986314580E+02  0.41800000000E+01 0.  1.
         -5    1    3    3    0  502  0.39087004512E+02  0.25183322181E+02  0.58301772381E+02  0.74689776412E+02  0.41800000000E+01 0.  1.
        -11    1    4    4    0    0  0.34580120098E+02 -0.65196403122E+02 -0.12697360055E+03  0.14686269412E+03  0.00000000000E+00 0.  1.
         11    1    4    4    0    0 -0.10443373595E+02 -0.14597052708E+02  0.13109327279E+02  0.22225941183E+02  0.00000000000E+00 0. -1.
</event>
<event>
 7    1  0.6840084E-009  0.1048511E+03  0.7561462E-02  0.1270413E+00
         -3   -1    0    0    0  501 -0.00000000000E+00  0.00000000000E+00  0.92268931982E+02  0.92268931982E+02  0.00000000000E+00 0.  1.
          3   -1    0    0  501    0  0.00000000000E+00 -0.00000000000E+00 -0.15318346809E+03  0.15318346809E+03  0.00000000000E+00 0. -1.
         23    2    1    2    0    0  0.15394640694E+01  0.44632996556E+02 -0.39984908470E+02  0.11106906176E+03  0.93504380880E+02 0.  0.
          5    1    1    2  502    0 -0.51974706206E+02 -0.31551544606E+02  0.23956047154E+02  0.65484613823E+02  0.41800000000E+01 0.  1.
         -5    1    1    2    0  502  0.50435242137E+02 -0.13081451949E+02 -0.44885674792E+02  0.68898724487E+02  0.41800000000E+01 0.  1.
        -11    1    3    3    0    0 -0.20767508767E+02  0.63787473071E+02 -0.78950066790E+01  0.67546001152E+02  0.00000000000E+00 0.  1.
         11    1    3    3    0    0  0.22306972836E+02 -0.19154476516E+02 -0.32089901790E+02  0.43523060607E+02  0.00000000000E+00 0. -1.
</event>
<event>
 8    1  0.6840084E-009  0.1102536E+03  0.7561462E-02  0.1260101E+00
         -1   -1    0    0    0  501 -0.00000000000E+00  0.00000000000E+00  0.11302584160E+03  0.11302584160E+03  0.00000000000E+00 0.  1.
          1   -1    0    0  501    0  0.00000000000E+00 -0.00000000000E+00 -0.16809538029E+03  0.16809538029E+03  0.00000000000E+00 0. -1.
         25    2    1    2    0    0  0.10848552787E+02  0.67290303687E+02 -0.78825200732E+02  0.16280985266E+03  0.12509180543E+03 0.  0.
         23    2    1    2    0    0 -0.10848552787E+02 -0.67290303687E+02  0.23755662048E+02  0.11831136923E+03  0.93742053219E+02 0.  0.
          5    1    3    3  502    0  0.19611426450E+02 -0.15558160736E+02  0.20842672879E+02  0.32841343238E+02  0.41800000000E+01 0. -1.
         -5    1    3    3    0  502 -0.87628736626E+01  0.82848464423E+02 -0.99667873611E+02  0.12996850943E+03  0.41800000000E+01 0. -1.
        -11    1    4    4    0    0  0.37465061768E+02 -0.14559816671E+02  0.23959303220E+02  0.46793881284E+02  0.00000000000E+00 0. -1.
         11    1    4    4    0    0 -0.48313614556E+02 -0.52730487016E+02 -0.20364117165E+00  0.71517487946E+02  0.00000000000E+00 0.  1.
</event>
<event>
 8    1  0.6840084E-009  0.1411357E+03  0.7561462E-02  0.1211809E+00
          1   -1    0    0  501    0  0.00000000000E+00  0.00000000000E+00  0.63217248048E+02  0.63217248048E+02  0.00000000000E+00 0. -1.
         -1   -1    0    0    0  501 -0.00000000000E+00 -0.00000000000E+00 -0.45187807762E+03  0.45187807762E+03  0.00000000000E+00 0.  1.
         25    2    1    2    0    0  0.47804081941E+02 -0.99832110546E+02 -0.11000519670E+03  0.20000094224E+03  0.12509017966E+03 0.  0.
         23    2    1    2    0    0 -0.47804081941E+02  0.99832110546E+02 -0.27865563287E+03  0.31509438343E+03  0.96870161530E+02 0.  0.
          5    1    3    3  502    0  0.67897759031E+02 -0.47811749763E+01 -0.59105452038E+02  0.90243515979E+02  0.41800000000E+01 0. -1.
         -5    1    3    3    0  502 -0.20093677090E+02 -0.95050935569E+02 -0.50899744664E+02  0.10975742626E+03  0.41800000000E+01 0. -1.
        -11    1    4    4    0    0 -0.33942179566E+01  0.49885465639E+02 -0.31579640868E+02  0.59138431793E+02  0.00000000000E+00 0. -1.
         11    1    4    4    0    0 -0.44409863985E+02  0.49946644907E+02 -0.24707599200E+03  0.25595595164E+03  0.00000000000E+00 0.  1.
</event>
<event>
 8    1  0.6840084E-009  0.9955091E+02  0.7561462E-02  0.1281243E+00
          1   -1    0    0  501    0  0.00000000000E+00  0.00000000000E+00  0.45581205570E+03  0.45581205570E+03  0.00000000000E+00 0. -1.
         -1   -1    0    0    0  501 -0.00000000000E+00 -0.00000000000E+00 -0.41592815737E+02  0.41592815737E+02  0.00000000000E+00 0.  1.
         25    2    1    2    0    0 -0.10295902055E+02  0.16822704607E+02  0.37611340457E+03  0.39686011463E+03  0.12509056118E+03 0.  0.
         23    2    1    2    0    0  0.10295902055E+02 -0.16822704607E+02  0.38105835390E+02  0.10054475681E+03  0.90929557576E+02 0.  0.
          5    1    3    3  502    0  0.42224136547E+02 -0.15789767958E+02  0.27169356338E+03  0.27543975614E+03  0.41800000000E+01 0.  1.
         -5    1    3    3    0  502 -0.52520038602E+02  0.32612472565E+02  0.10441984119E+03  0.12142035849E+03  0.41800000000E+01 0.  1.
        -11    1    4    4    0    0 -0.28909591857E+02 -0.37652110751E+02  0.11703520709E+02  0.48891904671E+02  0.00000000000E+00 0.  1.
         11    1    4    4    0    0  0.39205493912E+02  0.20829406144E+02  0.26402314681E+02  0.51652852135E+02  0.00000000000E+00 0. -1.
</event>
<event>
 8    1  0.6840084E-009  0.9632810E+02  0.7561462E-02  0.1288213E+00
          1   -1    0    0  501    0  0.00000000000E+00  0.00000000000E+00  0.72164379567E+02  0.72164379567E+02  0.00000000000E+00 0. -1.
         -1   -1    0    0    0  501 -0.00000000000E+00 -0.00000000000E+00 -0.24222493580E+03  0.24222493580E+03  0.00000000000E+00 0.  1.
         25    2    1    2    0    0  0.19155607668E+01 -0.39029512420E+02 -0.17215004797E+02  0.13217855065E+03  0.12509132923E+03 0.  0.
         23    2    1    2    0    0 -0.19155607668E+01  0.39029512420E+02 -0.15284555144E+03  0.18221076472E+03  0.91170323976E+02 0.  0.
          5    1    3    3  502    0  0.15276763520E+02  0.34091786202E+02  0.26361846155E+02  0.45913491729E+02  0.41800000000E+01 0.  1.
         -5    1    3    3    0  502 -0.13361202754E+02 -0.73121298621E+02 -0.43576850952E+02  0.86265058917E+02  0.41800000000E+01 0.  1.
        -11    1    4    4    0    0 -0.30881089844E+02  0.41291389503E+02 -0.14221436377E+03  0.15127308359E+03  0.00000000000E+00 0.  1.
         11    1    4    4    0    0  0.28965529077E+02 -0.22618770837E+01 -0.10631187671E+02  0.30937681134E+02  0.00000000000E+00 0. -1.
</event>
<event>
 8    1  0.6840084E-009  0.1481314E+03  0.7561462E-02  0.1202788E+00
         -2   -1    0    0    0  501 -0.00000000000E+00  0.00000000000E+00  0.16958247585E+02  0.16958247585E+02  0.00000000000E+00 0.  1.
          2   -1    0    0  501    0  0.00000000000E+00 -0.00000000000E+00 -0.16274620937E+04  0.16274620937E+04  0.00000000000E+00 0. -1.
         25    2    1    2    0    0 -0.87769584860E+02 -0.80987341832E+02 -0.10699059891E+04  0.10837939719E+04  0.12509235944E+03 0.  0.
         23    2    1    2    0    0  0.87769584860E+02  0.80987341832E+02 -0.54059785698E+03  0.56062636937E+03  0.88280425385E+02 0.  0.
          5    1    3    3  502    0 -0.15203478453E+02 -0.74683968421E+02 -0.27043306096E+03  0.28099885010E+03  0.41800000000E+01 0.  1.
         -5    1    3    3    0  502 -0.72566106407E+02 -0.63033734105E+01 -0.79947292817E+03  0.80279512180E+03  0.41800000000E+01 0.  1.
        -11    1    4    4    0    0  0.38986545726E+01  0.60514294389E+02 -0.18437701559E+03  0.19409292417E+03  0.00000000000E+00 0. -1.
         11    1    4    4    0    0  0.83870930287E+02  0.20473047443E+02 -0.35622084138E+03  0.36653344521E+03  0.00000000000E+00 0.  1.
</event>
<event>
 8    1  0.6840084E-009  0.2162593E+03  0.7561462E-02  0.1136703E+00
          2   -1    0    0  501    0  0.00000000000E+00  0.00000000000E+00  0.69911052682E+03  0.69911052682E+03  0.00000000000E+00 0.  1.
         -2   -1    0    0    0  501 -0.00000000000E+00 -0.00000000000E+00 -0.11759488128E+03  0.11759488128E+03  0.00000000000E+00 0. -1.
         25    2    1    2    0    0 -0.21258162549E+03  0.22004706344E+02  0.51757343984E+03  0.57376394041E+03  0.12509052357E+03 0.  0.
         23    2    1    2    0    0  0.21258162549E+03 -0.22004706344E+02  0.63942205707E+02  0.24294146769E+03  0.96212246931E+02 0.  0.
          5    1    3    3  502    0 -0.93932115567E+02 -0.10384641121E+02  0.36855043420E+03  0.38049701452E+03  0.41800000000E+01 0.  1.
         -5    1    3    3    0  502 -0.11864950992E+03  0.32389347464E+02  0.14902300563E+03  0.19326692589E+03  0.41800000000E+01 0.  1.
        -11    1    4    4    0    0  0.11184594844E+03 -0.22678335967E+02 -0.14803641141E+02  0.11507810780E+03  0.00000000000E+00 0. -1.
         11    1    4    4    0    0  0.10073567705E+03  0.67362962346E+00  0.78745846848E+02  0.12786335989E+03  0.00000000000E+00 0.  1.
</event>
<event>
 7    1  0.6840084E-009  0.1091647E+03  0.7561462E-02  0.1262125E+00
         -1   -1    0    0    0  501 -0.00000000000E+00  0.00000000000E+00  0.54310686368E+02  0.54310686368E+02  0.00000000000E+00 0.  1.
          1   -1    0    0  501    0  0.00000000000E+00 -0.00000000000E+00 -0.39570070137E+03  0.39570070137E+03  0.00000000000E+00 0. -1.
         23    2    1    2    0    0 -0.32965680394E+02 -0.29024879338E+02 -0.28579242640E+03  0.30603258162E+03  0.10024694669E+03 0.  0.
          5    1    1    2  502    0  0.93202476752E+01 -0.39318579771E+02  0.14541322576E+02  0.43147887483E+02  0.41800000000E+01 0.  1.
         -5    1    1    2    0  502  0.23645432718E+02  0.68343459110E+02 -0.70138911178E+02  0.10083091863E+03  0.41800000000E+01 0.  1.
        -11    1    3    3    0    0 -0.27827928397E+02  0.32921821788E+02 -0.77725467709E+02  0.88879065473E+02  0.00000000000E+00 0.  1.
         11    1    3    3    0    0 -0.51377519970E+01 -0.61946701126E+02 -0.20806695869E+03  0.21715351615E+03  0.00000000000E+00 0. -1.
</event>
<event>
 8    1  0.6840084E-009  0.1050721E+03  0.7561462E-02  0.1269978E+00
          2   -1    0    0  501    0  0.00000000000E+00  0.00000000000E+00  0.80144696880E+03  0.80144696880E+03  0.00000000000E+00 0.  1.
         -2   -1    0    0    0  501 -0.00000000000E+00 -0.00000000000E+00 -0.21279190439E+02  0.21279190439E+02  0.00000000000E+00 0. -1.
         25    2    1    2    0    0 -0.63076473174E+02  0.25427294797E+02  0.51321535423E+03  0.53259982084E+03  0.12508949014E+03 0.  0.
         23    2    1    2    0    0  0.63076473174E+02 -0.25427294797E+02  0.26695242412E+03  0.29012633840E+03  0.91019265537E+02 0.  0.
          5    1    3    3  502    0 -0.44268134214E+02 -0.37231580230E+02  0.11260948376E+03  0.12666580638E+03  0.41800000000E+01 0. -1.
         -5    1    3    3    0  502 -0.18808338960E+02  0.62658875028E+02  0.40060587047E+03  0.40593401446E+03  0.41800000000E+01 0. -1.
        -11    1    4    4    0    0  0.28966994793E+02  0.15873218122E+02  0.22723515087E+02  0.40092442914E+02  0.00000000000E+00 0. -1.
         11    1    4    4    0    0  0.34109478381E+02 -0.41300512919E+02  0.24422890904E+03  0.25003389549E+03  0.00000000000E+00 0.  1.
</event>
<event>
 8    1  0.6840084E-009  0.1149061E+03  0.7561462E-02  0.1251745E+00
          2   -1    0    0  501    0  0.00000000000E+00  0.00000000000E+00  0.59094529558E+02  0.59094529558E+02  0.00000000000E+00 0.  1.
         -2   -1    0    0    0  501 -0.00000000000E+00 -0.00000000000E+00 -0.28416562690E+03  0.28416562690E+03  0.00000000000E+00 0. -1.
         25    2    1    2    0    0 -0.11733087163E+01  0.39678380376E+02 -0.20369384177E+03  0.24231072905E+03  0.12509019833E+03 0.  0.
         23    2    1    2    0    0  0.11733087163E+01 -0.39678380376E+02 -0.21377255577E+02  0.10094942741E+03  0.90321920459E+02 0.  0.
          5    1    3    3  502    0 -0.32537172186E+02  0.76125186369E+02 -0.12462971118E+03  0.14967881908E+03  0.41800000000E+01 0. -1.
         -5    1    3    3    0  502  0.31363863470E+02 -0.36446805994E+02 -0.79064130588E+02  0.92631909969E+02  0.41800000000E+01 0. -1.
        -11    1    4    4    0    0  0.22710522985E+02 -0.62964727834E+02 -0.15007155058E+02  0.68596935124E+02  0.00000000000E+00 0. -1.
         11    1    4    4    0    0 -0.21537214269E+02  0.23286347458E+02 -0.63701005190E+01  0.32352492285E+02  0.00000000000E+00 0.  1.
</event>
<event>
 8    1  0.6840084E-009  0.1770593E+03  0.7561462E-02  0.1170680E+00
          1   -1    0    0  501    0  0.00000000000E+00  0.00000000000E+00  0.10861518009E+03  0.10861518009E+03  0.00000000000E+00 0. -1.
         -1   -1    0    0    0  501 -0.00000000000E+00 -0.00000000000E+00 -0.37942314085E+03  0.37942314085E+03  0.00000000000E+00 0.  1.
         25    2    1    2    0    0 -0.35116359101E+02 -0.15470874306E+03 -0.88585349250E+02  0.22059579767E+03  0.12508872049E+03 0.  0.
         23    2    1    2    0    0  0.35116359101E+02  0.15470874306E+03 -0.18222261151E+03  0.26744252327E+03  0.11468421536E+03 0.  0.
          5    1    3    3  502    0  0.16915151513E+02  0.36573519205E+01 -0.44782074068E+02  0.48191338762E+02  0.41800000000E+01 0.  1.
         -5    1    3    3    0  502 -0.52031510614E+02 -0.15836609498E+03 -0.43803275182E+02  0.17240445891E+03  0.41800000000E+01 0.  1.
        -11    1    4    4    0    0  0.33957174144E+02  0.31388281159E+02 -0.12145079552E+03  0.12995618340E+03  0.00000000000E+00 0.  1.
         11    1    4    4    0    0  0.11591849568E+01  0.12332046190E+03 -0.60771815987E+02  0.13748633987E+03  0.00000000000E+00 0. -1.
</event>
<event>
 8    1  0.6840084E-009  0.1158789E+03  0.7561462E-02  0.1250055E+00
          1   -1    0    0  501    0  0.00000000000E+00  0.00000000000E+00  0.69182272548E+03  0.69182272548E+03  0.00000000000E+00 0. -1.
         -1   -1    0    0    0  501 -0.00000000000E+00 -0.00000000000E+00 -0.20080089999E+02  0.20080089999E+02  0.00000000000E+00 0.  1.
         25    2    1    2    0    0 -0.19721496797E+02 -0.37718960031E+02  0.31921070545E+03  0.34547710471E+03  0.12508916028E+03 0.  0.
         23    2    1    2    0    0  0.19721496797E+02  0.37718960031E+02  0.35253193003E+03  0.36642571077E+03  0.90428880584E+02 0.  0.
          5    1    3    3  502    0 -0.72065277827E+02 -0.32114810028E+02  0.17947596403E+03  0.19609655621E+03  0.41800000000E+01 0.  1.
         -5    1    3    3    0  502  0.52343781030E+02 -0.56041500028E+01  0.13973474142E+03  0.14938054850E+03  0.41800000000E+01 0.  1.
        -11    1    4    4    0    0  0.39675003062E+02 -0.15890593120E+02  0.14919010457E+03  0.15519118570E+03  0.00000000000E+00 0.  1.
         11    1    4    4    0    0 -0.19953506265E+02  0.53609553151E+02  0.20334182546E+03  0.21123452507E+03  0.00000000000E+00 0. -1.
</event>
<event>
 8    1  0.6840084E-009  0.2415792E+03  0.7561462E-02  0.1118745E+00
          1   -1    0    0  501    0  0.00000000000E+00  0.00000000000E+00  0.81586059609E+03  0.81586059609E+03  0.00000000000E+00 0. -1.
         -1   -1    0    0    0  501 -0.00000000000E+00 -0.00000000000E+00 -0.74532863894E+02  0.74532863894E+02  0.00000000000E+00 0.  1.
         25    2    1    2    0    0 -0.12359802785E+02 -0.22006904924E+03  0.34078043789E+03  0.42469060600E+03  0.12509057845E+03 0.  0.
         23    2    1    2    0    0  0.12359802785E+02  0.22006904924E+03  0.40054729431E+03  0.46570285399E+03  0.88644582906E+02 0.  0.
          5    1    3    3  502    0 -0.45780483052E+02 -0.21062308165E+03  0.26805440212E+03  0.34398920048E+03  0.41800000000E+01 0.  1.
         -5    1    3    3    0  502  0.33420680267E+02 -0.94459675818E+01  0.72726035770E+02  0.80701405514E+02  0.41800000000E+01 0.  1.
        -11    1    4    4    0    0 -0.26275575901E+02  0.15262207671E+03  0.21909590253E+03  0.26830378062E+03  0.00000000000E+00 0.  1.
         11    1    4    4    0    0  0.38635378685E+02  0.67446972524E+02  0.18145139178E+03  0.19739907337E+03  0.00000000000E+00 0. -1.
</event>
<event>
 8    1  0.6840084E-009  0.1058657E+03  0.7561462E-02  0.1268423E+00
          2   -1    0    0  501    0  0.00000000000E+00  0.00000000000E+00  0.10438629108E+03  0.10438629108E+03  0.00000000000E+00 0. -1.
         -2   -1    0    0    0  501 -0.00000000000E+00 -0.00000000000E+00 -0.20456624487E+03  0.20456624487E+03  0.00000000000E+00 0.  1.
         25    2    1    2    0    0  0.13785058204E+02  0.95701415770E+02 -0.57394526364E+02  0.16819377471E+03  0.12508487273E+03 0.  0.
         23    2    1    2    0    0 -0.13785058204E+02 -0.95701415770E+02 -0.42785427428E+02  0.14075876123E+03  0.92917421688E+02 0.  0.
          5    1    3    3  502    0  0.31487352459E+02  0.84741110130E+02 -0.91065262423E+02  0.12838560484E+03  0.41800000000E+01 0.  1.
         -5    1    3    3    0  502 -0.17702294255E+02  0.10960305640E+02  0.33670736058E+02  0.39808169869E+02  0.41800000000E+01 0.  1.
        -11    1    4    4    0    0  0.80330289188E+00 -0.73047886785E+02  0.17156054402E+02  0.75039784528E+02  0.00000000000E+00 0. -1.
         11    1    4    4    0    0 -0.14588361096E+02 -0.22653528984E+02 -0.59941481830E+02  0.65718976703E+02  0.00000000000E+00 0.  1.
</event>
<event>
 8    1  0.6840084E-009  0.1019242E+03  0.7561462E-02  0.1276301E+00
          3   -1    0    0  501    0  0.00000000000E+00  0.00000000000E+00  0.24147955370E+02  0.24147955370E+02  0.00000000000E+00 0. -1.
         -3   -1    0    0    0  501 -0.00000000000E+00 -0.00000000000E+00 -0.60847692596E+03  0.60847692596E+03  0.00000000000E+00 0.  1.
         25    2    1    2    0    0  0.36323462530E+02 -0.19247263664E+02 -0.22923355717E+03  0.26435815805E+03  0.12508941165E+03 0.  0.
         23    2    1    2    0    0 -0.36323462530E+02  0.19247263664E+02 -0.35509541342E+03  0.36826672328E+03  0.88531213449E+02 0.  0.
          5    1    3    3  502    0 -0.15703588528E+02  0.38612281185E+02 -0.13879782010E+03  0.14498213068E+03  0.41800000000E+01 0. -1.
         -5    1    3    3    0  502  0.52027051058E+02 -0.57859544849E+02 -0.90435737066E+02  0.11937602737E+03  0.41800000000E+01 0. -1.
        -11    1    4    4    0    0 -0.49438597798E+02 -0.11366147899E+02 -0.29700804639E+03  0.30130905046E+03  0.00000000000E+00 0.  1.
         11    1    4    4    0    0  0.13115135268E+02  0.30613411563E+02 -0.58087367028E+02  0.66957672815E+02  0.00000000000E+00 0. -1.
</event>
<event>
 8    1  0.6840084E-009  0.2151227E+03  0.7561462E-02  0.1137572E+00
         -2   -1    0    0    0  501 -0.00000000000E+00  0.00000000000E+00  0.69561930674E+03  0.69561930674E+03  0.00000000000E+00 0.  1.
          2   -1    0    0  501    0  0.00000000000E+00 -0.00000000000E+00 -0.84846226997E+02  0.84846226997E+02  0.00000000000E+00 0. -1.
         25    2    1    2    0    0  0.41536736479E+02 -0.20676619157E+03  0.23199768441E+03  0.33756254701E+03  0.12509192266E+03 0.  0.
         23    2    1    2    0    0 -0.41536736479E+02  0.20676619157E+03  0.37877539533E+03  0.44290298674E+03  0.90634966189E+02 0.  0.
          5    1    3    3  502    0 -0.27032434061E+01 -0.21829468505E+02 -0.14154197584E+02  0.26488618865E+02  0.41800000000E+01 0.  1.
         -5    1    3    3    0  502  0.44239979885E+02 -0.18493672306E+03  0.24615188200E+03  0.31107392814E+03  0.41800000000E+01 0.  1.
        -11    1    4    4    0    0 -0.39353855525E+02  0.65789505594E+02  0.71524212317E+02  0.10484606783E+03  0.00000000000E+00 0.  1.
         11    1    4    4    0    0 -0.21828809539E+01  0.14097668597E+03  0.30725118302E+03  0.33805691891E+03  0.00000000000E+00 0. -1.
</event>
<event>
 8    1  0.6840084E-009  0.1238065E+03  0.7561462E-02  0.1236946E+00
          2   -1    0    0  501    0  0.00000000000E+00  0.00000000000E+00  0.39013279079E+03  0.39013279079E+03  0.00000000000E+00 0. -1.
         -2   -1    0    0    0  501 -0.00000000000E+00 -0.00000000000E+00 -0.42280822144E+02  0.42280822144E+02  0.00000000000E+00 0.  1.
         25    2    1    2    0    0 -0.14358958788E+02  0.68805550967E+02  0.19903700595E+03  0.24536734820E+03  0.12509605222E+03 0.  0.
         23    2    1    2    0    0  0.14358958788E+02 -0.68805550967E+02  0.14881496269E+03  0.18704626474E+03  0.88882104440E+02 0.  0.
          5    1    3    3  502    0 -0.57290135137E+02  0.16951526647E+01  0.49352778163E+02  0.75750922364E+02  0.41800000000E+01 0. -1.
         -5    1    3    3    0  502  0.42931176349E+02  0.67110398303E+02  0.14968422779E+03  0.16961642583E+03  0.41800000000E+01 0. -1.
        -11    1    4    4    0    0  0.49673834192E+02 -0.49476873701E+02  0.11394098209E+03  0.13378340045E+03  0.00000000000E+00 0. -1.
         11    1    4    4    0    0 -0.35314875404E+02 -0.19328677266E+02  0.34873980600E+02  0.53262864291E+02  0.00000000000E+00 0.  1.
</event>
<event>
 8    1  0.6840084E-009  0.1375795E+03  0.7561462E-02  0.1216624E+00
         -2   -1    0    0    0  501 -0.00000000000E+00  0.00000000000E+00  0.13800044482E+02  0.13800044482E+02  0.00000000000E+00 0. -1.
          2   -1    0    0  501    0  0.00000000000E+00 -0.00000000000E+00 -0.16527715196E+04  0.16527715196E+04  0.00000000000E+00 0.  1.
         25    2    1    2    0    0 -0.60512386985E+02  0.68502762653E+02 -0.11679284670E+04  0.11781587844E+04  0.12508732863E+03 0.  0.
         23    2    1    2    0    0  0.60512386985E+02 -0.68502762653E+02 -0.47104300810E+03  0.48841277966E+03  0.91165510911E+02 0.  0.
          5    1    3    3  502    0 -0.11898564873E+02 -0.36708042347E+02 -0.31466797453E+03  0.31705277607E+03  0.41800000000E+01 0. -1.
         -5    1    3    3    0  502 -0.48613822112E+02  0.10521080500E+03 -0.85326049248E+03  0.86110600835E+03  0.41800000000E+01 0. -1.
        -11    1    4    4    0    0  0.42293583725E+02  0.68515143213E+01 -0.91518134196E+02  0.10105077614E+03  0.00000000000E+00 0. -1.
         11    1    4    4    0    0  0.18218803260E+02 -0.75354276974E+02 -0.37952487391E+03  0.38736200351E+03  0.00000000000E+00 0.  1.
</event>
<event>
 8    1  0.6840084E-009  0.1083208E+03  0.7561462E-02  0.1263711E+00
         -1   -1    0    0    0  501 -0.00000000000E+00  0.00000000000E+00  0.24867447753E+02  0.24867447753E+02  0.00000000000E+00 0.  1.
          1   -1    0    0  501    0  0.00000000000E+00 -0.00000000000E+00 -0.64540158430E+03  0.64540158430E+03  0.00000000000E+00 0. -1.
         25    2    1    2    0    0  0.64784147967E+01 -0.26059729960E+02 -0.28805974013E+03  0.31518727095E+03  0.12507406806E+03 0.  0.
         23    2    1    2    0    0 -0.64784147967E+01  0.26059729960E+02 -0.33247439641E+03  0.35508176110E+03  0.12174873063E+03 0.  0.
          5    1    3    3  502    0 -0.89736442550E+01  0.34660293869E+02 -0.22927047590E+02  0.42719833491E+02  0.41800000000E+01 0. -1.
         -5    1    3    3    0  502  0.15452059052E+02 -0.60720023829E+02 -0.26513269254E+03  0.27246743746E+03  0.41800000000E+01 0. -1.
        -11    1    4    4    0    0 -0.48492694367E+02  0.49827729606E+02 -0.13573215115E+03  0.15250429798E+03  0.00000000000E+00 0.  1.
         11    1    4    4    0    0  0.42014279570E+02 -0.23767999646E+02 -0.19674224526E+03  0.20257746312E+03  0.00000000000E+00 0. -1.
</event>
<event>
 8    1  0.6840084E-009  0.7302898E+02  0.7561462E-02  0.1350086E+00
          1   -1    0    0  501    0  0.00000000000E+00  0.00000000000E+00  0.48320723268E+03  0.48320723268E+03  0.00000000000E+00 0. -1.
         -1   -1    0    0    0  501 -0.00000000000E+00 -0.00000000000E+00 -0.40282716849E+02  0.40282716849E+02  0.00000000000E+00 0.  1.
         25    2    1    2    0    0 -0.45762062023E+02 -0.12162466512E+02  0.38987071402E+03  0.41217407732E+03  0.12508478905E+03 0.  0.
         23    2    1    2    0    0  0.45762062023E+02  0.12162466512E+02  0.53053801806E+02  0.11131587221E+03  0.85641261122E+02 0.  0.
          5    1    3    3  502    0 -0.26813007583E+02 -0.94197279422E+01  0.39145975501E+03  0.39251226839E+03  0.41800000000E+01 0.  1.
         -5    1    3    3    0  502 -0.18949054440E+02 -0.27427385694E+01 -0.15890409851E+01  0.19661808927E+02  0.41800000000E+01 0.  1.
        -11    1    4    4    0    0  0.69839071066E+02 -0.18762787924E+01  0.40430504418E+02  0.80719526491E+02  0.00000000000E+00 0.  1.
         11    1    4    4    0    0 -0.24077009042E+02  0.14038745304E+02  0.12623297389E+02  0.30596345715E+02  0.00000000000E+00 0. -1.
</event>
<event>
 8    1  0.6840084E-009  0.9404162E+02  0.7561462E-02  0.1293349E+00
         -2   -1    0    0    0  501 -0.00000000000E+00  0.00000000000E+00  0.21284938951E+02  0.21284938951E+02  0.00000000000E+00 0.  1.
          2   -1    0    0  501    0  0.00000000000E+00 -0.00000000000E+00 -0.97346724631E+03  0.97346724631E+03  0.00000000000E+00 0. -1.
         25    2    1    2    0    0  0.37685584086E+02 -0.48452405292E+02 -0.83101756152E+03  0.84261851392E+03  0.12509170084E+03 0.  0.
         23    2    1    2    0    0 -0.37685584086E+02  0.48452405292E+02 -0.12116474584E+03  0.15213367134E+03  0.68526779402E+02 0.  0.
          5    1    3    3  502    0 -0.25320519328E+02 -0.48197963437E+02 -0.16914130915E+03  0.17773696081E+03  0.41800000000E+01 0. -1.
         -5    1    3    3    0  502  0.63006103414E+02 -0.25444185485E+00 -0.66187625237E+03  0.66488155311E+03  0.41800000000E+01 0. -1.
        -11    1    4    4    0    0 -0.39104178827E+02  0.24087681193E+02 -0.11909046468E+03  0.12763969588E+03  0.00000000000E+00 0. -1.
         11    1    4    4    0    0  0.14185947413E+01  0.24364724099E+02 -0.20742811577E+01  0.24493975459E+02  0.00000000000E+00 0.  1.
</event>
<event>
 8    1  0.6840084E-009  0.1699761E+03  0.7561462E-02  0.1177873E+00
         -2   -1    0    0    0  501 -0.00000000000E+00  0.00000000000E+00  0.25750983412E+02  0.25750983412E+02  0.00000000000E+00 0.  1.
          2   -1    0    0  501    0  0.00000000000E+00 -0.00000000000E+00 -0.11759556186E+04  0.11759556186E+04  0.00000000000E+00 0. -1.
         25    2    1    2    0    0  0.11414551758E+03 -0.69242294163E+02 -0.69540418186E+03  0.71906876036E+03  0.12509680846E+03 0.  0.
         23    2    1    2    0    0 -0.11414551758E+03  0.69242294163E+02 -0.45480045328E+03  0.48263784161E+03  0.90951302162E+02 0.  0.
          5    1    3    3  502    0  0.13256109355E+03 -0.30855304316E+02 -0.45694860631E+03  0.47680603450E+03  0.41800000000E+01 0.  1.
         -5    1    3    3    0  502 -0.18415575973E+02 -0.38386989847E+02 -0.23845557556E+03  0.24226272586E+03  0.41800000000E+01 0.  1.
        -11    1    4    4    0    0 -0.82259098655E+02  0.90794347014E+02 -0.36211782642E+03  0.38228195481E+03  0.00000000000E+00 0.  1.
         11    1    4    4    0    0 -0.31886418920E+02 -0.21552052851E+02 -0.92682626866E+02  0.10035588681E+03  0.00000000000E+00 0. -1.
</event>
<event>
 8    1  0.6840084E-009  0.9041083E+02  0.7561462E-02  0.1301860E+00
          1   -1    0    0  501    0  0.00000000000E+00  0.00000000000E+00  0.14654985252E+03  0.14654985252E+03  0.00000000000E+00 0. -1.
         -1   -1    0    0    0  501 -0.00000000000E+00 -0.00000000000E+00 -0.10728453612E+03  0.10728453612E+03  0.00000000000E+00 0.  1.
         25    2    1    2    0    0  0.31309088597E+00  0.16995030191E+02  0.81825865324E+02  0.15043959722E+03  0.12509065152E+03 0.  0.
         23    2    1    2    0    0 -0.31309088597E+00 -0.16995030191E+02 -0.42560548921E+02  0.10339479142E+03  0.92683080930E+02 0.  0.
          5    1    3    3  502    0  0.41405230175E+02 -0.38617911403E+02  0.32727265547E+02  0.65530775038E+02  0.41800000000E+01 0.  1.
         -5    1    3    3    0  502 -0.41092139289E+02  0.55612941594E+02  0.49098599777E+02  0.84908822181E+02  0.41800000000E+01 0.  1.
        -11    1    4    4    0    0  0.25627516529E+02 -0.12245704239E+02 -0.63602968541E+02  0.69656761933E+02  0.00000000000E+00 0.  1.
         11    1    4    4    0    0 -0.25940607415E+02 -0.47493259522E+01  0.21042419620E+02  0.33738029485E+02  0.00000000000E+00 0. -1.
</event>
<event>
 8    1  0.6840084E-009  0.1158650E+03  0.7561462E-02  0.1250079E+00
         -3   -1    0    0    0  501 -0.00000000000E+00  0.00000000000E+00  0.12231855264E+03  0.12231855264E+03  0.00000000000E+00 0.  1.
          3   -1    0    0  501    0  0.00000000000E+00 -0.00000000000E+00 -0.12576606606E+03  0.12576606606E+03  0.00000000000E+00 0. -1.
         25    2    1    2    0    0 -0.53264755035E+02  0.21294059091E+02 -0.92493280075E+01  0.13792583928E+03  0.12508963183E+03 0.  0.
         23    2    1    2    0    0  0.53264755035E+02 -0.21294059091E+02  0.58018145877E+01  0.11015877942E+03  0.93865459828E+02 0.  0.
          5    1    3    3  502    0  0.22568196348E+02  0.37665281196E+02 -0.34753764200E+02  0.56154193254E+02  0.41800000000E+01 0.  1.
         -5    1    3    3    0  502 -0.75832951383E+02 -0.16371222104E+02  0.25504436192E+02  0.81771646028E+02  0.41800000000E+01 0.  1.
        -11    1    4    4    0    0 -0.10599231797E+02 -0.41589432028E+02  0.27128950115E+00  0.42919671121E+02  0.00000000000E+00 0.  1.
         11    1    4    4    0    0  0.63863986833E+02  0.20295372937E+02  0.55305250866E+01  0.67239108297E+02  0.00000000000E+00 0. -1.
</event>
<event>
 8    1  0.6840084E-009  0.1039554E+03  0.7561462E-02  0.1272192E+00
          2   -1    0    0  501    0  0.00000000000E+00  0.00000000000E+00  0.14803894745E+04  0.14803894745E+04  0.00000000000E+00 0.  1.
         -2   -1    0    0    0  501 -0.00000000000E+00 -0.00000000000E+00 -0.99401315311E+01  0.99401315311E+01  0.00000000000E+00 0. -1.
         25    2    1    2    0    0 -0.36714074249E+02 -0.10228123980E+01  0.10759469990E+04  0.10838162666E+04  0.12508711247E+03 0.  0.
         23    2    1    2    0    0  0.36714074249E+02  0.10228123980E+01  0.39450234394E+03  0.40651333940E+03  0.90950680818E+02 0.  0.
          5    1    3    3  502    0 -0.63558394063E+02  0.28547758431E+02  0.92465544825E+03  0.92728626343E+03  0.41800000000E+01 0.  1.
         -5    1    3    3    0  502  0.26844319814E+02 -0.29570570829E+02  0.15129155074E+03  0.15653000317E+03  0.41800000000E+01 0.  1.
        -11    1    4    4    0    0  0.65919520062E+02 -0.10126778407E+02  0.27825521162E+03  0.28613615214E+03  0.00000000000E+00 0.  1.
         11    1    4    4    0    0 -0.29205445813E+02  0.11149590805E+02  0.11624713233E+03  0.12037718727E+03  0.00000000000E+00 0. -1.
</event>
<event>
 8    1  0.6840084E-009  0.1448616E+03  0.7561462E-02  0.1206933E+00
         -1   -1    0    0    0  501 -0.00000000000E+00  0.00000000000E+00  0.66053543773E+02  0.66053543773E+02  0.00000000000E+00 0.  1.
          1   -1    0    0  501    0  0.00000000000E+00 -0.00000000000E+00 -0.40382850758E+03  0.40382850758E+03  0.00000000000E+00 0. -1.
         25    2    1    2    0    0  0.71845963894E+02  0.71276452052E+02 -0.27550482606E+03  0.31904744366E+03  0.12508471922E+03 0.  0.
         23    2    1    2    0    0 -0.71845963894E+02 -0.71276452052E+02 -0.62270137750E+02  0.15083460769E+03  0.92904971218E+02 0.  0.
          5    1    3    3  502    0  0.78204262833E+02  0.10047200433E+03 -0.19349871610E+03  0.23166733890E+03  0.41800000000E+01 0.  1.
         -5    1    3    3    0  502 -0.63582989391E+01 -0.29195552281E+02 -0.82006109958E+02  0.87380104766E+02  0.41800000000E+01 0.  1.
        -11    1    4    4    0    0 -0.39605050969E+02  0.13197209243E+02 -0.12715278800E+01  0.41765334635E+02  0.00000000000E+00 0.  1.
         11    1    4    4    0    0 -0.32240912925E+02 -0.84473661295E+02 -0.60998609870E+02  0.10906927306E+03  0.00000000000E+00 0. -1.
</event>
<event>
 8    1  0.6840084E-009  0.1692460E+03  0.7561462E-02  0.1178636E+00
          1   -1    0    0  501    0  0.00000000000E+00  0.00000000000E+00  0.49068343654E+03  0.49068343654E+03  0.00000000000E+00 0. -1.
         -1   -1    0    0    0  501 -0.00000000000E+00 -0.00000000000E+00 -0.63399874865E+02  0.63399874865E+02  0.00000000000E+00 0.  1.
         25    2    1    2    0    0  0.13902642504E+03 -0.19090014476E+02  0.22657328585E+03  0.29440804489E+03  0.12509143664E+03 0.  0.
         23    2    1    2    0    0 -0.13902642504E+03  0.19090014476E+02  0.20071027582E+03  0.25967526651E+03  0.86335703532E+02 0.  0.
          5    1    3    3  502    0  0.63183364418E+02 -0.66895729323E+02  0.15194257225E+03  0.17768284611E+03  0.41800000000E+01 0. -1.
         -5    1    3    3    0  502  0.75843060626E+02  0.47805714847E+02  0.74630713605E+02  0.11672519878E+03  0.41800000000E+01 0. -1.
        -11    1    4    4    0    0 -0.74551767558E+02 -0.24875095694E+02  0.60389289239E+02  0.99114089244E+02  0.00000000000E+00 0.  1.
         11    1    4    4    0    0 -0.64474657486E+02  0.43965110171E+02  0.14032098658E+03  0.16056117726E+03  0.00000000000E+00 0. -1.
</event>
<event>
 8    1  0.6840084E-009  0.1351389E+03  0.7561462E-02  0.1220024E+00
         -1   -1    0    0    0  501 -0.00000000000E+00  0.00000000000E+00  0.11982521624E+04  0.11982521624E+04  0.00000000000E+00 0.  1.
          1   -1    0    0  501    0  0.00000000000E+00 -0.00000000000E+00 -0.22020110751E+02  0.22020110751E+02  0.00000000000E+00 0. -1.
         25    2    1    2    0    0 -0.11201996200E+03 -0.26009297541E+01  0.46251606467E+03  0.49206126614E+03  0.12509173767E+03 0.  0.
         23    2    1    2    0    0  0.11201996200E+03  0.26009297541E+01  0.71371598698E+03  0.72821100702E+03  0.91353839246E+02 0.  0.
          5    1    3    3  502    0  0.32515788391E+01  0.83026165036E+01 -0.45436616853E+01  0.10845435319E+02  0.41800000000E+01 0. -1.
         -5    1    3    3    0  502 -0.11527154083E+03 -0.10903546258E+02  0.46705972636E+03  0.48121583082E+03  0.41800000000E+01 0. -1.
        -11    1    4    4    0    0  0.61967200076E+02 -0.44143426089E+02  0.37351599475E+03  0.38118601008E+03  0.00000000000E+00 0.  1.
         11    1    4    4    0    0  0.50052761919E+02  0.46744355843E+02  0.34019999224E+03  0.34702499693E+03  0.00000000000E+00 0. -1.
</event>
<event>
 8    1  0.6840084E-009  0.1372105E+03  0.7561462E-02  0.1217133E+00
         -2   -1    0    0    0  501 -0.00000000000E+00  0.00000000000E+00  0.26899100708E+03  0.26899100708E+03  0.00000000000E+00 0.  1.
          2   -1    0    0  501    0  0.00000000000E+00 -0.00000000000E+00 -0.21933049173E+03  0.21933049173E+03  0.00000000000E+00 0. -1.
         25    2    1    2    0    0  0.36285205235E+02  0.92133270788E+02  0.21929661225E+03  0.27118819759E+03  0.12508748403E+03 0.  0.
         23    2    1    2    0    0 -0.36285205235E+02 -0.92133270788E+02 -0.16963609691E+03  0.21713330122E+03  0.92548956887E+02 0.  0.
          5    1    3    3  502    0  0.73266985249E+02  0.79317217639E+02  0.10649705623E+03  0.15171805274E+03  0.41800000000E+01 0.  1.
         -5    1    3    3    0  502 -0.36981780014E+02  0.12816053149E+02  0.11279955603E+03  0.11947014485E+03  0.41800000000E+01 0.  1.
        -11    1    4    4    0    0 -0.98040725940E+01 -0.99127098039E+02 -0.15925756626E+03  0.18784374841E+03  0.00000000000E+00 0. -1.
         11    1    4    4    0    0 -0.26481132641E+02  0.69938272512E+01 -0.10378530645E+02  0.29289552812E+02  0.00000000000E+00 0.  1.
</event>
<event>
 8    1  0.6840084E-009  0.1161365E+03  0.7561462E-02  0.1249610E+00
         -2   -1    0    0    0  501 -0.00000000000E+00  0.00000000000E+00  0.42454264338E+02  0.42454264338E+02  0.00000000000E+00 0.  1.
          2   -1    0    0  501    0  0.00000000000E+00 -0.00000000000E+00 -0.53158316610E+03  0.53158316610E+03  0.00000000000E+00 0. -1.
         25    2    1    2    0    0  0.41000976914E+02  0.82283184291E+02 -0.35814298573E+03  0.39033937671E+03  0.12508728256E+03 0.  0.
         23    2    1    2    0    0 -0.41000976914E+02 -0.82283184291E+02 -0.13098591603E+03  0.18369805372E+03  0.90200123165E+02 0.  0.
          5    1    3    3  502    0  0.49389523522E+02 -0.12021408218E+01 -0.24182803278E+03  0.24685833997E+03  0.41800000000E+01 0. -1.
         -5    1    3    3    0  502 -0.83885466082E+01  0.83485325113E+02 -0.11631495296E+03  0.14348103674E+03  0.41800000000E+01 0. -1.
        -11    1    4    4    0    0 -0.40235897393E+02 -0.41184848511E+02 -0.13044739808E+03  0.14258906989E+03  0.00000000000E+00 0. -1.
         11    1    4    4    0    0 -0.76507952085E+00 -0.41098335781E+02 -0.53851795140E+00  0.41108983838E+02  0.00000000000E+00 0.  1.
</event>
<event>
 8    1  0.6840084E-009  0.9856496E+02  0.7561462E-02  0.1283343E+00
          1   -1    0    0  501    0  0.00000000000E+00  0.00000000000E+00  0.92156167911E+03  0.92156167911E+03  0.00000000000E+00 0. -1.
         -1   -1    0    0    0  501 -0.00000000000E+00 -0.00000000000E+00 -0.17144019025E+02  0.17144019025E+02  0.00000000000E+00 0.  1.
         25    2    1    2    0    0 -0.27214687765E+02 -0.48700222745E+02  0.62306129656E+03  0.63793989181E+03  0.12509826287E+03 0.  0.
         23    2    1    2    0    0  0.27214687765E+02  0.48700222745E+02  0.28135636352E+03  0.30076580632E+03  0.90478262750E+02 0.  0.
          5    1    3    3  502    0  0.35539536384E+02 -0.25879152466E+02  0.45366712953E+03  0.45581150271E+03  0.41800000000E+01 0. -1.
         -5    1    3    3    0  502 -0.62754224149E+02 -0.22821070279E+02  0.16939416703E+03  0.18212838911E+03  0.41800000000E+01 0. -1.
        -11    1    4    4    0    0  0.23999554854E+02 -0.10911885048E+02  0.21150001948E+02  0.33798971151E+02  0.00000000000E+00 0.  1.
         11    1    4    4    0    0  0.32151329109E+01  0.59612107793E+02  0.26020636157E+03  0.26696683517E+03  0.00000000000E+00 0. -1.
</event>
<event>
 8    1  0.6840084E-009  0.9150008E+02  0.7561462E-02  0.1299259E+00
         -2   -1    0    0    0  501 -0.00000000000E+00  0.00000000000E+00  0.40252999248E+03  0.40252999248E+03  0.00000000000E+00 0.  1.
          2   -1    0    0  501    0  0.00000000000E+00 -0.00000000000E+00 -0.36375607547E+02  0.36375607547E+02  0.00000000000E+00 0. -1.
         25    2    1    2    0    0  0.41158091671E+02 -0.17949790244E+02  0.25317009468E+03  0.28593553246E+03  0.12509136021E+03 0.  0.
         23    2    1    2    0    0 -0.41158091671E+02  0.17949790244E+02  0.11298429025E+03  0.15297006757E+03  0.92834305348E+02 0.  0.
          5    1    3    3  502    0  0.57155661839E+02  0.33042876411E+02  0.75628656094E+02  0.10047769595E+03  0.41800000000E+01 0.  1.
         -5    1    3    3    0  502 -0.15997570168E+02 -0.50992666656E+02  0.17754143859E+03  0.18545783650E+03  0.41800000000E+01 0.  1.
        -11    1    4    4    0    0  0.73687898591E+01  0.12365649135E+02 -0.12024760879E+02  0.18756418014E+02  0.00000000000E+00 0. -1.
         11    1    4    4    0    0 -0.48526881530E+02  0.55841411094E+01  0.12500905113E+03  0.13421364956E+03  0.00000000000E+00 0.  1.
</event>
<event>
 8    1  0.6840084E-009  0.1627805E+03  0.7561462E-02  0.1185593E+00
          2   -1    0    0  501    0  0.00000000000E+00  0.00000000000E+00  0.13449324195E+04  0.13449324195E+04  0.00000000000E+00 0. -1.
         -2   -1    0    0    0  501 -0.00000000000E+00 -0.00000000000E+00 -0.24582597534E+02  0.24582597534E+02  0.00000000000E+00 0.  1.
         25    2    1    2    0    0  0.31232347123E+02 -0.13906472494E+03  0.58678101564E+03  0.61666394829E+03  0.12509199646E+03 0.  0.
         23    2    1    2    0    0 -0.31232347123E+02  0.13906472494E+03  0.73356880635E+03  0.75285106876E+03  0.91362360191E+02 0.  0.
          5    1    3    3  502    0  0.16787073779E+02 -0.15749909839E+03  0.55364998326E+03  0.57587633065E+03  0.41800000000E+01 0.  1.
         -5    1    3    3    0  502  0.14445273344E+02  0.18434373446E+02  0.33131032378E+02  0.40787617640E+02  0.41800000000E+01 0.  1.
        -11    1    4    4    0    0 -0.21706971575E+02  0.12070163879E+03  0.71372793505E+03  0.72418757480E+03  0.00000000000E+00 0. -1.
         11    1    4    4    0    0 -0.95253755483E+01  0.18363086151E+02  0.19840871297E+02  0.28663493963E+02  0.00000000000E+00 0.  1.
</event>
<event>
 8    1  0.6840084E-009  0.1518396E+03  0.7561462E-02  0.1198231E+00
         -2   -1    0    0    0  501 -0.00000000000E+00  0.00000000000E+00  0.33313442645E+02  0.33313442645E+02  0.00000000000E+00 0. -1.
          2   -1    0    0  501    0  0.00000000000E+00 -0.00000000000E+00 -0.71883322861E+03  0.71883322861E+03  0.00000000000E+00 0.  1.
         25    2    1    2    0    0 -0.86992941959E+02 -0.67499305154E+02 -0.39992965530E+03  0.43326156935E+03  0.12509168692E+03 0.  0.
         23    2    1    2    0    0  0.86992941959E+02  0.67499305154E+02 -0.28559013066E+03  0.31888510190E+03  0.89454219240E+02 0.  0.
          5    1    3    3  502    0 -0.11084223472E+03 -0.77829661481E+02 -0.36626469900E+03  0.39052625948E+03  0.41800000000E+01 0. -1.
         -5    1    3    3    0  502  0.23849292764E+02  0.10330356327E+02 -0.33664956298E+02  0.42735309870E+02  0.41800000000E+01 0. -1.
        -11    1    4    4    0    0  0.26379530134E+02 -0.21596926914E+02 -0.70560002755E+02  0.78364665833E+02  0.00000000000E+00 0.  1.
         11    1    4    4    0    0  0.60613411825E+02  0.89096232068E+02 -0.21503012790E+03  0.24052043607E+03  0.00000000000E+00 0. -1.
</event>
<event>
 8    1  0.6840084E-009  0.1284503E+03  0.7561462E-02  0.1229774E+00
          2   -1    0    0  501    0  0.00000000000E+00  0.00000000000E+00  0.11512872534E+04  0.11512872534E+04  0.00000000000E+00 0.  1.
         -2   -1    0    0    0  501 -0.00000000000E+00 -0.00000000000E+00 -0.15682476035E+02  0.15682476035E+02  0.00000000000E+00 0. -1.
         25    2    1    2    0    0  0.74507503953E+02 -0.27015385624E+02  0.60107227472E+03  0.61904512510E+03  0.12509111990E+03 0.  0.
         23    2    1    2    0    0 -0.74507503953E+02  0.27015385624E+02  0.53453250269E+03  0.54792460437E+03  0.90637610513E+02 0.  0.
          5    1    3    3  502    0 -0.28260023581E+02 -0.17085308953E+02  0.64167873850E+02  0.72287793917E+02  0.41800000000E+01 0. -1.
         -5    1    3    3    0  502  0.10276752753E+03 -0.99300766706E+01  0.53690440087E+03  0.54675733119E+03  0.41800000000E+01 0. -1.
        -11    1    4    4    0    0 -0.74834234935E+02 -0.16610818315E+02  0.35216473970E+03  0.36041099580E+03  0.00000000000E+00 0.  1.
         11    1    4    4    0    0  0.32673098167E+00  0.43626203939E+02  0.18236776299E+03  0.18751360858E+03  0.00000000000E+00 0. -1.
</event>
<event>
 8    1  0.6840084E-009  0.1120476E+03  0.7561462E-02  0.1256824E+00
         -1   -1    0    0    0  501 -0.00000000000E+00  0.00000000000E+00  0.23143987209E+02  0.23143987209E+02  0.00000000000E+00 0.  1.
          1   -1    0    0  501    0  0.00000000000E+00 -0.00000000000E+00 -0.71935737899E+03  0.71935737899E+03  0.00000000000E+00 0. -1.
         25    2    1    2    0    0 -0.32231170762E+02  0.59850128143E+02 -0.45137008497E+03  0.47328786540E+03  0.12508222786E+03 0.  0.
         23    2    1    2    0    0  0.32231170762E+02 -0.59850128143E+02 -0.24484330681E+03  0.26921350080E+03  0.88920064733E+02 0.  0.
          5    1    3    3  502    0 -0.46847389817E+02 -0.40155868333E+01 -0.34553654100E+03  0.34874600562E+03  0.41800000000E+01 0. -1.
         -5    1    3    3    0  502  0.14616219055E+02  0.63865714977E+02 -0.10583354397E+03  0.12454185978E+03  0.41800000000E+01 0. -1.
        -11    1    4    4    0    0  0.26739366366E+02 -0.83128436741E+02 -0.17907985313E+03  0.19923585145E+03  0.00000000000E+00 0.  1.
         11    1    4    4    0    0  0.54918043962E+01  0.23278308598E+02 -0.65763453686E+02  0.69977649342E+02  0.00000000000E+00 0. -1.
</event>
<event>
 8    1  0.6840084E-009  0.1094502E+03  0.7561462E-02  0.1261591E+00
          1   -1    0    0  501    0  0.00000000000E+00  0.00000000000E+00  0.41322156644E+02  0.41322156644E+02  0.00000000000E+00 0. -1.
         -1   -1    0    0    0  501 -0.00000000000E+00 -0.00000000000E+00 -0.36943203209E+03  0.36943203209E+03  0.00000000000E+00 0.  1.
         25    2    1    2    0    0 -0.21812307927E+02 -0.56917021315E+02 -0.19613483154E+03  0.24048260812E+03  0.12509072137E+03 0.  0.
         23    2    1    2    0    0  0.21812307927E+02  0.56917021315E+02 -0.13197504390E+03  0.17027158061E+03  0.88654807301E+02 0.  0.
          5    1    3    3  502    0  0.44409248857E+02  0.77797025451E+00 -0.34190695087E+02  0.56207318494E+02  0.41800000000E+01 0.  1.
         -5    1    3    3    0  502 -0.66221556785E+02 -0.57694991570E+02 -0.16194413646E+03  0.18427528963E+03  0.41800000000E+01 0.  1.
        -11    1    4    4    0    0  0.99601219931E+00 -0.13189751937E+02 -0.78670860436E+02  0.79775095602E+02  0.00000000000E+00 0.  1.
         11    1    4    4    0    0  0.20816295728E+02  0.70106773253E+02 -0.53304183466E+02  0.90496485007E+02  0.00000000000E+00 0. -1.
</event>
<event>
 8    1  0.6840084E-009  0.1150461E+03  0.7561462E-02  0.1251501E+00
          1   -1    0    0  501    0  0.00000000000E+00  0.00000000000E+00  0.11631658470E+03  0.11631658470E+03  0.00000000000E+00 0. -1.
         -1   -1    0    0    0  501 -0.00000000000E+00 -0.00000000000E+00 -0.19301358871E+03  0.19301358871E+03  0.00000000000E+00 0.  1.
         25    2    1    2    0    0  0.10090417701E+03 -0.18229993616E+02 -0.51996568232E+02  0.16990039395E+03  0.12509402525E+03 0.  0.
         23    2    1    2    0    0 -0.10090417701E+03  0.18229993616E+02 -0.24700435784E+02  0.13942977946E+03  0.91195209674E+02 0.  0.
          5    1    3    3  502    0  0.62623084818E+02 -0.46920520380E+02  0.22265755567E+02  0.81464239122E+02  0.41800000000E+01 0. -1.
         -5    1    3    3    0  502  0.38281092189E+02  0.28690526764E+02 -0.74262323799E+02  0.88436154830E+02  0.41800000000E+01 0. -1.
        -11    1    4    4    0    0 -0.61466052110E+02  0.33522270926E+01 -0.58864244374E+02  0.85172250494E+02  0.00000000000E+00 0.  1.
         11    1    4    4    0    0 -0.39438124896E+02  0.14877766524E+02  0.34163808590E+02  0.54257528965E+02  0.00000000000E+00 0. -1.
</event>
<event>
 8    1  0.6840084E-009  0.8416759E+02  0.7561462E-02  0.1317624E+00
          2   -1    0    0  501    0  0.00000000000E+00  0.00000000000E+00  0.25140723832E+03  0.25140723832E+03  0.00000000000E+00 0.  1.
         -2   -1    0    0    0  501 -0.00000000000E+00 -0.00000000000E+00 -0.52972023411E+02  0.52972023411E+02  0.00000000000E+00 0. -1.
         25    2    1    2    0    0 -0.32515529267E+02  0.18511088789E+02  0.13134185024E+03  0.18519903270E+03  0.12509228607E+03 0.  0.
         23    2    1    2    0    0  0.32515529267E+02 -0.18511088789E+02  0.67093364667E+02  0.11918022904E+03  0.91117985929E+02 0.  0.
          5    1    3    3  502    0 -0.51351023691E+02 -0.73738199767E+01  0.22101459296E+01  0.52092782612E+02  0.41800000000E+01 0.  1.
         -5    1    3    3    0  502  0.18835494425E+02  0.25884908766E+02  0.12913170431E+03  0.13310625008E+03  0.41800000000E+01 0.  1.
        -11    1    4    4    0    0  0.50995518938E+02  0.80710816017E+01  0.86231228309E+01  0.52345425371E+02  0.00000000000E+00 0. -1.
         11    1    4    4    0    0 -0.18479989671E+02 -0.26582170391E+02  0.58470241836E+02  0.66834803667E+02  0.00000000000E+00 0.  1.
</event>
<event>
 8    1  0.6840084E-009  0.1587615E+03  0.7561462E-02  0.1190102E+00
         -1   -1    0    0    0  501 -0.00000000000E+00  0.00000000000E+00  0.23213116594E+02  0.23213116594E+02  0.00000000000E+00 0.  1.
          1   -1    0    0  501    0  0.00000000000E+00 -0.00000000000E+00 -0.13586978566E+04  0.13586978566E+04  0.00000000000E+00 0. -1.
         25    2    1    2    0    0  0.13285464972E+03 -0.52192101057E+02 -0.68162899127E+03  0.70755919301E+03  0.12509019348E+03 0.  0.
         23    2    1    2    0    0 -0.13285464972E+03  0.52192101057E+02 -0.65385574873E+03  0.67435178018E+03  0.82756328573E+02 0.  0.
          5    1    3    3  502    0  0.58649807682E+02 -0.54828226630E+02 -0.14495545685E+03  0.16575732638E+03  0.41800000000E+01 0. -1.
         -5    1    3    3    0  502  0.74204842037E+02  0.26361255733E+01 -0.53667353442E+03  0.54180186664E+03  0.41800000000E+01 0. -1.
        -11    1    4    4    0    0 -0.11099589698E+03  0.72781214508E+02 -0.57096170852E+03  0.58618637559E+03  0.00000000000E+00 0. -1.
         11    1    4    4    0    0 -0.21858752735E+02 -0.20589113451E+02 -0.82894040208E+02  0.88165404586E+02  0.00000000000E+00 0.  1.
</event>
<event>
 8    1  0.6840084E-009  0.8994310E+02  0.7561462E-02  0.1302990E+00
         -4   -1    0    0    0  501 -0.00000000000E+00  0.00000000000E+00  0.36649822928E+03  0.36649822928E+03  0.00000000000E+00 0.  1.
          4   -1    0    0  501    0  0.00000000000E+00 -0.00000000000E+00 -0.35361458097E+02  0.35361458097E+02  0.00000000000E+00 0. -1.
         25    2    1    2    0    0 -0.21167984043E+02 -0.25173652636E+02  0.20455471534E+03  0.24201882655E+03  0.12509470214E+03 0.  0.
         23    2    1    2    0    0  0.21167984043E+02  0.25173652636E+02  0.12658205585E+03  0.15984086083E+03  0.91892804899E+02 0.  0.
          5    1    3    3  502    0 -0.22430157455E+02 -0.73677264624E+02  0.15148855726E+03  0.16999325476E+03  0.41800000000E+01 0.  1.
         -5    1    3    3    0  502  0.12621734118E+01  0.48503611988E+02  0.53066158080E+02  0.72025571785E+02  0.41800000000E+01 0.  1.
        -11    1    4    4    0    0 -0.10333508714E+02  0.19471715548E+02  0.12590515445E+03  0.12782033104E+03  0.00000000000E+00 0.  1.
         11    1    4    4    0    0  0.31501492758E+02  0.57019370878E+01  0.67690139379E+00  0.32020529790E+02  0.00000000000E+00 0. -1.
</event>
<event>
 8    1  0.6840084E-009  0.7669489E+02  0.7561462E-02  0.1338701E+00
         -1   -1    0    0    0  501 -0.00000000000E+00  0.00000000000E+00  0.39811136063E+03  0.39811136063E+03  0.00000000000E+00 0.  1.
          1   -1    0    0  501    0  0.00000000000E+00 -0.00000000000E+00 -0.68531840523E+02  0.68531840523E+02  0.00000000000E+00 0. -1.
         25    2    1    2    0    0  0.22030571587E+02  0.35671004351E+02  0.34973994595E+03  0.37379616214E+03  0.12509106446E+03 0.  0.
         23    2    1    2    0    0 -0.22030571587E+02 -0.35671004351E+02 -0.20160425842E+02  0.92847039007E+02  0.80351498096E+02 0.  0.
          5    1    3    3  502    0  0.52017301306E+02  0.33884362587E+02  0.75278767082E+02  0.97664296631E+02  0.41800000000E+01 0. -1.
         -5    1    3    3    0  502 -0.29986729718E+02  0.17866417638E+01  0.27446117886E+03  0.27613186551E+03  0.41800000000E+01 0. -1.
        -11    1    4    4    0    0 -0.35390107784E+02 -0.21720034388E+02  0.21621888158E+02  0.46815869855E+02  0.00000000000E+00 0.  1.
         11    1    4    4    0    0  0.13359536197E+02 -0.13950969963E+02 -0.41782314000E+02  0.46031169152E+02  0.00000000000E+00 0. -1.
</event>
<event>
 8    1  0.6840084E-009  0.8742818E+02  0.7561462E-02  0.1309202E+00
         -1   -1    0    0    0  501 -0.00000000000E+00  0.00000000000E+00  0.20753902183E+03  0.20753902183E+03  0.00000000000E+00 0.  1.
          1   -1    0    0  501    0  0.00000000000E+00 -0.00000000000E+00 -0.76289035096E+02  0.76289035096E+02  0.00000000000E+00 0. -1.
         25    2    1    2    0    0  0.14935661933E+02  0.58495291774E+02  0.40170440192E+02  0.14459263849E+03  0.12509433914E+03 0.  0.
         23    2    1    2    0    0 -0.14935661933E+02 -0.58495291774E+02  0.91079546540E+02  0.13923541843E+03  0.86291626423E+02 0.  0.
          5    1    3    3  502    0  0.14328481473E+01  0.55840822523E+02 -0.36321368393E+02  0.66760502663E+02  0.41800000000E+01 0. -1.
         -5    1    3    3    0  502  0.13502813786E+02  0.26544692509E+01  0.76491808586E+02  0.77832135830E+02  0.41800000000E+01 0. -1.
        -11    1    4    4    0    0  0.29579343242E+02  0.16579164330E+01  0.18153972612E+02  0.34745545831E+02  0.00000000000E+00 0.  1.
         11    1    4    4    0    0 -0.44515005174E+02 -0.60153208207E+02  0.72925573927E+02  0.10448987260E+03  0.00000000000E+00 0. -1.
</event>
<event>
 8    1  0.6840084E-009  0.1393078E+03  0.7561462E-02  0.1214263E+00
          2   -1    0    0  501    0  0.00000000000E+00  0.00000000000E+00  0.47576152807E+03  0.47576152807E+03  0.00000000000E+00 0.  1.
         -2   -1    0    0    0  501 -0.00000000000E+00 -0.00000000000E+00 -0.56400248367E+02  0.56400248367E+02  0.00000000000E+00 0. -1.
         25    2    1    2    0    0 -0.11261109781E+03 -0.37534099418E+02  0.26986903385E+03  0.32026072337E+03  0.12509023755E+03 0.  0.
         23    2    1    2    0    0  0.11261109781E+03  0.37534099418E+02  0.14949224586E+03  0.21190105307E+03  0.92000308444E+02 0.  0.
          5    1    3    3  502    0  0.12667101478E+02  0.93204724707E+01 -0.28116634062E+01  0.16513767530E+02  0.41800000000E+01 0.  1.
         -5    1    3    3    0  502 -0.12527819929E+03 -0.46854571889E+02  0.27268069726E+03  0.30374695584E+03  0.41800000000E+01 0.  1.
        -11    1    4    4    0    0  0.56642992413E+02  0.44623477099E+02  0.13593964602E+03  0.15388070268E+03  0.00000000000E+00 0.  1.
         11    1    4    4    0    0  0.55968105396E+02 -0.70893776806E+01  0.13552599840E+02  0.58020350395E+02  0.00000000000E+00 0. -1.
</event>
<event>
 8    1  0.6840084E-009  0.8163902E+02  0.7561462E-02  0.1324463E+00
          2   -1    0    0  501    0  0.00000000000E+00  0.00000000000E+00  0.52384113507E+03  0.52384113507E+03  0.00000000000E+00 0. -1.
         -2   -1    0    0    0  501 -0.00000000000E+00 -0.00000000000E+00 -0.23363917731E+02  0.23363917731E+02  0.00000000000E+00 0.  1.
         25    2    1    2    0    0  0.23441008542E+02 -0.86694360963E+01  0.29944191507E+03  0.32548050664E+03  0.12508980652E+03 0.  0.
         23    2    1    2    0    0 -0.23441008542E+02  0.86694360963E+01  0.20103530227E+03  0.22172454617E+03  0.90121815394E+02 0.  0.
          5    1    3    3  502    0  0.55764673586E+02 -0.20877499403E+02  0.27857910524E+03  0.28490236763E+03  0.41800000000E+01 0.  1.
         -5    1    3    3    0  502 -0.32323665044E+02  0.12208063306E+02  0.20862809828E+02  0.40578139010E+02  0.41800000000E+01 0.  1.
        -11    1    4    4    0    0 -0.22489588343E+02 -0.25842235702E+02  0.17542295452E+03  0.17873672175E+03  0.00000000000E+00 0. -1.
         11    1    4    4    0    0 -0.95142019830E+00  0.34511671798E+02  0.25612347754E+02  0.42987824418E+02  0.00000000000E+00 0.  1.
</event>
<event>
 8    1  0.6840084E-009  0.9957865E+02  0.7561462E-02  0.1281184E+00
         -2   -1    0    0    0  501 -0.00000000000E+00  0.00000000000E+00  0.72329723374E+02  0.72329723374E+02  0.00000000000E+00 0.  1.
          2   -1    0    0  501    0  0.00000000000E+00 -0.00000000000E+00 -0.15012574834E+03  0.15012574834E+03  0.00000000000E+00 0. -1.
         25    2    1    2    0    0  0.16431052412E+02 -0.96843323307E+01 -0.50003562959E+02  0.13605701061E+03  0.12508952015E+03 0.  0.
         23    2    1    2    0    0 -0.16431052412E+02  0.96843323307E+01 -0.27792462011E+02  0.86398461113E+02  0.79551916142E+02 0.  0.
          5    1    3    3  502    0 -0.43383715236E+02 -0.33151896646E+02 -0.37519407569E+00  0.54761374796E+02  0.41800000000E+01 0. -1.
         -5    1    3    3    0  502  0.59814767648E+02  0.23467564316E+02 -0.49628368884E+02  0.81295635810E+02  0.41800000000E+01 0. -1.
        -11    1    4    4    0    0 -0.47009832487E+02 -0.25344230796E+01 -0.73737778417E+01  0.47652074986E+02  0.00000000000E+00 0.  1.
         11    1    4    4    0    0  0.30578780075E+02  0.12218755410E+02 -0.20418684170E+02  0.38746386127E+02  0.00000000000E+00 0. -1.
</event>
<event>
 8    1  0.6840084E-009  0.1157563E+03  0.7561462E-02  0.1250267E+00
         -2   -1    0    0    0  501 -0.00000000000E+00  0.00000000000E+00  0.21946432086E+02  0.21946432086E+02  0.00000000000E+00 0.  1.
          2   -1    0    0  501    0  0.00000000000E+00 -0.00000000000E+00 -0.10903823735E+04  0.10903823735E+04  0.00000000000E+00 0. -1.
         25    2    1    2    0    0 -0.74528668147E+01 -0.48404447226E+02 -0.93064427920E+03  0.94028981226E+03  0.12509045081E+03 0.  0.
         23    2    1    2    0    0  0.74528668147E+01  0.48404447226E+02 -0.13779166217E+03  0.17203899329E+03  0.90621947193E+02 0.  0.
          5    1    3    3  502    0 -0.63033462330E+02 -0.34515597683E+02 -0.38868202648E+03  0.39529196041E+03  0.41800000000E+01 0.  1.
         -5    1    3    3    0  502  0.55580595516E+02 -0.13888849543E+02 -0.54196225273E+03  0.54499785185E+03  0.41800000000E+01 0.  1.
        -11    1    4    4    0    0 -0.86450109019E+01 -0.25251305802E+02 -0.46745828042E+02  0.53828775739E+02  0.00000000000E+00 0. -1.
         11    1    4    4    0    0  0.16097877717E+02  0.73655753028E+02 -0.91045834124E+02  0.11821021755E+03  0.00000000000E+00 0.  1.
</event>
<event>
 8    1  0.6840084E-009  0.1465858E+03  0.7561462E-02  0.1204732E+00
         -1   -1    0    0    0  501 -0.00000000000E+00  0.00000000000E+00  0.63584077070E+02  0.63584077070E+02  0.00000000000E+00 0. -1.
          1   -1    0    0  501    0  0.00000000000E+00 -0.00000000000E+00 -0.95561591339E+03  0.95561591339E+03  0.00000000000E+00 0.  1.
         25    2    1    2    0    0 -0.14055319270E+03  0.27487261224E+01 -0.81405104812E+03  0.83551743895E+03  0.12509007300E+03 0.  0.
         23    2    1    2    0    0  0.14055319270E+03 -0.27487261224E+01 -0.77980788196E+02  0.18368255151E+03  0.88856743846E+02 0.  0.
          5    1    3    3  502    0 -0.49460532743E+02  0.15039283768E+02 -0.60367987206E+03  0.60590377511E+03  0.41800000000E+01 0.  1.
         -5    1    3    3    0  502 -0.91092659961E+02 -0.12290557646E+02 -0.21037117606E+03  0.22961366384E+03  0.41800000000E+01 0.  1.
        -11    1    4    4    0    0  0.10511775437E+03  0.20247664812E+02 -0.89897941083E+02  0.13979037887E+03  0.00000000000E+00 0.  1.
         11    1    4    4    0    0  0.35435438332E+02 -0.22996390934E+02  0.11917152888E+02  0.43892172636E+02  0.00000000000E+00 0. -1.
</event>
<event>
 8    1  0.6840084E-009  0.9117250E+02  0.7561462E-02  0.1300037E+00
         -2   -1    0    0    0  501 -0.00000000000E+00  0.00000000000E+00  0.46310745574E+03  0.46310745574E+03  0.00000000000E+00 0.  1.
          2   -1    0    0  501    0  0.00000000000E+00 -0.00000000000E+00 -0.31913709981E+02  0.31913709981E+02  0.00000000000E+00 0. -1.
         25    2    1    2    0    0 -0.24362781213E+02 -0.10240026060E+02  0.15405200834E+03  0.20018627353E+03  0.12507645499E+03 0.  0.
         23    2    1    2    0    0  0.24362781213E+02  0.10240026060E+02  0.27714173741E+03  0.29483489219E+03  0.97065275946E+02 0.  0.
          5    1    3    3  502    0  0.26475486955E+02 -0.27383384135E+02  0.14187097853E+01  0.38344312142E+02  0.41800000000E+01 0.  1.
         -5    1    3    3    0  502 -0.50838268168E+02  0.17143358075E+02  0.15263329856E+03  0.16184196138E+03  0.41800000000E+01 0.  1.
        -11    1    4    4    0    0 -0.28584403462E+02 -0.14177422863E+02  0.16890781836E+03  0.17189508005E+03  0.00000000000E+00 0.  1.
         11    1    4    4    0    0  0.52947184675E+02  0.24417448923E+02  0.10823391905E+03  0.12293981215E+03  0.00000000000E+00 0. -1.
</event>
<event>
 8    1  0.6840084E-009  0.8807741E+02  0.7561462E-02  0.1307575E+00
          1   -1    0    0  501    0  0.00000000000E+00  0.00000000000E+00  0.36570150755E+02  0.36570150755E+02  0.00000000000E+00 0. -1.
         -1   -1    0    0    0  501 -0.00000000000E+00 -0.00000000000E+00 -0.34418283600E+03  0.34418283600E+03  0.00000000000E+00 0.  1.
         25    2    1    2    0    0  0.26656569787E+02  0.64989713931E+01 -0.19193158268E+03  0.23073202496E+03  0.12508687209E+03 0.  0.
         23    2    1    2    0    0 -0.26656569787E+02 -0.64989713931E+01 -0.11568110257E+03  0.15002096180E+03  0.91495148209E+02 0.  0.
          5    1    3    3  502    0  0.64148351749E+02 -0.30365089324E+02 -0.13833327118E+03  0.15553332761E+03  0.41800000000E+01 0. -1.
         -5    1    3    3    0  502 -0.37491781963E+02  0.36864060717E+02 -0.53598311500E+02  0.75198697349E+02  0.41800000000E+01 0. -1.
        -11    1    4    4    0    0 -0.25466575467E+02 -0.23868893218E+02 -0.12534097797E+03  0.13011007373E+03  0.00000000000E+00 0.  1.
         11    1    4    4    0    0 -0.11899943194E+01  0.17369921825E+02  0.96598754010E+01  0.19910888063E+02  0.00000000000E+00 0. -1.
</event>
<event>
 8    1  0.6840084E-009  0.9805350E+02  0.7561462E-02  0.1284443E+00
         -2   -1    0    0    0  501 -0.00000000000E+00  0.00000000000E+00  0.37315857216E+02  0.37315857216E+02  0.00000000000E+00 0.  1.
          2   -1    0    0  501    0  0.00000000000E+00 -0.00000000000E+00 -0.34266604533E+03  0.34266604533E+03  0.00000000000E+00 0. -1.
         25    2    1    2    0    0 -0.85827640796E+01  0.44327568503E+01 -0.22322805045E+03  0.25606856755E+03  0.12508811136E+03 0.  0.
         23    2    1    2    0    0  0.85827640796E+01 -0.44327568503E+01 -0.82122137664E+02  0.12391333500E+03  0.92288438734E+02 0.  0.
          5    1    3    3  502    0 -0.17752520816E+02  0.59665568747E+02 -0.74966690562E+02  0.97532605743E+02  0.41800000000E+01 0.  1.
         -5    1    3    3    0  502  0.91697567366E+01 -0.55232811897E+02 -0.14826135989E+03  0.15853596181E+03  0.41800000000E+01 0.  1.
        -11    1    4    4    0    0 -0.34120137560E+02 -0.68476617279E+01 -0.71987416111E+02  0.79957878514E+02  0.00000000000E+00 0. -1.
         11    1    4    4    0    0  0.42702901639E+02  0.24149048776E+01 -0.10134721553E+02  0.43955456486E+02  0.00000000000E+00 0.  1.
</event>
<event>
 8    1  0.6840084E-009  0.1000534E+03  0.7561462E-02  0.1280184E+00
         -2   -1    0    0    0  501 -0.00000000000E+00  0.00000000000E+00  0.14172890186E+03  0.14172890186E+03  0.00000000000E+00 0.  1.
          2   -1    0    0  501    0  0.00000000000E+00 -0.00000000000E+00 -0.12098481299E+03  0.12098481299E+03  0.00000000000E+00 0. -1.
         25    2    1    2    0    0  0.37707297787E+02 -0.20387468645E+02  0.73759212404E+02  0.15141048258E+03  0.12508886296E+03 0.  0.
         23    2    1    2    0    0 -0.37707297787E+02  0.20387468645E+02 -0.53015123530E+02  0.11130323227E+03  0.87979071406E+02 0.  0.
          5    1    3    3  502    0 -0.25440091523E+02  0.15328108051E+02 -0.17521439652E+02  0.34736470756E+02  0.41800000000E+01 0.  1.
         -5    1    3    3    0  502  0.63147389310E+02 -0.35715576697E+02  0.91280652056E+02  0.11667401182E+03  0.41800000000E+01 0.  1.
        -11    1    4    4    0    0  0.20800832185E+02 -0.17966800799E+02 -0.19700459697E+02  0.33816987784E+02  0.00000000000E+00 0. -1.
         11    1    4    4    0    0 -0.58508129972E+02  0.38354269444E+02 -0.33314663833E+02  0.77486244481E+02  0.00000000000E+00 0.  1.
</event>
<event>
 8    1  0.6840084E-009  0.2008552E+03  0.7561462E-02  0.1149019E+00
         -1   -1    0    0    0  501 -0.00000000000E+00  0.00000000000E+00  0.28015776504E+03  0.28015776504E+03  0.00000000000E+00 0.  1.
          1   -1    0    0  501    0  0.00000000000E+00 -0.00000000000E+00 -0.18886001192E+03  0.18886001192E+03  0.00000000000E+00 0. -1.
         25    2    1    2    0    0 -0.10863398769E+03  0.14147209383E+03 -0.50655156160E+02  0.22367151457E+03  0.12508918806E+03 0.  0.
         23    2    1    2    0    0  0.10863398769E+03 -0.14147209383E+03  0.14195290928E+03  0.24534626238E+03  0.90710878036E+02 0.  0.
          5    1    3    3  502    0  0.25841900947E+02  0.10464134859E+02  0.30465648467E+01  0.28355879818E+02  0.41800000000E+01 0. -1.
         -5    1    3    3    0  502 -0.13447588864E+03  0.13100795897E+03 -0.53701721007E+02  0.19531563475E+03  0.41800000000E+01 0. -1.
        -11    1    4    4    0    0  0.23610359579E+02 -0.72505625748E+02  0.10506733834E+03  0.12982164854E+03  0.00000000000E+00 0.  1.
         11    1    4    4    0    0  0.85023628116E+02 -0.68966468084E+02  0.36885570938E+02  0.11552461383E+03  0.00000000000E+00 0. -1.
</event>
<event>
 8    1  0.6840084E-009  0.2149215E+03  0.7561462E-02  0.1137727E+00
         -1   -1    0    0    0  501 -0.00000000000E+00  0.00000000000E+00  0.81824857767E+03  0.81824857767E+03  0.00000000000E+00 0.  1.
          1   -1    0    0  501    0  0.00000000000E+00 -0.00000000000E+00 -0.28205224216E+03  0.28205224216E+03  0.00000000000E+00 0. -1.
         25    2    1    2    0    0 -0.17013184693E+03 -0.11755565123E+03  0.75103672613E+03  0.78896635182E+03  0.12509022281E+03 0.  0.
         23    2    1    2    0    0  0.17013184693E+03  0.11755565123E+03 -0.21484039062E+03  0.31133446801E+03  0.89490675801E+02 0.  0.
          5    1    3    3  502    0 -0.79691560011E+02 -0.55938950334E+02  0.56292027129E+03  0.57129380806E+03  0.41800000000E+01 0.  1.
         -5    1    3    3    0  502 -0.90440286917E+02 -0.61616700900E+02  0.18811645484E+03  0.21767254377E+03  0.41800000000E+01 0.  1.
        -11    1    4    4    0    0  0.98526468494E+02  0.17867021940E+02 -0.11955881919E+03  0.15595193719E+03  0.00000000000E+00 0.  1.
         11    1    4    4    0    0  0.71605378434E+02  0.99688629294E+02 -0.95281571427E+02  0.15538253082E+03  0.00000000000E+00 0. -1.
</event>
<event>
 8    1  0.6840084E-009  0.6229974E+02  0.7561462E-02  0.1388427E+00
         -2   -1    0    0    0  501 -0.00000000000E+00  0.00000000000E+00  0.18233426151E+03  0.18233426151E+03  0.00000000000E+00 0.  1.
          2   -1    0    0  501    0  0.00000000000E+00 -0.00000000000E+00 -0.71207133419E+02  0.71207133419E+02  0.00000000000E+00 0. -1.
         25    2    1    2    0    0 -0.97943624538E+01  0.24466704987E+02  0.81254249809E+02  0.15148236580E+03  0.12510037908E+03 0.  0.
         23    2    1    2    0    0  0.97943624538E+01 -0.24466704987E+02  0.29872878279E+02  0.10205902913E+03  0.93963329980E+02 0.  0.
          5    1    3    3  502    0 -0.11741344863E+02 -0.79922375653E+01  0.10809959912E+03  0.10910880244E+03  0.41800000000E+01 0. -1.
         -5    1    3    3    0  502  0.19469824093E+01  0.32458942553E+02 -0.26845349309E+02  0.42373563358E+02  0.41800000000E+01 0. -1.
        -11    1    4    4    0    0 -0.28788038730E+02 -0.25434595570E+02  0.46259372720E+02  0.60129854400E+02  0.00000000000E+00 0.  1.
         11    1    4    4    0    0  0.38582401184E+02  0.96789058261E+00 -0.16386494441E+02  0.41929174728E+02  0.00000000000E+00 0. -1.
</event>
<event>
 8    1  0.6840084E-009  0.1180079E+03  0.7561462E-02  0.1246420E+00
          2   -1    0    0  501    0  0.00000000000E+00  0.00000000000E+00  0.21228420537E+03  0.21228420537E+03  0.00000000000E+00 0. -1.
         -2   -1    0    0    0  501 -0.00000000000E+00 -0.00000000000E+00 -0.15696898454E+03  0.15696898454E+03  0.00000000000E+00 0.  1.
         25    2    1    2    0    0 -0.58423443797E+02  0.27779014831E+02 -0.10307064263E+03  0.17451692617E+03  0.12509047805E+03 0.  0.
         23    2    1    2    0    0  0.58423443797E+02 -0.27779014831E+02  0.15838586346E+03  0.19473626374E+03  0.93011602616E+02 0.  0.
          5    1    3    3  502    0 -0.34625194957E+02 -0.44802430720E+02 -0.72621478896E+02  0.92181958763E+02  0.41800000000E+01 0. -1.
         -5    1    3    3    0  502 -0.23798248840E+02  0.72581445551E+02 -0.30449163732E+02  0.82334967409E+02  0.41800000000E+01 0. -1.
        -11    1    4    4    0    0  0.77099914617E+02 -0.32191235136E+02  0.15376354776E+03  0.17499686018E+03  0.00000000000E+00 0.  1.
         11    1    4    4    0    0 -0.18676470820E+02  0.44122203047E+01  0.46223156959E+01  0.19739403555E+02  0.00000000000E+00 0. -1.
</event>
<event>
 8    1  0.6840084E-009  0.1375745E+03  0.7561462E-02  0.1216630E+00
         -2   -1    0    0    0  501 -0.00000000000E+00  0.00000000000E+00  0.51881378839E+02  0.51881378839E+02  0.00000000000E+00 0. -1.
          2   -1    0    0  501    0  0.00000000000E+00 -0.00000000000E+00 -0.45599710601E+03  0.45599710601E+03  0.00000000000E+00 0.  1.
         25    2    1    2    0    0 -0.12600771625E+02 -0.10342352002E+03 -0.17468505642E+03  0.23878244142E+03  0.12508789491E+03 0.  0.
         23    2    1    2    0    0  0.12600771625E+02  0.10342352002E+03 -0.22943067075E+03  0.26909604343E+03  0.94440690230E+02 0.  0.
          5    1    3    3  502    0 -0.56093099012E+02 -0.69490633139E+02 -0.15705685402E+03  0.18071998131E+03  0.41800000000E+01 0. -1.
         -5    1    3    3    0  502  0.43492327386E+02 -0.33932886877E+02 -0.17628202398E+02  0.58062460102E+02  0.41800000000E+01 0. -1.
        -11    1    4    4    0    0  0.41848882513E+02  0.87804005537E+02 -0.11845331346E+03  0.15327119699E+03  0.00000000000E+00 0.  1.
         11    1    4    4    0    0 -0.29248110887E+02  0.15619514480E+02 -0.11097735729E+03  0.11582484644E+03  0.00000000000E+00 0. -1.
</event>
<event>
 8    1  0.6840084E-009  0.1865838E+03  0.7561462E-02  0.1161579E+00
          2   -1    0    0  501    0  0.00000000000E+00  0.00000000000E+00  0.21782073501E+04  0.21782073501E+04  0.00000000000E+00 0.  1.
         -2   -1    0    0    0  501 -0.00000000000E+00 -0.00000000000E+00 -0.67966053540E+02  0.67966053540E+02  0.00000000000E+00 0. -1.
         25    2    1    2    0    0 -0.11063408346E+03  0.13216413609E+03  0.20194140255E+04  0.20306127236E+04  0.12509103617E+03 0.  0.
         23    2    1    2    0    0  0.11063408346E+03 -0.13216413609E+03  0.90827271016E+02  0.21556068006E+03  0.92247245674E+02 0.  0.
          5    1    3    3  502    0  0.19838705091E+02  0.13895178993E+02  0.94082463965E+02  0.97240077358E+02  0.41800000000E+01 0. -1.
         -5    1    3    3    0  502 -0.13047278855E+03  0.11826895710E+03  0.19253315616E+04  0.19333726462E+04  0.41800000000E+01 0. -1.
        -11    1    4    4    0    0  0.66480684924E+02 -0.75317257942E+02  0.10179913226E+01  0.10046595004E+03  0.00000000000E+00 0. -1.
         11    1    4    4    0    0  0.44153398533E+02 -0.56846878150E+02  0.89809279693E+02  0.11509473001E+03  0.00000000000E+00 0.  1.
</event>
<event>
 8    1  0.6840084E-009  0.1625047E+03  0.7561462E-02  0.1185898E+00
          2   -1    0    0  501    0  0.00000000000E+00  0.00000000000E+00  0.35450801488E+02  0.35450801488E+02  0.00000000000E+00 0. -1.
         -2   -1    0    0    0  501 -0.00000000000E+00 -0.00000000000E+00 -0.93042044599E+03  0.93042044599E+03  0.00000000000E+00 0.  1.
         25    2    1    2    0    0  0.25240542213E+02  0.13281058523E+03 -0.33042541612E+03  0.37829263965E+03  0.12509448058E+03 0.  0.
         23    2    1    2    0    0 -0.25240542213E+02 -0.13281058523E+03 -0.56454422838E+03  0.58757860783E+03  0.90899384276E+02 0.  0.
          5    1    3    3  502    0 -0.32734069852E+02  0.96305275919E+02 -0.12221448273E+03  0.15905998142E+03  0.41800000000E+01 0. -1.
         -5    1    3    3    0  502  0.57974612064E+02  0.36505309313E+02 -0.20821093339E+03  0.21923265823E+03  0.41800000000E+01 0. -1.
        -11    1    4    4    0    0 -0.46500551604E+02 -0.46814208004E+02 -0.15323060307E+03  0.16683371688E+03  0.00000000000E+00 0. -1.
         11    1    4    4    0    0  0.21260009392E+02 -0.85996377228E+02 -0.41131362531E+03  0.42074489095E+03  0.00000000000E+00 0.  1.
</event>
<event>
 8    1  0.6840084E-009  0.1237264E+03  0.7561462E-02  0.1237073E+00
         -2   -1    0    0    0  501 -0.00000000000E+00  0.00000000000E+00  0.84041529406E+02  0.84041529406E+02  0.00000000000E+00 0.  1.
          2   -1    0    0  501    0  0.00000000000E+00 -0.00000000000E+00 -0.28907628998E+03  0.28907628998E+03  0.00000000000E+00 0. -1.
         25    2    1    2    0    0 -0.95487622215E+02  0.43906933979E+02 -0.14867030502E+03  0.22089878655E+03  0.12509080484E+03 0.  0.
         23    2    1    2    0    0  0.95487622215E+02 -0.43906933979E+02 -0.56364455558E+02  0.15221903284E+03  0.94593748528E+02 0.  0.
          5    1    3    3  502    0 -0.10127369914E+03  0.56336845146E+02 -0.16338579334E+03  0.20035616318E+03  0.41800000000E+01 0.  1.
         -5    1    3    3    0  502  0.57860769300E+01 -0.12429911167E+02  0.14715488327E+02  0.20542623362E+02  0.41800000000E+01 0.  1.
        -11    1    4    4    0    0  0.65916042209E+02 -0.54719355430E+02  0.22331763864E+01  0.85697838689E+02  0.00000000000E+00 0.  1.
         11    1    4    4    0    0  0.29571580006E+02  0.10812421452E+02 -0.58597631944E+02  0.66521194150E+02  0.00000000000E+00 0. -1.
</event>
<event>
 8    1  0.6840084E-009  0.1423461E+03  0.7561462E-02  0.1210207E+00
          1   -1    0    0  501    0  0.00000000000E+00  0.00000000000E+00  0.72008130523E+02  0.72008130523E+02  0.00000000000E+00 0. -1.
         -1   -1    0    0    0  501 -0.00000000000E+00 -0.00000000000E+00 -0.42572186561E+03  0.42572186561E+03  0.00000000000E+00 0.  1.
         25    2    1    2    0    0  0.46578351275E+02 -0.84489324753E+02 -0.32486317132E+03  0.36124042907E+03  0.12510227299E+03 0.  0.
         23    2    1    2    0    0 -0.46578351275E+02  0.84489324753E+02 -0.28850563765E+02  0.13648956707E+03  0.92136084589E+02 0.  0.
          5    1    3    3  502    0  0.87746954808E+02 -0.38707359787E+02 -0.18721935486E+03  0.21039569153E+03  0.41800000000E+01 0. -1.
         -5    1    3    3    0  502 -0.41168603533E+02 -0.45781964966E+02 -0.13764381646E+03  0.15084473754E+03  0.41800000000E+01 0. -1.
        -11    1    4    4    0    0  0.18434613667E+02 -0.22650043924E+01  0.10284968758E+02  0.21230775028E+02  0.00000000000E+00 0. -1.
         11    1    4    4    0    0 -0.65012964942E+02  0.86754329146E+02 -0.39135532523E+02  0.11525879204E+03  0.00000000000E+00 0.  1.
</event>
<event>
 8    1  0.6840084E-009  0.9951775E+02  0.7561462E-02  0.1281313E+00
          2   -1    0    0  501    0  0.00000000000E+00  0.00000000000E+00  0.13325926572E+04  0.13325926572E+04  0.00000000000E+00 0. -1.
         -2   -1    0    0    0  501 -0.00000000000E+00 -0.00000000000E+00 -0.13606253640E+02  0.13606253640E+02  0.00000000000E+00 0.  1.
         25    2    1    2    0    0 -0.14133731975E+02 -0.15575681516E+02  0.11250663422E+04  0.11321947105E+04  0.12509286096E+03 0.  0.
         23    2    1    2    0    0  0.14133731975E+02  0.15575681516E+02  0.19392006132E+03  0.21400420031E+03  0.88036602251E+02 0.  0.
          5    1    3    3  502    0  0.45526504250E+02  0.32538958027E+01  0.20812049418E+03  0.21310763225E+03  0.41800000000E+01 0.  1.
         -5    1    3    3    0  502 -0.59660236225E+02 -0.18829577318E+02  0.91694584802E+03  0.91908707823E+03  0.41800000000E+01 0.  1.
        -11    1    4    4    0    0 -0.32880162475E+02 -0.13143115867E+02  0.74115473340E+02  0.82139819621E+02  0.00000000000E+00 0.  1.
         11    1    4    4    0    0  0.47013894450E+02  0.28718797383E+02  0.11980458798E+03  0.13186438069E+03  0.00000000000E+00 0. -1.
</event>
<event>
 8    1  0.6840084E-009  0.1106090E+03  0.7561462E-02  0.1259446E+00
          2   -1    0    0  501    0  0.00000000000E+00  0.00000000000E+00  0.47429491931E+03  0.47429491931E+03  0.00000000000E+00 0. -1.
         -2   -1    0    0    0  501 -0.00000000000E+00 -0.00000000000E+00 -0.65134100638E+02  0.65134100638E+02  0.00000000000E+00 0.  1.
         25    2    1    2    0    0 -0.51250727371E+01  0.60052445835E+02  0.41016176701E+03  0.43303258049E+03  0.12510786559E+03 0.  0.
         23    2    1    2    0    0  0.51250727371E+01 -0.60052445835E+02 -0.10009483300E+01  0.10639643946E+03  0.87673472674E+02 0.  0.
          5    1    3    3  502    0 -0.42877518003E+02  0.79776686783E+02  0.21687231786E+03  0.23506143018E+03  0.41800000000E+01 0.  1.
         -5    1    3    3    0  502  0.37752445266E+02 -0.19724240948E+02  0.19328944915E+03  0.19797115032E+03  0.41800000000E+01 0.  1.
        -11    1    4    4    0    0 -0.18778406073E+02  0.41618382047E+01 -0.26966020230E+02  0.33122736586E+02  0.00000000000E+00 0.  1.
         11    1    4    4    0    0  0.23903478810E+02 -0.64214284040E+02  0.25965071900E+02  0.73273702873E+02  0.00000000000E+00 0. -1.
</event>
<event>
 8    1  0.6840084E-009  0.1718402E+03  0.7561462E-02  0.1175942E+00
          1   -1    0    0  501    0  0.00000000000E+00  0.00000000000E+00  0.12110633297E+03  0.12110633297E+03  0.00000000000E+00 0. -1.
         -1   -1    0    0    0  501 -0.00000000000E+00 -0.00000000000E+00 -0.38322383826E+03  0.38322383826E+03  0.00000000000E+00 0.  1.
         25    2    1    2    0    0 -0.14202374899E+03  0.44964906168E+02 -0.73923631591E+01  0.19466562164E+03  0.12508984432E+03 0.  0.
         23    2    1    2    0    0  0.14202374899E+03 -0.44964906168E+02 -0.25472514213E+03  0.30966454959E+03  0.93886352447E+02 0.  0.
          5    1    3    3  502    0 -0.13648581696E+03 -0.11226740687E+02 -0.13715051346E+02  0.13769529030E+03  0.41800000000E+01 0.  1.
         -5    1    3    3    0  502 -0.55379320350E+01  0.56191646855E+02  0.63226881872E+01  0.56970331344E+02  0.41800000000E+01 0.  1.
        -11    1    4    4    0    0  0.20531505844E+02 -0.76000050983E-01 -0.12383080960E+03  0.12552138430E+03  0.00000000000E+00 0.  1.
         11    1    4    4    0    0  0.12149224315E+03 -0.44888906117E+02 -0.13089433252E+03  0.18414316529E+03  0.00000000000E+00 0. -1.
</event>
<event>
 8    1  0.6840084E-009  0.7765955E+02  0.7561462E-02  0.1335828E+00
          2   -1    0    0  501    0  0.00000000000E+00  0.00000000000E+00  0.87173946681E+03  0.87173946681E+03  0.00000000000E+00 0. -1.
         -2   -1    0    0    0  501 -0.00000000000E+00 -0.00000000000E+00 -0.20394580457E+02  0.20394580457E+02  0.00000000000E+00 0.  1.
         25    2    1    2    0    0  0.87943878692E+01 -0.18552095606E+02  0.72095556775E+03  0.73201541637E+03  0.12509243629E+03 0.  0.
         23    2    1    2    0    0 -0.87943878692E+01  0.18552095606E+02  0.13038931859E+03  0.16011863089E+03  0.90637078763E+02 0.  0.
          5    1    3    3  502    0  0.25847226956E+02 -0.32999519773E+02  0.69945405381E+03  0.70072140915E+03  0.41800000000E+01 0.  1.
         -5    1    3    3    0  502 -0.17052839087E+02  0.14447424167E+02  0.21501513939E+02  0.31294007217E+02  0.41800000000E+01 0.  1.
        -11    1    4    4    0    0 -0.69806105661E+01 -0.35597985979E+02  0.34952605805E+02  0.50374896349E+02  0.00000000000E+00 0. -1.
         11    1    4    4    0    0 -0.18137773030E+01  0.54150081585E+02  0.95436712790E+02  0.10974373455E+03  0.00000000000E+00 0.  1.
</event>
<event>
 8    1  0.6840084E-009  0.1137478E+03  0.7561462E-02  0.1253783E+00
          3   -1    0    0  501    0  0.00000000000E+00  0.00000000000E+00  0.38516867593E+02  0.38516867593E+02  0.00000000000E+00 0.  1.
         -3   -1    0    0    0  501 -0.00000000000E+00 -0.00000000000E+00 -0.58917229513E+03  0.58917229513E+03  0.00000000000E+00 0. -1.
         25    2    1    2    0    0 -0.52061830883E+02  0.89571272941E+02 -0.32184245222E+03  0.36050436465E+03  0.12508951080E+03 0.  0.
         23    2    1    2    0    0  0.52061830883E+02 -0.89571272941E+02 -0.22881297532E+03  0.26718479807E+03  0.91098251765E+02 0.  0.
          5    1    3    3  502    0 -0.94769079529E+00 -0.65135816896E+01 -0.18703249043E+03  0.18719495117E+03  0.41800000000E+01 0.  1.
         -5    1    3    3    0  502 -0.51114140088E+02  0.96084854631E+02 -0.13480996178E+03  0.17330941348E+03  0.41800000000E+01 0.  1.
        -11    1    4    4    0    0  0.36424561331E+02 -0.24591396737E+02 -0.20655143032E+02  0.48560481827E+02  0.00000000000E+00 0.  1.
         11    1    4    4    0    0  0.15637269553E+02 -0.64979876205E+02 -0.20815783229E+03  0.21862431625E+03  0.00000000000E+00 0. -1.
</event>
<event>
 8    1  0.6840084E-009  0.1209580E+03  0.7561462E-02  0.1241525E+00
         -4   -1    0    0    0  501 -0.00000000000E+00  0.00000000000E+00  0.14791711915E+02  0.14791711915E+02  0.00000000000E+00 0.  1.
          4   -1    0    0  501    0  0.00000000000E+00 -0.00000000000E+00 -0.13477297592E+04  0.13477297592E+04  0.00000000000E+00 0. -1.
         25    2    1    2    0    0 -0.60189707137E+02  0.16383279396E+02 -0.10391113157E+04  0.10484711281E+04  0.12509263509E+03 0.  0.
         23    2    1    2    0    0  0.60189707137E+02 -0.16383279396E+02 -0.29382673163E+03  0.31405034307E+03  0.91663826383E+02 0.  0.
          5    1    3    3  502    0 -0.63852849242E+02 -0.40598788128E+02 -0.74460612318E+03  0.74845253626E+03  0.41800000000E+01 0. -1.
         -5    1    3    3    0  502  0.36631421042E+01  0.56982067524E+02 -0.29450519252E+03  0.30001859184E+03  0.41800000000E+01 0. -1.
        -11    1    4    4    0    0  0.46652538255E+02  0.33344562567E+02 -0.18407804062E+03  0.19280312294E+03  0.00000000000E+00 0.  1.
         11    1    4    4    0    0  0.13537168882E+02 -0.49727841964E+02 -0.10974869102E+03  0.12124722012E+03  0.00000000000E+00 0. -1.
</event>
<event>
 8    1  0.6840084E-009  0.6536191E+02  0.7561462E-02  0.1376615E+00
          3   -1    0    0  501    0  0.00000000000E+00  0.00000000000E+00  0.91782787641E+02  0.91782787641E+02  0.00000000000E+00 0.  1.
         -3   -1    0    0    0  501 -0.00000000000E+00 -0.00000000000E+00 -0.15677389698E+03  0.15677389698E+03  0.00000000000E+00 0. -1.
         25    2    1    2    0    0  0.30449666353E+02 -0.36205413547E+02 -0.11841344729E+02  0.13426060841E+03  0.12509068460E+03 0.  0.
         23    2    1    2    0    0 -0.30449666353E+02  0.36205413547E+02 -0.53149764612E+02  0.11429607622E+03  0.89446528212E+02 0.  0.
          5    1    3    3  502    0  0.18769300430E+02 -0.36875634489E+02 -0.66376127849E+02  0.78328550388E+02  0.41800000000E+01 0. -1.
         -5    1    3    3    0  502  0.11680365924E+02  0.67022094231E+00  0.54534783120E+02  0.55932058019E+02  0.41800000000E+01 0. -1.
        -11    1    4    4    0    0  0.10480995675E+01  0.44202337831E+02  0.81081572755E+01  0.44952056648E+02  0.00000000000E+00 0.  1.
         11    1    4    4    0    0 -0.31497765921E+02 -0.79969242845E+01 -0.61257921888E+02  0.69344019569E+02  0.00000000000E+00 0. -1.
</event>
<event>
 8    1  0.6840084E-009  0.1031888E+03  0.7561462E-02  0.1273730E+00
          2   -1    0    0  501    0  0.00000000000E+00  0.00000000000E+00  0.14206581634E+03  0.14206581634E+03  0.00000000000E+00 0.  1.
         -2   -1    0    0    0  501 -0.00000000000E+00 -0.00000000000E+00 -0.14543592179E+03  0.14543592179E+03  0.00000000000E+00 0. -1.
         25    2    1    2    0    0 -0.13290352408E+02  0.58875375667E+02 -0.73741923283E+02  0.15725990264E+03  0.12509941007E+03 0.  0.
         23    2    1    2    0    0  0.13290352408E+02 -0.58875375667E+02  0.70371817840E+02  0.13024183549E+03  0.91475677855E+02 0.  0.
          5    1    3    3  502    0  0.43753965389E+02  0.51525009572E+02 -0.73013685719E+02  0.99587683982E+02  0.41800000000E+01 0.  1.
         -5    1    3    3    0  502 -0.57044317797E+02  0.73503660945E+01 -0.72823756403E+00  0.57672218655E+02  0.41800000000E+01 0.  1.
        -11    1    4    4    0    0 -0.20229207454E+02 -0.32718391015E+02  0.78070478611E+02  0.87032830445E+02  0.00000000000E+00 0.  1.
         11    1    4    4    0    0  0.33519559862E+02 -0.26156984652E+02 -0.76986607706E+01  0.43209005046E+02  0.00000000000E+00 0. -1.
</event>
<event>
 8    1  0.6840084E-009  0.2195398E+03  0.7561462E-02  0.1134227E+00
          1   -1    0    0  501    0  0.00000000000E+00  0.00000000000E+00  0.13572101302E+03  0.13572101302E+03  0.00000000000E+00 0. -1.
         -1   -1    0    0    0  501 -0.00000000000E+00 -0.00000000000E+00 -0.41056782287E+03  0.41056782287E+03  0.00000000000E+00 0.  1.
         25    2    1    2    0    0 -0.15760634804E+03  0.13400339609E+03 -0.10404007468E+03  0.26318812374E+03  0.12508789003E+03 0.  0.
         23    2    1    2    0    0  0.15760634804E+03 -0.13400339609E+03 -0.17080673517E+03  0.28310071215E+03  0.90412395901E+02 0.  0.
          5    1    3    3  502    0 -0.13725822480E+03  0.81382129701E+02 -0.12511663762E+03  0.20281646067E+03  0.41800000000E+01 0. -1.
         -5    1    3    3    0  502 -0.20348123234E+02  0.52621266389E+02  0.21076562946E+02  0.60371663064E+02  0.41800000000E+01 0. -1.
        -11    1    4    4    0    0  0.52562685594E+02  0.63983460627E-01 -0.60680573649E+02  0.80280583138E+02  0.00000000000E+00 0.  1.
         11    1    4    4    0    0  0.10504366244E+03 -0.13406737955E+03 -0.11012616152E+03  0.20282012901E+03  0.00000000000E+00 0. -1.
</event>
<event>
 8    1  0.6840084E-009  0.1716763E+03  0.7561462E-02  0.1176111E+00
          2   -1    0    0  501    0  0.00000000000E+00  0.00000000000E+00  0.25490229096E+03  0.25490229096E+03  0.00000000000E+00 0.  1.
         -2   -1    0    0    0  501 -0.00000000000E+00 -0.00000000000E+00 -0.14223220584E+03  0.14223220584E+03  0.00000000000E+00 0. -1.
         25    2    1    2    0    0  0.12647783199E+03  0.58086719304E+02  0.12717966133E+03  0.22625931799E+03  0.12509158156E+03 0.  0.
         23    2    1    2    0    0 -0.12647783199E+03 -0.58086719304E+02 -0.14509576204E+02  0.17087517880E+03  0.98066762893E+02 0.  0.
          5    1    3    3  502    0  0.14841091341E+03  0.49015265719E+02  0.12812131737E+03  0.20214064376E+03  0.41800000000E+01 0.  1.
         -5    1    3    3    0  502 -0.21933081421E+02  0.90714535858E+01 -0.94165604457E+00  0.24118674235E+02  0.41800000000E+01 0.  1.
        -11    1    4    4    0    0 -0.10203424086E+03 -0.23739856408E+01  0.15169283105E+02  0.10318298923E+03  0.00000000000E+00 0.  1.
         11    1    4    4    0    0 -0.24443591131E+02 -0.55712733664E+02 -0.29678859309E+02  0.67692189576E+02  0.00000000000E+00 0. -1.
</event>
<event>
 8    1  0.6840084E-009  0.7954863E+02  0.7561462E-02  0.1330337E+00
         -2   -1    0    0    0  501 -0.00000000000E+00  0.00000000000E+00  0.26300835573E+03  0.26300835573E+03  0.00000000000E+00 0.  1.
          2   -1    0    0  501    0  0.00000000000E+00 -0.00000000000E+00 -0.47497290493E+02  0.47497290493E+02  0.00000000000E+00 0. -1.
         25    2    1    2    0    0  0.27952859526E+02 -0.30804527375E+02  0.10526850699E+03  0.16870242279E+03  0.12509503439E+03 0.  0.
         23    2    1    2    0    0 -0.27952859526E+02  0.30804527375E+02  0.11024255824E+03  0.14180322342E+03  0.78895191638E+02 0.  0.
          5    1    3    3  502    0  0.27284085356E+02  0.10240768394E+02 -0.20803652370E+02  0.36049396707E+02  0.41800000000E+01 0. -1.
         -5    1    3    3    0  502  0.66877416973E+00 -0.41045295768E+02  0.12607215936E+03  0.13265302609E+03  0.41800000000E+01 0. -1.
        -11    1    4    4    0    0  0.26424532306E+02  0.19532514125E+02  0.32092728941E+02  0.45931669538E+02  0.00000000000E+00 0.  1.
         11    1    4    4    0    0 -0.54377391832E+02  0.11272013250E+02  0.78149829300E+02  0.95871553887E+02  0.00000000000E+00 0. -1.
</event>
<event>
 8    1  0.6840084E-009  0.1413704E+03  0.7561462E-02  0.1211497E+00
          1   -1    0    0  501    0  0.00000000000E+00  0.00000000000E+00  0.67116164260E+03  0.67116164260E+03  0.00000000000E+00 0. -1.
         -1   -1    0    0    0  501 -0.00000000000E+00 -0.00000000000E+00 -0.55500933002E+02  0.55500933002E+02  0.00000000000E+00 0.  1.
         25    2    1    2    0    0  0.13628291388E+02  0.13433966931E+03  0.49350844192E+03  0.52671644644E+03  0.12508699224E+03 0.  0.
         23    2    1    2    0    0 -0.13628291388E+02 -0.13433966931E+03  0.12215226768E+03  0.19994612917E+03  0.82609932774E+02 0.  0.
          5    1    3    3  502    0  0.35036495237E+02  0.60281704702E+02  0.80610803975E+02  0.10666308658E+03  0.41800000000E+01 0. -1.
         -5    1    3    3    0  502 -0.21408203849E+02  0.74057964605E+02  0.41289763794E+03  0.42005335986E+03  0.41800000000E+01 0. -1.
        -11    1    4    4    0    0 -0.86156325902E+01 -0.29594424237E+02  0.82095133450E+02  0.87690763522E+02  0.00000000000E+00 0. -1.
         11    1    4    4    0    0 -0.50126587977E+01 -0.10474524507E+03  0.40057134232E+02  0.11225536564E+03  0.00000000000E+00 0.  1.
</event>
<event>
 8    1  0.6840084E-009  0.1575975E+03  0.7561462E-02  0.1191436E+00
         -1   -1    0    0    0  501 -0.00000000000E+00  0.00000000000E+00  0.71537619940E+02  0.71537619940E+02  0.00000000000E+00 0.  1.
          1   -1    0    0  501    0  0.00000000000E+00 -0.00000000000E+00 -0.46036934323E+03  0.46036934323E+03  0.00000000000E+00 0. -1.
         25    2    1    2    0    0  0.13171641055E+03  0.52601550296E+01 -0.30012390552E+03  0.35085398901E+03  0.12508909185E+03 0.  0.
         23    2    1    2    0    0 -0.13171641055E+03 -0.52601550296E+01 -0.88707817776E+02  0.18105297416E+03  0.86799887550E+02 0.  0.
          5    1    3    3  502    0  0.39550066071E+02  0.42753392524E+02 -0.20493218867E+03  0.21308856058E+03  0.41800000000E+01 0.  1.
         -5    1    3    3    0  502  0.92166344482E+02 -0.37493237494E+02 -0.95191716848E+02  0.13776542843E+03  0.41800000000E+01 0.  1.
        -11    1    4    4    0    0 -0.46222792044E+02 -0.43579173303E+02 -0.28061328108E+02  0.69448750783E+02  0.00000000000E+00 0. -1.
         11    1    4    4    0    0 -0.85493618509E+02  0.38319018274E+02 -0.60646489668E+02  0.11160422338E+03  0.00000000000E+00 0.  1.
</event>
<event>
 8    1  0.6840084E-009  0.1147427E+03  0.7561462E-02  0.1252031E+00
         -2   -1    0    0    0  501 -0.00000000000E+00  0.00000000000E+00  0.13768140267E+03  0.13768140267E+03  0.00000000000E+00 0.  1.
          2   -1    0    0  501    0  0.00000000000E+00 -0.00000000000E+00 -0.17007977018E+03  0.17007977018E+03  0.00000000000E+00 0. -1.
         25    2    1    2    0    0 -0.77245790492E+02  0.18821317712E+02  0.56745577942E+02  0.15871053698E+03  0.12509124583E+03 0.  0.
         23    2    1    2    0    0  0.77245790492E+02 -0.18821317712E+02 -0.89143945451E+02  0.14905063587E+03  0.89153210232E+02 0.  0.
          5    1    3    3  502    0 -0.91538405540E+02 -0.28154582663E+02  0.21831175674E+02  0.98315984688E+02  0.41800000000E+01 0. -1.
         -5    1    3    3    0  502  0.14292615049E+02  0.46975900375E+02  0.34914402268E+02  0.60394552293E+02  0.41800000000E+01 0. -1.
        -11    1    4    4    0    0  0.63535424188E+02 -0.32805943247E+01 -0.66191798389E+01  0.63963473699E+02  0.00000000000E+00 0.  1.
         11    1    4    4    0    0  0.13710366304E+02 -0.15540723388E+02 -0.82524765612E+02  0.85087162175E+02  0.00000000000E+00 0. -1.
</event>
<event>
 8    1  0.6840084E-009  0.8708701E+02  0.7561462E-02  0.1310063E+00
          1   -1    0    0  501    0  0.00000000000E+00  0.00000000000E+00  0.67256279540E+03  0.67256279540E+03  0.00000000000E+00 0.  1.
         -1   -1    0    0    0  501 -0.00000000000E+00 -0.00000000000E+00 -0.43761299589E+02  0.43761299589E+02  0.00000000000E+00 0. -1.
         25    2    1    2    0    0  0.98142362368E+01 -0.29318821053E+02  0.60434355223E+03  0.61792787549E+03  0.12509123745E+03 0.  0.
         23    2    1    2    0    0 -0.98142362368E+01  0.29318821053E+02  0.24457943576E+02  0.98396219493E+02  0.90153826905E+02 0.  0.
          5    1    3    3  502    0  0.21075828949E+02  0.21074237405E+02  0.50492947448E+03  0.50582562277E+03  0.41800000000E+01 0.  1.
         -5    1    3    3    0  502 -0.11261592712E+02 -0.50393058458E+02  0.99414077754E+02  0.11210225273E+03  0.41800000000E+01 0.  1.
        -11    1    4    4    0    0  0.38284469054E+02  0.20308192092E+02  0.23829535784E+02  0.49456748907E+02  0.00000000000E+00 0.  1.
         11    1    4    4    0    0 -0.48098705290E+02  0.90106289611E+01  0.62840779233E+00  0.48939470586E+02  0.00000000000E+00 0. -1.
</event>
<event>
 8    1  0.6840084E-009  0.1015576E+03  0.7561462E-02  0.1277054E+00
         -1   -1    0    0    0  501 -0.00000000000E+00  0.00000000000E+00  0.25455192144E+02  0.25455192144E+02  0.00000000000E+00 0.  1.
          1   -1    0    0  501    0  0.00000000000E+00 -0.00000000000E+00 -0.54213902776E+03  0.54213902776E+03  0.00000000000E+00 0. -1.
         25    2    1    2    0    0 -0.32086743272E+02 -0.83625818632E+00 -0.21865496472E+03  0.25394802616E+03  0.12509735399E+03 0.  0.
         23    2    1    2    0    0  0.32086743272E+02  0.83625818632E+00 -0.29802887090E+03  0.31364619374E+03  0.92317216909E+02 0.  0.
          5    1    3    3  502    0 -0.66781245302E+02  0.14313530321E+02 -0.60710248130E+02  0.91475780961E+02  0.41800000000E+01 0. -1.
         -5    1    3    3    0  502  0.34694502030E+02 -0.15149788508E+02 -0.15794471659E+03  0.16247224520E+03  0.41800000000E+01 0. -1.
        -11    1    4    4    0    0  0.27743350629E+02  0.44653071999E+02 -0.18563679837E+03  0.19293680637E+03  0.00000000000E+00 0.  1.
         11    1    4    4    0    0  0.43433926432E+01 -0.43816813813E+02 -0.11239207253E+03  0.12070938737E+03  0.00000000000E+00 0. -1.
</event>
<event>
 8    1  0.6840084E-009  0.8636135E+02  0.7561462E-02  0.1311910E+00
          4   -1    0    0  501    0  0.00000000000E+00  0.00000000000E+00  0.25096497151E+02  0.25096497151E+02  0.00000000000E+00 0. -1.
         -4   -1    0    0    0  501 -0.00000000000E+00 -0.00000000000E+00 -0.47359050503E+03  0.47359050503E+03  0.00000000000E+00 0.  1.
         25    2    1    2    0    0 -0.11559786691E+02  0.13953566449E+02 -0.25963390865E+03  0.28876791294E+03  0.12509520511E+03 0.  0.
         23    2    1    2    0    0  0.11559786691E+02 -0.13953566449E+02 -0.18886009923E+03  0.20991908923E+03  0.89830708891E+02 0.  0.
          5    1    3    3  502    0  0.17717093823E+02 -0.39970128084E+02 -0.19364435985E+03  0.19856262754E+03  0.41800000000E+01 0.  1.
         -5    1    3    3    0  502 -0.29276880514E+02  0.53923694532E+02 -0.65989548796E+02  0.90205285405E+02  0.41800000000E+01 0.  1.
        -11    1    4    4    0    0 -0.11215544091E+02 -0.34716062736E+02 -0.16981660612E+03  0.17369131572E+03  0.00000000000E+00 0.  1.
         11    1    4    4    0    0  0.22775330782E+02  0.20762496287E+02 -0.19043493106E+02  0.36227773516E+02  0.00000000000E+00 0. -1.
</event>
<event>
 8    1  0.6840084E-009  0.1303287E+03  0.7561462E-02  0.1226969E+00
          2   -1    0    0  501    0  0.00000000000E+00  0.00000000000E+00  0.73960669793E+03  0.73960669793E+03  0.00000000000E+00 0. -1.
         -2   -1    0    0    0  501 -0.00000000000E+00 -0.00000000000E+00 -0.26073565716E+02  0.26073565716E+02  0.00000000000E+00 0.  1.
         25    2    1    2    0    0 -0.83733083976E+02 -0.21423420231E+02  0.41227339966E+03  0.43941544315E+03  0.12508550407E+03 0.  0.
         23    2    1    2    0    0  0.83733083976E+02  0.21423420231E+02  0.30125973256E+03  0.32626482049E+03  0.90670360897E+02 0.  0.
          5    1    3    3  502    0  0.23701776188E+02 -0.32023590941E+02  0.16083836155E+03  0.16575203020E+03  0.41800000000E+01 0.  1.
         -5    1    3    3    0  502 -0.10743486016E+03  0.10600170710E+02  0.25143503811E+03  0.27366341295E+03  0.41800000000E+01 0.  1.
        -11    1    4    4    0    0  0.95168528236E+02  0.88724883623E+01  0.29129943483E+03  0.30657972951E+03  0.00000000000E+00 0. -1.
         11    1    4    4    0    0 -0.11435444260E+02  0.12550931868E+02  0.99602977321E+01  0.19685090985E+02  0.00000000000E+00 0.  1.
</event>
<event>
 8    1  0.6840084E-009  0.1114704E+03  0.7561462E-02  0.1257871E+00
          2   -1    0    0  501    0  0.00000000000E+00  0.00000000000E+00  0.43259197388E+03  0.43259197388E+03  0.00000000000E+00 0.  1.
         -2   -1    0    0    0  501 -0.00000000000E+00 -0.00000000000E+00 -0.31302445626E+02  0.31302445626E+02  0.00000000000E+00 0. -1.
         25    2    1    2    0    0 -0.28451579040E+01 -0.40242580624E+02  0.20262365988E+03  0.24151798652E+03  0.12508808917E+03 0.  0.
         23    2    1    2    0    0  0.28451579040E+01  0.40242580624E+02  0.19866586837E+03  0.22237643298E+03  0.91408918985E+02 0.  0.
          5    1    3    3  502    0  0.57764157777E+02 -0.14890791525E+02  0.13231754989E+03  0.14520275481E+03  0.41800000000E+01 0. -1.
         -5    1    3    3    0  502 -0.60609315681E+02 -0.25351789099E+02  0.70306109992E+02  0.96315231714E+02  0.41800000000E+01 0. -1.
        -11    1    4    4    0    0  0.18525530174E+02 -0.24489409820E+02  0.41038020060E+02  0.51254712485E+02  0.00000000000E+00 0. -1.
         11    1    4    4    0    0 -0.15680372270E+02  0.64731990444E+02  0.15762784831E+03  0.17112172049E+03  0.00000000000E+00 0.  1.
</event>
<event>
 8    1  0.6840084E-009  0.9040109E+02  0.7561462E-02  0.1301883E+00
          2   -1    0    0  501    0  0.00000000000E+00  0.00000000000E+00  0.61775655609E+03  0.61775655609E+03  0.00000000000E+00 0. -1.
         -2   -1    0    0    0  501 -0.00000000000E+00 -0.00000000000E+00 -0.31406698154E+02  0.31406698154E+02  0.00000000000E+00 0.  1.
         25    2    1    2    0    0 -0.45420675604E+02  0.23296659800E+02  0.49288961762E+03  0.51107290450E+03  0.12509822711E+03 0.  0.
         23    2    1    2    0    0  0.45420675604E+02 -0.23296659800E+02  0.93460240324E+02  0.13809034975E+03  0.87911068945E+02 0.  0.
          5    1    3    3  502    0 -0.65198308118E+02 -0.29189924596E+02  0.19047766858E+03  0.20347502478E+03  0.41800000000E+01 0. -1.
         -5    1    3    3    0  502  0.19777632514E+02  0.52486584397E+02  0.30241194903E+03  0.30759787972E+03  0.41800000000E+01 0. -1.
        -11    1    4    4    0    0  0.22629281066E+02 -0.19547885062E+02  0.10714737118E+03  0.11124191352E+03  0.00000000000E+00 0. -1.
         11    1    4    4    0    0  0.22791394538E+02 -0.37487747382E+01 -0.13687130859E+02  0.26848436233E+02  0.00000000000E+00 0.  1.
</event>
<event>
 8    1  0.6840084E-009  0.2415306E+03  0.7561462E-02  0.1118777E+00
         -2   -1    0    0    0  501 -0.00000000000E+00  0.00000000000E+00  0.36084719207E+03  0.36084719207E+03  0.00000000000E+00 0.  1.
          2   -1    0    0  501    0  0.00000000000E+00 -0.00000000000E+00 -0.19512187913E+03  0.19512187913E+03  0.00000000000E+00 0. -1.
         25    2    1    2    0    0 -0.10968737520E+03 -0.19532127140E+03  0.18410749954E+03  0.31579504465E+03  0.12509684048E+03 0.  0.
         23    2    1    2    0    0  0.10968737520E+03  0.19532127140E+03 -0.18382186600E+02  0.24017402655E+03  0.84640054987E+02 0.  0.
          5    1    3    3  502    0  0.20760251433E+02 -0.29799694862E+02  0.62601920668E+02  0.72494708253E+02  0.41800000000E+01 0. -1.
         -5    1    3    3    0  502 -0.13044762663E+03 -0.16552157653E+03  0.12150557887E+03  0.24330033639E+03  0.41800000000E+01 0. -1.
        -11    1    4    4    0    0 -0.38827621340E+01  0.55257053471E+02  0.13597622456E+02  0.57037821982E+02  0.00000000000E+00 0. -1.
         11    1    4    4    0    0  0.11357013733E+03  0.14006421792E+03 -0.31979809056E+02  0.18313620457E+03  0.00000000000E+00 0.  1.
</event>
<event>
 8    1  0.6840084E-009  0.1907808E+03  0.7561462E-02  0.1157759E+00
         -2   -1    0    0    0  501 -0.00000000000E+00  0.00000000000E+00  0.22353392945E+03  0.22353392945E+03  0.00000000000E+00 0.  1.
          2   -1    0    0  501    0  0.00000000000E+00 -0.00000000000E+00 -0.19181909640E+03  0.19181909640E+03  0.00000000000E+00 0. -1.
         25    2    1    2    0    0 -0.10491897814E+03 -0.12867045745E+03 -0.41713307584E+02  0.21201748553E+03  0.12508931029E+03 0.  0.
         23    2    1    2    0    0  0.10491897814E+03  0.12867045745E+03  0.73428140629E+02  0.20333554032E+03  0.91594604247E+02 0.  0.
          5    1    3    3  502    0 -0.43781981719E+01 -0.10028448059E+03 -0.29560066899E+01  0.10051047727E+03  0.41800000000E+01 0. -1.
         -5    1    3    3    0  502 -0.10054077996E+03 -0.28385976864E+02 -0.38757300894E+02  0.11150700826E+03  0.41800000000E+01 0. -1.
        -11    1    4    4    0    0  0.24919822763E+01  0.42820653214E+02 -0.12219754814E+02  0.44599783913E+02  0.00000000000E+00 0. -1.
         11    1    4    4    0    0  0.10242699586E+03  0.85849804239E+02  0.85647895443E+02  0.15873575641E+03  0.00000000000E+00 0.  1.
</event>
<event>
 8    1  0.6840084E-009  0.1336013E+03  0.7561462E-02  0.1222208E+00
          1   -1    0    0  501    0  0.00000000000E+00  0.00000000000E+00  0.52675466675E+03  0.52675466675E+03  0.00000000000E+00 0. -1.
         -1   -1    0    0    0  501 -0.00000000000E+00 -0.00000000000E+00 -0.38571944109E+02  0.38571944109E+02  0.00000000000E+00 0.  1.
         25    2    1    2    0    0  0.31499069702E+02  0.81173076357E+02  0.32243298360E+03  0.35663915384E+03  0.12508875817E+03 0.  0.
         23    2    1    2    0    0 -0.31499069702E+02 -0.81173076357E+02  0.16574973904E+03  0.20868745702E+03  0.92174936987E+02 0.  0.
          5    1    3    3  502    0 -0.27147412007E+02 -0.12854862662E+02  0.13916173012E+03  0.14242783788E+03  0.41800000000E+01 0.  1.
         -5    1    3    3    0  502  0.58646481709E+02  0.94027939019E+02  0.18327125349E+03  0.21421131597E+03  0.41800000000E+01 0.  1.
        -11    1    4    4    0    0 -0.56357445492E+02 -0.19752294187E+02  0.66810058013E+02  0.89609701705E+02  0.00000000000E+00 0.  1.
         11    1    4    4    0    0  0.24858375789E+02 -0.61420782170E+02  0.98939681028E+02  0.11907775532E+03  0.00000000000E+00 0. -1.
</event>
<event>
 8    1  0.6840084E-009  0.8236144E+02  0.7561462E-02  0.1322480E+00
          4   -1    0    0  501    0  0.00000000000E+00  0.00000000000E+00  0.94187949096E+03  0.94187949096E+03  0.00000000000E+00 0. -1.
         -4   -1    0    0    0  501 -0.00000000000E+00 -0.00000000000E+00 -0.18047912203E+02  0.18047912203E+02  0.00000000000E+00 0.  1.
         25    2    1    2    0    0  0.27167994309E+02  0.23628603915E+02  0.73492172116E+03  0.74635970349E+03  0.12508581023E+03 0.  0.
         23    2    1    2    0    0 -0.27167994309E+02 -0.23628603915E+02  0.18890985759E+03  0.21356769967E+03  0.92886044211E+02 0.  0.
          5    1    3    3  502    0 -0.41677649761E+02  0.12156278334E+02  0.12394070074E+03  0.13139091023E+03  0.41800000000E+01 0.  1.
         -5    1    3    3    0  502  0.68845644070E+02  0.11472325581E+02  0.61098102043E+03  0.61496879326E+03  0.41800000000E+01 0.  1.
        -11    1    4    4    0    0 -0.11553949692E+02 -0.31607629461E+02  0.19270968970E+03  0.19562607316E+03  0.00000000000E+00 0. -1.
         11    1    4    4    0    0 -0.15614044617E+02  0.79790255461E+01 -0.37998321081E+01  0.17941626515E+02  0.00000000000E+00 0.  1.
</event>
<event>
 8    1  0.6840084E-009  0.3255017E+03  0.7561462E-02  0.1073145E+00
         -2   -1    0    0    0  501 -0.00000000000E+00  0.00000000000E+00  0.59053049375E+02  0.59053049375E+02  0.00000000000E+00 0.  1.
          2   -1    0    0  501    0  0.00000000000E+00 -0.00000000000E+00 -0.19421909435E+04  0.19421909435E+04  0.00000000000E+00 0. -1.
         25    2    1    2    0    0  0.12866399630E+02  0.31815382716E+03 -0.84549247344E+03  0.91208098775E+03  0.12508718394E+03 0.  0.
         23    2    1    2    0    0 -0.12866399630E+02 -0.31815382716E+03 -0.10376454207E+04  0.10891630051E+04  0.90446839053E+02 0.  0.
          5    1    3    3  502    0 -0.10085624198E+02  0.10611012684E+03 -0.45271610643E+03  0.46511334560E+03  0.41800000000E+01 0. -1.
         -5    1    3    3    0  502  0.22952023829E+02  0.21204370032E+03 -0.39277636702E+03  0.44696764215E+03  0.41800000000E+01 0. -1.
        -11    1    4    4    0    0 -0.51221071932E+02 -0.21322683964E+03 -0.68642123753E+03  0.72059933298E+03  0.00000000000E+00 0.  1.
         11    1    4    4    0    0  0.38354672302E+02 -0.10492698752E+03 -0.35122418313E+03  0.36856367213E+03  0.00000000000E+00 0. -1.
</event>
<event>
 8    1  0.6840084E-009  0.1783247E+03  0.7561462E-02  0.1169434E+00
         -1   -1    0    0    0  501 -0.00000000000E+00  0.00000000000E+00  0.38207663192E+03  0.38207663192E+03  0.00000000000E+00 0.  1.
          1   -1    0    0  501    0  0.00000000000E+00 -0.00000000000E+00 -0.12661207029E+03  0.12661207029E+03  0.00000000000E+00 0. -1.
         25    2    1    2    0    0 -0.98783454257E+02  0.10977650674E+03 -0.82859204880E+01  0.19370750218E+03  0.12507952532E+03 0.  0.
         23    2    1    2    0    0  0.98783454257E+02 -0.10977650674E+03  0.26375048212E+03  0.31498120003E+03  0.88542573285E+02 0.  0.
          5    1    3    3  502    0 -0.54922631712E+02 -0.15564977784E+02 -0.19268243704E+02  0.60394549614E+02  0.41800000000E+01 0. -1.
         -5    1    3    3    0  502 -0.43860822545E+02  0.12534148453E+03  0.10982323216E+02  0.13331295256E+03  0.41800000000E+01 0. -1.
        -11    1    4    4    0    0 -0.88707914998E+01 -0.33394384777E+02  0.26734795868E+02  0.43687815081E+02  0.00000000000E+00 0.  1.
         11    1    4    4    0    0  0.10765424576E+03 -0.76382121966E+02  0.23701568625E+03  0.27129338495E+03  0.00000000000E+00 0. -1.
</event>
<event>
 8    1  0.6840084E-009  0.1519086E+03  0.7561462E-02  0.1198147E+00
          2   -1    0    0  501    0  0.00000000000E+00  0.00000000000E+00  0.90616479616E+02  0.90616479616E+02  0.00000000000E+00 0. -1.
         -2   -1    0    0    0  501 -0.00000000000E+00 -0.00000000000E+00 -0.31112177943E+03  0.31112177943E+03  0.00000000000E+00 0.  1.
         25    2    1    2    0    0 -0.11328190047E+03 -0.12099054642E+02 -0.18614935472E+03  0.25155501754E+03  0.12509663661E+03 0.  0.
         23    2    1    2    0    0  0.11328190047E+03  0.12099054642E+02 -0.34355945096E+02  0.15018324150E+03  0.91626955454E+02 0.  0.
          5    1    3    3  502    0 -0.93232135411E+02  0.44417326610E+02 -0.84680862567E+02  0.13361680606E+03  0.41800000000E+01 0.  1.
         -5    1    3    3    0  502 -0.20049765063E+02 -0.56516381252E+02 -0.10146849215E+03  0.11793821148E+03  0.41800000000E+01 0.  1.
        -11    1    4    4    0    0  0.10715952080E+03 -0.18844750650E+02 -0.80344983821E+01  0.10910014064E+03  0.00000000000E+00 0. -1.
         11    1    4    4    0    0  0.61223796788E+01  0.30943805292E+02 -0.26321446714E+02  0.41083100857E+02  0.00000000000E+00 0.  1.
</event>
<event>
 8    1  0.6840084E-009  0.1313868E+03  0.7561462E-02  0.1225412E+00
         -2   -1    0    0    0  501 -0.00000000000E+00  0.00000000000E+00  0.26546808256E+02  0.26546808256E+02  0.00000000000E+00 0.  1.
          2   -1    0    0  501    0  0.00000000000E+00 -0.00000000000E+00 -0.10748564676E+04  0.10748564676E+04  0.00000000000E+00 0. -1.
         25    2    1    2    0    0 -0.91657856730E+02  0.58802073971E+02 -0.77908980588E+03  0.79654630936E+03  0.12508497407E+03 0.  0.
         23    2    1    2    0    0  0.91657856730E+02 -0.58802073971E+02 -0.26921985351E+03  0.30485696653E+03  0.92733995470E+02 0.  0.
          5    1    3    3  502    0 -0.98360542950E+02  0.14699154228E+02 -0.68657276979E+03  0.69375103760E+03  0.41800000000E+01 0. -1.
         -5    1    3    3    0  502  0.67026862199E+01  0.44102919743E+02 -0.92517036083E+02  0.10279527177E+03  0.41800000000E+01 0. -1.
        -11    1    4    4    0    0  0.51038468195E+02 -0.58730563696E+02 -0.24612463920E+03  0.25813086288E+03  0.00000000000E+00 0. -1.
         11    1    4    4    0    0  0.40619388536E+02 -0.71510274445E-01 -0.23095214305E+02  0.46726103653E+02  0.00000000000E+00 0.  1.
</event>
<event>
 7    1  0.6840084E-009  0.8923472E+02  0.7561462E-02  0.1304716E+00
          2   -1    0    0  501    0  0.00000000000E+00  0.00000000000E+00  0.92458929146E+03  0.92458929146E+03  0.00000000000E+00 0. -1.
         -2   -1    0    0    0  501 -0.00000000000E+00 -0.00000000000E+00 -0.15326669837E+02  0.15326669837E+02  0.00000000000E+00 0.  1.
         23    2    1    2    0    0  0.17269828874E+02 -0.23320565356E+02  0.33536491876E+03  0.35184772940E+03  0.10239677823E+03 0.  0.
          5    1    1    2  502    0 -0.24153950159E+02  0.51982042923E+02  0.53959811742E+03  0.54265011454E+03  0.41800000000E+01 0. -1.
         -5    1    1    2    0  502  0.68841212850E+01 -0.28661477567E+02  0.34299585449E+02  0.45418117356E+02  0.41800000000E+01 0. -1.
        -11    1    3    3    0    0  0.51848265458E+02 -0.22809603353E+02  0.28611996048E+03  0.29167302313E+03  0.00000000000E+00 0. -1.
         11    1    3    3    0    0 -0.34578436584E+02 -0.51096200294E+00  0.49244958277E+02  0.60174706268E+02  0.00000000000E+00 0.  1.
</event>
<event>
 8    1  0.6840084E-009  0.1209281E+03  0.7561462E-02  0.1241574E+00
         -2   -1    0    0    0  501 -0.00000000000E+00  0.00000000000E+00  0.16585698052E+02  0.16585698052E+02  0.00000000000E+00 0.  1.
          2   -1    0    0  501    0  0.00000000000E+00 -0.00000000000E+00 -0.10559790069E+04  0.10559790069E+04  0.00000000000E+00 0. -1.
         25    2    1    2    0    0  0.34762568338E+02  0.51751062653E+02 -0.74905288757E+03  0.76198110441E+03  0.12509343093E+03 0.  0.
         23    2    1    2    0    0 -0.34762568338E+02 -0.51751062653E+02 -0.29034042131E+03  0.31058360057E+03  0.90983537273E+02 0.  0.
          5    1    3    3  502    0  0.40686524060E+02 -0.29325461675E+02 -0.42022170861E+03  0.42322468351E+03  0.41800000000E+01 0.  1.
         -5    1    3    3    0  502 -0.59239557215E+01  0.81076524328E+02 -0.32883117896E+03  0.33875642090E+03  0.41800000000E+01 0.  1.
        -11    1    4    4    0    0 -0.50452789026E+02  0.55138741426E+01 -0.14229209590E+03  0.15107258945E+03  0.00000000000E+00 0.  1.
         11    1    4    4    0    0  0.15690220688E+02 -0.57264936795E+02 -0.14804832541E+03  0.15951101112E+03  0.00000000000E+00 0. -1.
</event>
<event>
 8    1  0.6840084E-009  0.9031607E+02  0.7561462E-02  0.1302088E+00
          2   -1    0    0  501    0  0.00000000000E+00  0.00000000000E+00  0.13672795513E+02  0.13672795513E+02  0.00000000000E+00 0. -1.
         -2   -1    0    0    0  501 -0.00000000000E+00 -0.00000000000E+00 -0.98004347181E+03  0.98004347181E+03  0.00000000000E+00 0.  1.
         25    2    1    2    0    0 -0.38911796101E+02  0.38462836709E+01 -0.59247317261E+03  0.60679575228E+03  0.12509077881E+03 0.  0.
         23    2    1    2    0    0  0.38911796101E+02 -0.38462836709E+01 -0.37389750368E+03  0.38692051505E+03  0.91538079112E+02 0.  0.
          5    1    3    3  502    0  0.17395481971E+02 -0.18174999215E+02 -0.46447845772E+03  0.46517807716E+03  0.41800000000E+01 0. -1.
         -5    1    3    3    0  502 -0.56307278072E+02  0.22021282886E+02 -0.12799471489E+03  0.14161767511E+03  0.41800000000E+01 0. -1.
        -11    1    4    4    0    0 -0.27211202547E+02  0.54487377376E+01 -0.61573267407E+02  0.67538178434E+02  0.00000000000E+00 0. -1.
         11    1    4    4    0    0  0.66122998647E+02 -0.92950214086E+01 -0.31232423628E+03  0.31938233661E+03  0.00000000000E+00 0.  1.
</event>
<event>
 8    1  0.6840084E-009  0.1419767E+03  0.7561462E-02  0.1210694E+00
          2   -1    0    0  501    0  0.00000000000E+00  0.00000000000E+00  0.19529621323E+03  0.19529621323E+03  0.00000000000E+00 0. -1.
         -2   -1    0    0    0  501 -0.00000000000E+00 -0.00000000000E+00 -0.11893082352E+03  0.11893082352E+03  0.00000000000E+00 0.  1.
         25    2    1    2    0    0  0.96716948446E+02  0.34771573087E+02  0.14587231309E+02  0.16255621802E+03  0.12509398982E+03 0.  0.
         23    2    1    2    0    0 -0.96716948446E+02 -0.34771573087E+02  0.61778158399E+02  0.15167081873E+03  0.92866926234E+02 0.  0.
          5    1    3    3  502    0  0.12597755508E+03  0.20538478083E+02  0.29371673473E+01  0.12774299518E+03  0.41800000000E+01 0.  1.
         -5    1    3    3    0  502 -0.29260606636E+02  0.14233095005E+02  0.11650063962E+02  0.34813222839E+02  0.41800000000E+01 0.  1.
        -11    1    4    4    0    0 -0.70676499978E+01 -0.33023894852E+02  0.51266537286E+02  0.61390448386E+02  0.00000000000E+00 0. -1.
         11    1    4    4    0    0 -0.89649298448E+02 -0.17476782350E+01  0.10511621113E+02  0.90280370346E+02  0.00000000000E+00 0.  1.
</event>
<event>
 8    1  0.6840084E-009  0.1004230E+03  0.7561462E-02  0.1279409E+00
         -2   -1    0    0    0  501 -0.00000000000E+00  0.00000000000E+00  0.73581504109E+02  0.73581504109E+02  0.00000000000E+00 0.  1.
          2   -1    0    0  501    0  0.00000000000E+00 -0.00000000000E+00 -0.17954075933E+03  0.17954075933E+03  0.00000000000E+00 0. -1.
         25    2    1    2    0    0  0.22223968528E+02 -0.51139662335E+02 -0.29716746085E+02  0.14014136449E+03  0.12508935687E+03 0.  0.
         23    2    1    2    0    0 -0.22223968528E+02  0.51139662335E+02 -0.76242509140E+02  0.11298089896E+03  0.61988656125E+02 0.  0.
          5    1    3    3  502    0  0.12214005963E+02  0.40656001249E+02  0.12011281304E+01  0.42673264324E+02  0.41800000000E+01 0. -1.
         -5    1    3    3    0  502  0.10009962565E+02 -0.91795663585E+02 -0.30917874215E+02  0.97468100164E+02  0.41800000000E+01 0. -1.
        -11    1    4    4    0    0 -0.23844266741E+02  0.12203934139E+02 -0.68088112933E+02  0.73167453063E+02  0.00000000000E+00 0. -1.
         11    1    4    4    0    0  0.16202982124E+01  0.38935728196E+02 -0.81543962069E+01  0.39813445894E+02  0.00000000000E+00 0.  1.
</event>
<event>
 8    1  0.6840084E-009  0.1022094E+03  0.7561462E-02  0.1275717E+00
          1   -1    0    0  501    0  0.00000000000E+00  0.00000000000E+00  0.65637114745E+03  0.65637114745E+03  0.00000000000E+00 0. -1.
         -1   -1    0    0    0  501 -0.00000000000E+00 -0.00000000000E+00 -0.19784352519E+02  0.19784352519E+02  0.00000000000E+00 0.  1.
         25    2    1    2    0    0  0.12268678236E+02 -0.57741177802E+01  0.44805542497E+03  0.46538848631E+03  0.12509563718E+03 0.  0.
         23    2    1    2    0    0 -0.12268678236E+02  0.57741177802E+01  0.18853136996E+03  0.21076701365E+03  0.93245888305E+02 0.  0.
          5    1    3    3  502    0 -0.53130979480E+02 -0.12046234358E+02  0.13804510560E+03  0.14846526976E+03  0.41800000000E+01 0.  1.
         -5    1    3    3    0  502  0.65399657716E+02  0.62721165780E+01  0.31001031937E+03  0.31692321656E+03  0.41800000000E+01 0.  1.
        -11    1    4    4    0    0  0.28091459970E+02 -0.21380128653E+02  0.34991518060E+02  0.49705596874E+02  0.00000000000E+00 0.  1.
         11    1    4    4    0    0 -0.40360138206E+02  0.27154246433E+02  0.15353985190E+03  0.16106141678E+03  0.00000000000E+00 0. -1.
</event>
<event>
 7    1  0.6840084E-009  0.1381805E+03  0.7561462E-02  0.1215798E+00
          2   -1    0    0  501    0  0.00000000000E+00  0.00000000000E+00  0.51510220581E+02  0.51510220581E+02  0.00000000000E+00 0. -1.
         -2   -1    0    0    0  501 -0.00000000000E+00 -0.00000000000E+00 -0.44957082382E+03  0.44957082382E+03  0.00000000000E+00 0.  1.
         23    2    1    2    0    0  0.98951854231E+02 -0.12808819153E+02 -0.12053203076E+03  0.18070008358E+03  0.90382600453E+02 0.  0.
          5    1    1    2  502    0 -0.10796620831E+03 -0.19557479264E+02 -0.13566262983E+03  0.17453085305E+03  0.41800000000E+01 0.  1.
         -5    1    1    2    0  502  0.90143540818E+01  0.32366298417E+02 -0.14186594264E+03  0.14585010777E+03  0.41800000000E+01 0.  1.
        -11    1    3    3    0    0  0.38135652168E+02  0.37715561615E+02 -0.34089803371E+02  0.63552389790E+02  0.00000000000E+00 0. -1.
         11    1    3    3    0    0  0.60816202063E+02 -0.50524380768E+02 -0.86442227386E+02  0.11714769379E+03  0.00000000000E+00 0.  1.
</event>
<event>
 8    1  0.6840084E-009  0.2900537E+03  0.7561462E-02  0.1090321E+00
         -2   -1    0    0    0  501 -0.00000000000E+00  0.00000000000E+00  0.10104819257E+03  0.10104819257E+03  0.00000000000E+00 0.  1.
          2   -1    0    0  501    0  0.00000000000E+00 -0.00000000000E+00 -0.83939185177E+03  0.83939185177E+03  0.00000000000E+00 0. -1.
         25    2    1    2    0    0  0.11366058740E+03  0.24508440034E+03 -0.36488654900E+03  0.47092936798E+03  0.12508870280E+03 0.  0.
         23    2    1    2    0    0 -0.11366058740E+03 -0.24508440034E+03 -0.37345711021E+03  0.46951067636E+03  0.89358657325E+02 0.  0.
          5    1    3    3  502    0  0.94320805704E+02  0.60754926895E+02 -0.13341345732E+03  0.17436799742E+03  0.41800000000E+01 0. -1.
         -5    1    3    3    0  502  0.19339781694E+02  0.18432947344E+03 -0.23147309168E+03  0.29656137056E+03  0.41800000000E+01 0. -1.
        -11    1    4    4    0    0 -0.30299555565E+02 -0.16179280052E+03 -0.18907047875E+03  0.25068430207E+03  0.00000000000E+00 0. -1.
         11    1    4    4    0    0 -0.83361031833E+02 -0.83291599819E+02 -0.18438663145E+03  0.21882637430E+03  0.00000000000E+00 0.  1.
</event>
<event>
 8    1  0.6840084E-009  0.1199305E+03  0.7561462E-02  0.1243212E+00
          2   -1    0    0  501    0  0.00000000000E+00  0.00000000000E+00  0.81150291205E+03  0.81150291205E+03  0.00000000000E+00 0. -1.
         -2   -1    0    0    0  501 -0.00000000000E+00 -0.00000000000E+00 -0.19434879923E+02  0.19434879923E+02  0.00000000000E+00 0.  1.
         25    2    1    2    0    0  0.14894537294E+02  0.55077912637E+02  0.39522984684E+03  0.41845815583E+03  0.12508066456E+03 0.  0.
         23    2    1    2    0    0 -0.14894537294E+02 -0.55077912637E+02  0.39683818529E+03  0.41247963614E+03  0.96971548553E+02 0.  0.
          5    1    3    3  502    0 -0.37697014870E+02 -0.19960276983E+02  0.88949626273E+02  0.98736953576E+02  0.41800000000E+01 0.  1.
         -5    1    3    3    0  502  0.52591552164E+02  0.75038189620E+02  0.30628022056E+03  0.31972120225E+03  0.41800000000E+01 0.  1.
        -11    1    4    4    0    0 -0.44545559416E+02 -0.21401924089E+01  0.99852818776E+02  0.10935937411E+03  0.00000000000E+00 0.  1.
         11    1    4    4    0    0  0.29651022122E+02 -0.52937720228E+02  0.29698536651E+03  0.30312026204E+03  0.00000000000E+00 0. -1.
</event>
<event>
 8    1  0.6840084E-009  0.1089618E+03  0.7561462E-02  0.1262505E+00
          1   -1    0    0  501    0  0.00000000000E+00  0.00000000000E+00  0.67954476172E+02  0.67954476172E+02  0.00000000000E+00 0. -1.
         -1   -1    0    0    0  501 -0.00000000000E+00 -0.00000000000E+00 -0.21289427519E+03  0.21289427519E+03  0.00000000000E+00 0.  1.
         25    2    1    2    0    0 -0.11226817794E+02  0.67979190449E+02 -0.11370079342E+03  0.18255204811E+03  0.12510063178E+03 0.  0.
         23    2    1    2    0    0  0.11226817794E+02 -0.67979190449E+02 -0.31239005593E+02  0.98296703252E+02  0.62762684995E+02 0.  0.
          5    1    3    3  502    0 -0.67897433623E+02  0.35407998162E+02 -0.69840699694E+02  0.10372552029E+03  0.41800000000E+01 0. -1.
         -5    1    3    3    0  502  0.56670615829E+02  0.32571192287E+02 -0.43860093730E+02  0.78826527816E+02  0.41800000000E+01 0. -1.
        -11    1    4    4    0    0  0.20949249415E+02 -0.30392265864E+02  0.13277999251E+02  0.39228384360E+02  0.00000000000E+00 0. -1.
         11    1    4    4    0    0 -0.97224316207E+01 -0.37586924585E+02 -0.44517004844E+02  0.59068318891E+02  0.00000000000E+00 0.  1.
</event>
<event>
 8    1  0.6840084E-009  0.1089434E+03  0.7561462E-02  0.1262539E+00
          1   -1    0    0  501    0  0.00000000000E+00  0.00000000000E+00  0.10897594288E+04  0.10897594288E+04  0.00000000000E+00 0. -1.
         -1   -1    0    0    0  501 -0.00000000000E+00 -0.00000000000E+00 -0.11983737175E+02  0.11983737175E+02  0.00000000000E+00 0.  1.
         25    2    1    2    0    0 -0.54172423451E+01 -0.26784475261E+02  0.66338980562E+03  0.67563340071E+03  0.12509078033E+03 0.  0.
         23    2    1    2    0    0  0.54172423451E+01  0.26784475261E+02  0.41438588601E+03  0.42610976527E+03  0.95431205091E+02 0.  0.
          5    1    3    3  502    0 -0.17178759129E+02  0.43654357409E+02  0.14828938031E+03  0.15558928433E+03  0.41800000000E+01 0. -1.
         -5    1    3    3    0  502  0.11761516784E+02 -0.70438832670E+02  0.51510042531E+03  0.52004411638E+03  0.41800000000E+01 0. -1.
        -11    1    4    4    0    0 -0.37637202947E+01  0.62379017323E+02  0.25735568123E+03  0.26483438986E+03  0.00000000000E+00 0. -1.
         11    1    4    4    0    0  0.91809626398E+01 -0.35594542063E+02  0.15703020478E+03  0.16127537541E+03  0.00000000000E+00 0.  1.
</event>
<event>
 8    1  0.6840084E-009  0.8246645E+02  0.7561462E-02  0.1322194E+00
          1   -1    0    0  501    0  0.00000000000E+00  0.00000000000E+00  0.16907021541E+02  0.16907021541E+02  0.00000000000E+00 0. -1.
         -1   -1    0    0    0  501 -0.00000000000E+00 -0.00000000000E+00 -0.98110224444E+03  0.98110224444E+03  0.00000000000E+00 0.  1.
         25    2    1    2    0    0  0.30671864778E+02 -0.89871155042E+01 -0.75996115978E+03  0.77084995076E+03  0.12508857135E+03 0.  0.
         23    2    1    2    0    0 -0.30671864778E+02  0.89871155042E+01 -0.20423406312E+03  0.22715931522E+03  0.94171494725E+02 0.  0.
          5    1    3    3  502    0 -0.25081514367E+02 -0.40499638241E+02 -0.52840005048E+03  0.53055950544E+03  0.41800000000E+01 0.  1.
         -5    1    3    3    0  502  0.55753379145E+02  0.31512522737E+02 -0.23156110929E+03  0.24029044532E+03  0.41800000000E+01 0.  1.
        -11    1    4    4    0    0 -0.40124699009E+02  0.34571197048E+00 -0.20950252089E+03  0.21331061213E+03  0.00000000000E+00 0.  1.
         11    1    4    4    0    0  0.94528342316E+01  0.86414035337E+01  0.52684577699E+01  0.13848703091E+02  0.00000000000E+00 0. -1.
</event>
<event>
 8    1  0.6840084E-009  0.9244005E+02  0.7561462E-02  0.1297048E+00
          1   -1    0    0  501    0  0.00000000000E+00  0.00000000000E+00  0.12084738591E+03  0.12084738591E+03  0.00000000000E+00 0.  1.
         -1   -1    0    0    0  501 -0.00000000000E+00 -0.00000000000E+00 -0.13126559056E+03  0.13126559056E+03  0.00000000000E+00 0. -1.
         25    2    1    2    0    0  0.21157348023E+02 -0.32587366038E+02  0.43140411444E+02  0.13791151847E+03  0.12509565151E+03 0.  0.
         23    2    1    2    0    0 -0.21157348023E+02  0.32587366038E+02 -0.53558616087E+02  0.11420145800E+03  0.93079954078E+02 0.  0.
          5    1    3    3  502    0 -0.30733088747E+02 -0.74339962404E+01 -0.30605273881E+02  0.44203418797E+02  0.41800000000E+01 0. -1.
         -5    1    3    3    0  502  0.51890436770E+02 -0.25153369798E+02  0.73745685325E+02  0.93708099674E+02  0.41800000000E+01 0. -1.
        -11    1    4    4    0    0 -0.50273586461E+02 -0.15545225139E+01 -0.92510505490E+01  0.51141294197E+02  0.00000000000E+00 0. -1.
         11    1    4    4    0    0  0.29116238438E+02  0.34141888552E+02 -0.44307565538E+02  0.63060163801E+02  0.00000000000E+00 0.  1.
</event>
<event>
 8    1  0.6840084E-009  0.1161613E+03  0.7561462E-02  0.1249568E+00
          2   -1    0    0  501    0  0.00000000000E+00  0.00000000000E+00  0.67976531452E+03  0.67976531452E+03  0.00000000000E+00 0.  1.
         -2   -1    0    0    0  501 -0.00000000000E+00 -0.00000000000E+00 -0.21747086254E+02  0.21747086254E+02  0.00000000000E+00 0. -1.
         25    2    1    2    0    0  0.44458122360E+01 -0.53450276139E+02  0.32421272499E+03  0.35162902545E+03  0.12510948496E+03 0.  0.
         23    2    1    2    0    0 -0.44458122360E+01  0.53450276139E+02  0.33380550327E+03  0.34988337532E+03  0.90086430971E+02 0.  0.
          5    1    3    3  502    0 -0.53818523668E+02 -0.43306779491E+02  0.23112879189E+03  0.24126728224E+03  0.41800000000E+01 0. -1.
         -5    1    3    3    0  502  0.58264335904E+02 -0.10143496649E+02  0.93083933100E+02  0.11036174321E+03  0.41800000000E+01 0. -1.
        -11    1    4    4    0    0  0.36098871794E+02 -0.79275618662E+00  0.14021810745E+03  0.14479252282E+03  0.00000000000E+00 0.  1.
         11    1    4    4    0    0 -0.40544684030E+02  0.54243032326E+02  0.19358739582E+03  0.20509085250E+03  0.00000000000E+00 0. -1.
</event>
<event>
 8    1  0.6840084E-009  0.8656559E+02  0.7561462E-02  0.1311388E+00
         -2   -1    0    0    0  501 -0.00000000000E+00  0.00000000000E+00  0.10875129362E+03  0.10875129362E+03  0.00000000000E+00 0.  1.
          2   -1    0    0  501    0  0.00000000000E+00 -0.00000000000E+00 -0.10886732612E+03  0.10886732612E+03  0.00000000000E+00 0. -1.
         25    2    1    2    0    0  0.24571600964E+02  0.22945419326E+02  0.11858206711E+02  0.13007075220E+03  0.12509007822E+03 0.  0.
         23    2    1    2    0    0 -0.24571600964E+02 -0.22945419326E+02 -0.11974239207E+02  0.87547867538E+02  0.79943673069E+02 0.  0.
          5    1    3    3  502    0 -0.46481185823E+02  0.79411554224E+01 -0.19060058260E+02  0.51032546535E+02  0.41800000000E+01 0.  1.
         -5    1    3    3    0  502  0.71052786787E+02  0.15004263904E+02  0.30918264971E+02  0.79038205662E+02  0.41800000000E+01 0.  1.
        -11    1    4    4    0    0 -0.35869372646E+02 -0.13500285895E+02  0.26337805553E+02  0.46503221551E+02  0.00000000000E+00 0.  1.
         11    1    4    4    0    0  0.11297771683E+02 -0.94451334316E+01 -0.38312044759E+02  0.41044645987E+02  0.00000000000E+00 0. -1.
</event>
<event>
 8    1  0.6840084E-009  0.2655488E+03  0.7561462E-02  0.1103855E+00
          2   -1    0    0  501    0  0.00000000000E+00  0.00000000000E+00  0.79461914824E+03  0.79461914824E+03  0.00000000000E+00 0. -1.
         -2   -1    0    0    0  501 -0.00000000000E+00 -0.00000000000E+00 -0.10836542430E+03  0.10836542430E+03  0.00000000000E+00 0.  1.
         25    2    1    2    0    0  0.37990398510E+01 -0.24899845966E+03  0.50088283696E+03  0.57318922263E+03  0.12509037917E+03 0.  0.
         23    2    1    2    0    0 -0.37990398510E+01  0.24899845966E+03  0.18537088698E+03  0.32979534992E+03  0.11130112968E+03 0.  0.
          5    1    3    3  502    0  0.36104471748E+02 -0.13380392052E+03  0.37339242235E+03  0.39830440055E+03  0.41800000000E+01 0.  1.
         -5    1    3    3    0  502 -0.32305431897E+02 -0.11519453914E+03  0.12749041461E+03  0.17488482208E+03  0.41800000000E+01 0.  1.
        -11    1    4    4    0    0 -0.46624794110E+02  0.20898716443E+03  0.14769249307E+03  0.26012031606E+03  0.00000000000E+00 0.  1.
         11    1    4    4    0    0  0.42825754259E+02  0.40011295234E+02  0.37678393918E+02  0.69675033853E+02  0.00000000000E+00 0. -1.
</event>
<event>
 8    1  0.6840084E-009  0.1048215E+03  0.7561462E-02  0.1270472E+00
         -4   -1    0    0    0  501 -0.00000000000E+00  0.00000000000E+00  0.26851599280E+03  0.26851599280E+03  0.00000000000E+00 0.  1.
          4   -1    0    0  501    0  0.00000000000E+00 -0.00000000000E+00 -0.47103094465E+02  0.47103094465E+02  0.00000000000E+00 0. -1.
         25    2    1    2    0    0  0.63908553495E+02  0.19589045286E+01  0.14925096171E+03  0.20496499703E+03  0.12508660967E+03 0.  0.
         23    2    1    2    0    0 -0.63908553495E+02 -0.19589045286E+01  0.72161936632E+02  0.11065409024E+03  0.54303241820E+02 0.  0.
          5    1    3    3  502    0 -0.24863613613E+02  0.34083756902E+02  0.26285716006E+02  0.49882993418E+02  0.41800000000E+01 0.  1.
         -5    1    3    3    0  502  0.88772167108E+02 -0.32124852373E+02  0.12296524570E+03  0.15508200361E+03  0.41800000000E+01 0.  1.
        -11    1    4    4    0    0 -0.94908249743E+01  0.13201362530E+02 -0.30987136906E+01  0.16551548504E+02  0.00000000000E+00 0. -1.
         11    1    4    4    0    0 -0.54417728520E+02 -0.15160267059E+02  0.75260650323E+02  0.94102541739E+02  0.00000000000E+00 0.  1.
</event>
<event>
 8    1  0.6840084E-009  0.5713436E+02  0.7561462E-02  0.1410267E+00
          1   -1    0    0  501    0  0.00000000000E+00  0.00000000000E+00  0.57612937229E+03  0.57612937229E+03  0.00000000000E+00 0. -1.
         -1   -1    0    0    0  501 -0.00000000000E+00 -0.00000000000E+00 -0.23197866912E+02  0.23197866912E+02  0.00000000000E+00 0.  1.
         25    2    1    2    0    0  0.29815646784E+02  0.26626658948E+02  0.30762528167E+03  0.33448274629E+03  0.12508973531E+03 0.  0.
         23    2    1    2    0    0 -0.29815646784E+02 -0.26626658948E+02  0.24530622371E+03  0.26484449291E+03  0.91485027619E+02 0.  0.
          5    1    3    3  502    0  0.45329163749E+01  0.68705938069E+01 -0.10919400371E+02  0.14298884382E+02  0.41800000000E+01 0. -1.
         -5    1    3    3    0  502  0.25282730409E+02  0.19756065141E+02  0.31854468204E+03  0.32018386191E+03  0.41800000000E+01 0. -1.
        -11    1    4    4    0    0 -0.33741956632E+02  0.10506291413E+02  0.30094431074E+02  0.46417416755E+02  0.00000000000E+00 0.  1.
         11    1    4    4    0    0  0.39263098477E+01 -0.37132950360E+02  0.21521179263E+03  0.21842707616E+03  0.00000000000E+00 0. -1.
</event>
<event>
 8    1  0.6840084E-009  0.1720943E+03  0.7561462E-02  0.1175681E+00
          1   -1    0    0  501    0  0.00000000000E+00  0.00000000000E+00  0.12074344677E+03  0.12074344677E+03  0.00000000000E+00 0. -1.
         -1   -1    0    0    0  501 -0.00000000000E+00 -0.00000000000E+00 -0.33230979969E+03  0.33230979969E+03  0.00000000000E+00 0.  1.
         25    2    1    2    0    0  0.13391126071E+03  0.83954829045E+02 -0.44746125129E+02  0.20646828385E+03  0.12508516082E+03 0.  0.
         23    2    1    2    0    0 -0.13391126071E+03 -0.83954829045E+02 -0.16682022779E+03  0.24658496260E+03  0.89412059128E+02 0.  0.
          5    1    3    3  502    0  0.12119282130E+03  0.10548226269E+03 -0.68418962481E+01  0.16086793223E+03  0.41800000000E+01 0. -1.
         -5    1    3    3    0  502  0.12718439412E+02 -0.21527433646E+02 -0.37904228881E+02  0.45600351616E+02  0.41800000000E+01 0. -1.
        -11    1    4    4    0    0 -0.90823554442E+02 -0.54467123223E+02 -0.16280484573E+03  0.19421895723E+03  0.00000000000E+00 0.  1.
         11    1    4    4    0    0 -0.43087706269E+02 -0.29487705822E+02 -0.40153820623E+01  0.52366005378E+02  0.00000000000E+00 0. -1.
</event>
<event>
 8    1  0.6840084E-009  0.9316258E+02  0.7561462E-02  0.1295369E+00
         -4   -1    0    0    0  501 -0.00000000000E+00  0.00000000000E+00  0.33367627500E+02  0.33367627500E+02  0.00000000000E+00 0. -1.
          4   -1    0    0  501    0  0.00000000000E+00 -0.00000000000E+00 -0.56106286652E+03  0.56106286652E+03  0.00000000000E+00 0.  1.
         25    2    1    2    0    0 -0.26028381564E+02  0.36545140742E+02 -0.42947246069E+03  0.44956234258E+03  0.12508669561E+03 0.  0.
         23    2    1    2    0    0  0.26028381564E+02 -0.36545140742E+02 -0.98222778331E+02  0.14486815144E+03  0.96571440703E+02 0.  0.
          5    1    3    3  502    0  0.18249213223E+02 -0.54720833982E+01 -0.42526629157E+01  0.19963341951E+02  0.41800000000E+01 0. -1.
         -5    1    3    3    0  502 -0.44277594788E+02  0.42017224140E+02 -0.42521979777E+03  0.42959900063E+03  0.41800000000E+01 0. -1.
        -11    1    4    4    0    0 -0.35796116877E+02 -0.47335006271E+01 -0.25155252433E+02  0.44006303373E+02  0.00000000000E+00 0.  1.
         11    1    4    4    0    0  0.61824498441E+02 -0.31811640115E+02 -0.73067525898E+02  0.10086184807E+03  0.00000000000E+00 0. -1.
</event>
<event>
 8    1  0.6840084E-009  0.1137848E+03  0.7561462E-02  0.1253717E+00
          2   -1    0    0  501    0  0.00000000000E+00  0.00000000000E+00  0.92150010830E+02  0.92150010830E+02  0.00000000000E+00 0. -1.
         -2   -1    0    0    0  501 -0.00000000000E+00 -0.00000000000E+00 -0.21153977247E+03  0.21153977247E+03  0.00000000000E+00 0.  1.
         25    2    1    2    0    0  0.39588419528E+02  0.24106955964E+02  0.16392075076E+02  0.13440529310E+03  0.12509074467E+03 0.  0.
         23    2    1    2    0    0 -0.39588419528E+02 -0.24106955964E+02 -0.13578183671E+03  0.16928449020E+03  0.89845106451E+02 0.  0.
          5    1    3    3  502    0  0.43317158859E+02 -0.45082417604E+02 -0.16553172396E+01  0.62681840303E+02  0.41800000000E+01 0. -1.
         -5    1    3    3    0  502 -0.37287393310E+01  0.69189373568E+02  0.18047392316E+02  0.71723452797E+02  0.41800000000E+01 0. -1.
        -11    1    4    4    0    0  0.11856990107E+02 -0.39943421964E+02 -0.87761226428E+02  0.97149874095E+02  0.00000000000E+00 0.  1.
         11    1    4    4    0    0 -0.51445409634E+02  0.15836466000E+02 -0.48020610285E+02  0.72134616100E+02  0.00000000000E+00 0. -1.
</event>
<event>
 8    1  0.6840084E-009  0.1257647E+03  0.7561462E-02  0.1233879E+00
          2   -1    0    0  501    0  0.00000000000E+00  0.00000000000E+00  0.62080479892E+03  0.62080479892E+03  0.00000000000E+00 0. -1.
         -2   -1    0    0    0  501 -0.00000000000E+00 -0.00000000000E+00 -0.41434102616E+02  0.41434102616E+02  0.00000000000E+00 0.  1.
         25    2    1    2    0    0 -0.32138971569E+02  0.78806789391E+02  0.47945776707E+03  0.50276403947E+03  0.12509398639E+03 0.  0.
         23    2    1    2    0    0  0.32138971569E+02 -0.78806789391E+02  0.99912929233E+02  0.15947486207E+03  0.90588159579E+02 0.  0.
          5    1    3    3  502    0 -0.67123113367E+02  0.26040979295E+01  0.21935429960E+03  0.22944732474E+03  0.41800000000E+01 0.  1.
         -5    1    3    3    0  502  0.34984141798E+02  0.76202691461E+02  0.26010346747E+03  0.27331671473E+03  0.41800000000E+01 0.  1.
        -11    1    4    4    0    0  0.29846506487E+02 -0.10073492958E+02 -0.70795582995E+01  0.32286364855E+02  0.00000000000E+00 0.  1.
         11    1    4    4    0    0  0.22924650819E+01 -0.68733296432E+02  0.10699248753E+03  0.12718849721E+03  0.00000000000E+00 0. -1.
</event>
<event>
 8    1  0.6840084E-009  0.1115023E+03  0.7561462E-02  0.1257813E+00
         -1   -1    0    0    0  501 -0.00000000000E+00  0.00000000000E+00  0.24274248858E+03  0.24274248858E+03  0.00000000000E+00 0.  1.
          1   -1    0    0  501    0  0.00000000000E+00 -0.00000000000E+00 -0.68763092335E+02  0.68763092335E+02  0.00000000000E+00 0. -1.
         25    2    1    2    0    0  0.48873201344E+02 -0.23835450242E+02  0.16267038451E+03  0.21228530428E+03  0.12508668163E+03 0.  0.
         23    2    1    2    0    0 -0.48873201344E+02  0.23835450242E+02  0.11309011743E+02  0.99220276634E+02  0.82219529620E+02 0.  0.
          5    1    3    3  502    0  0.83928745813E+02 -0.41091681930E+01  0.14607532483E+03  0.16857162442E+03  0.41800000000E+01 0.  1.
         -5    1    3    3    0  502 -0.35055544469E+02 -0.19726282049E+02  0.16595059680E+02  0.43713679864E+02  0.41800000000E+01 0.  1.
        -11    1    4    4    0    0 -0.59293231325E+02  0.45268496560E+02  0.10856182417E+02  0.75384220885E+02  0.00000000000E+00 0.  1.
         11    1    4    4    0    0  0.10420029981E+02 -0.21433046318E+02  0.45282932532E+00  0.23836055749E+02  0.00000000000E+00 0. -1.
</event>
<event>
 8    1  0.6840084E-009  0.1001056E+03  0.7561462E-02  0.1280074E+00
          1   -1    0    0  501    0  0.00000000000E+00  0.00000000000E+00  0.96823691684E+02  0.96823691684E+02  0.00000000000E+00 0. -1.
         -1   -1    0    0    0  501 -0.00000000000E+00 -0.00000000000E+00 -0.16379381360E+03  0.16379381360E+03  0.00000000000E+00 0.  1.
         25    2    1    2    0    0 -0.57381361174E+02 -0.15925725607E+00  0.90266261341E+01  0.13791795640E+03  0.12508891535E+03 0.  0.
         23    2    1    2    0    0  0.57381361174E+02  0.15925725607E+00 -0.75996748047E+02  0.12269954888E+03  0.77375885194E+02 0.  0.
          5    1    3    3  502    0 -0.36206688298E+02  0.44059842689E+02 -0.38956295489E+02  0.69190023656E+02  0.41800000000E+01 0. -1.
         -5    1    3    3    0  502 -0.21174672876E+02 -0.44219099945E+02  0.47982921623E+02  0.68727932741E+02  0.41800000000E+01 0. -1.
        -11    1    4    4    0    0 -0.17097463653E+02 -0.80445683365E+01 -0.51613240781E+01  0.19587690250E+02  0.00000000000E+00 0. -1.
         11    1    4    4    0    0  0.74478824828E+02  0.82038255926E+01 -0.70835423969E+02  0.10311185863E+03  0.00000000000E+00 0.  1.
</event>
<event>
 8    1  0.6840084E-009  0.1690218E+03  0.7561462E-02  0.1178872E+00
         -1   -1    0    0    0  501 -0.00000000000E+00  0.00000000000E+00  0.22166145251E+03  0.22166145251E+03  0.00000000000E+00 0.  1.
          1   -1    0    0  501    0  0.00000000000E+00 -0.00000000000E+00 -0.16853817342E+03  0.16853817342E+03  0.00000000000E+00 0. -1.
         25    2    1    2    0    0  0.11972461442E+03  0.99949315189E+02 -0.64301927054E+01  0.20003109665E+03  0.12508894173E+03 0.  0.
         23    2    1    2    0    0 -0.11972461442E+03 -0.99949315189E+02  0.59553471798E+02  0.19016852928E+03  0.91069229823E+02 0.  0.
          5    1    3    3  502    0  0.42059973589E+02  0.19074431756E+02 -0.59887711317E+02  0.75742231892E+02  0.41800000000E+01 0.  1.
         -5    1    3    3    0  502  0.77664640833E+02  0.80874883433E+02  0.53457518612E+02  0.12428886476E+03  0.41800000000E+01 0.  1.
        -11    1    4    4    0    0  0.51108139679E+01 -0.41168229402E+02  0.22969521444E+02  0.47418798454E+02  0.00000000000E+00 0.  1.
         11    1    4    4    0    0 -0.12483542839E+03 -0.58781085788E+02  0.36583950355E+02  0.14274973083E+03  0.00000000000E+00 0. -1.
</event>
<event>
 8    1  0.6840084E-009  0.1118674E+03  0.7561462E-02  0.1257150E+00
          1   -1    0    0  501    0  0.00000000000E+00  0.00000000000E+00  0.50435130787E+02  0.50435130787E+02  0.00000000000E+00 0. -1.
         -1   -1    0    0    0  501 -0.00000000000E+00 -0.00000000000E+00 -0.52681547942E+03  0.52681547942E+03  0.00000000000E+00 0.  1.
         25    2    1    2    0    0  0.71787828539E+02  0.74806979800E+02 -0.36884742818E+03  0.40304641016E+03  0.12509359261E+03 0.  0.
         23    2    1    2    0    0 -0.71787828539E+02 -0.74806979800E+02 -0.10753292045E+03  0.17420420005E+03  0.89633686641E+02 0.  0.
          5    1    3    3  502    0  0.40274961800E+00  0.15371574367E+01 -0.23248567733E+03  0.23252868130E+03  0.41800000000E+01 0.  1.
         -5    1    3    3    0  502  0.71385078921E+02  0.73269822363E+02 -0.13636175085E+03  0.17051772886E+03  0.41800000000E+01 0.  1.
        -11    1    4    4    0    0 -0.17379725749E+02 -0.57067804398E+02 -0.91011911829E+01  0.60345843658E+02  0.00000000000E+00 0. -1.
         11    1    4    4    0    0 -0.54408102790E+02 -0.17739175402E+02 -0.98431729270E+02  0.11385835639E+03  0.00000000000E+00 0.  1.
</event>
<event>
 8    1  0.6840084E-009  0.2039176E+03  0.7561462E-02  0.1146475E+00
          2   -1    0    0  501    0  0.00000000000E+00  0.00000000000E+00  0.86070763737E+02  0.86070763737E+02  0.00000000000E+00 0. -1.
         -2   -1    0    0    0  501 -0.00000000000E+00 -0.00000000000E+00 -0.70866166429E+03  0.70866166429E+03  0.00000000000E+00 0.  1.
         25    2    1    2    0    0 -0.12494767850E+03  0.14178043808E+03 -0.50896916655E+03  0.55714832867E+03  0.12510408730E+03 0.  0.
         23    2    1    2    0    0  0.12494767850E+03 -0.14178043808E+03 -0.11362173401E+03  0.23758409936E+03  0.88445976984E+02 0.  0.
          5    1    3    3  502    0 -0.50057557156E+02  0.10578812526E+03 -0.15927487291E+03  0.19769381380E+03  0.41800000000E+01 0. -1.
         -5    1    3    3    0  502 -0.74890121348E+02  0.35992312815E+02 -0.34969429364E+03  0.35945451487E+03  0.41800000000E+01 0. -1.
        -11    1    4    4    0    0  0.36688040033E+02  0.42171919639E+01 -0.30056923769E+02  0.47615288049E+02  0.00000000000E+00 0.  1.
         11    1    4    4    0    0  0.88259638471E+02 -0.14599763004E+03 -0.83564810239E+02  0.18996881131E+03  0.00000000000E+00 0. -1.
</event>
<event>
 8    1  0.6840084E-009  0.9795950E+02  0.7561462E-02  0.1284646E+00
         -2   -1    0    0    0  501 -0.00000000000E+00  0.00000000000E+00  0.11709180545E+03  0.11709180545E+03  0.00000000000E+00 0. -1.
          2   -1    0    0  501    0  0.00000000000E+00 -0.00000000000E+00 -0.26887810296E+03  0.26887810296E+03  0.00000000000E+00 0.  1.
         25    2    1    2    0    0 -0.22506786381E+02 -0.96322430564E+01  0.70074219715E+02  0.14545615415E+03  0.12509101075E+03 0.  0.
         23    2    1    2    0    0  0.22506786381E+02  0.96322430564E+01 -0.22186051722E+03  0.24051375426E+03  0.89584827667E+02 0.  0.
          5    1    3    3  502    0  0.48726434473E+02 -0.84098900067E+00  0.62348987516E+01  0.49308407411E+02  0.41800000000E+01 0.  1.
         -5    1    3    3    0  502 -0.71233220854E+02 -0.87912540557E+01  0.63839320963E+02  0.96147746735E+02  0.41800000000E+01 0.  1.
        -11    1    4    4    0    0  0.38347052123E+02 -0.18690679704E+02 -0.19108784205E+03  0.19579172938E+03  0.00000000000E+00 0.  1.
         11    1    4    4    0    0 -0.15840265742E+02  0.28322922760E+02 -0.30772675176E+02  0.44722024886E+02  0.00000000000E+00 0. -1.
</event>
<event>
 8    1  0.6840084E-009  0.2416779E+03  0.7561462E-02  0.1118680E+00
         -2   -1    0    0    0  501 -0.00000000000E+00  0.00000000000E+00  0.20930206671E+02  0.20930206671E+02  0.00000000000E+00 0. -1.
          2   -1    0    0  501    0  0.00000000000E+00 -0.00000000000E+00 -0.35376707919E+04  0.35376707919E+04  0.00000000000E+00 0.  1.
         25    2    1    2    0    0 -0.10027240815E+03  0.21276037834E+03 -0.23895514873E+04  0.24043554001E+04  0.12508814857E+03 0.  0.
         23    2    1    2    0    0  0.10027240815E+03 -0.21276037834E+03 -0.11271890979E+04  0.11542455985E+04  0.80038145664E+02 0.  0.
          5    1    3    3  502    0 -0.61593995473E+02  0.10293419777E+03 -0.17617260286E+04  0.17658101092E+04  0.41800000000E+01 0.  1.
         -5    1    3    3    0  502 -0.38678412676E+02  0.10982618056E+03 -0.62782545871E+03  0.63854529092E+03  0.41800000000E+01 0.  1.
        -11    1    4    4    0    0  0.10311370177E+02 -0.10899658915E+03 -0.43513770959E+03  0.44869968477E+03  0.00000000000E+00 0. -1.
         11    1    4    4    0    0  0.89961037972E+02 -0.10376378919E+03 -0.69205138828E+03  0.70554591369E+03  0.00000000000E+00 0.  1.
</event>
<event>
 8    1  0.6840084E-009  0.1379061E+03  0.7561462E-02  0.1216175E+00
          2   -1    0    0  501    0  0.00000000000E+00  0.00000000000E+00  0.10150417638E+03  0.10150417638E+03  0.00000000000E+00 0. -1.
         -2   -1    0    0    0  501 -0.00000000000E+00 -0.00000000000E+00 -0.30018106934E+03  0.30018106934E+03  0.00000000000E+00 0.  1.
         25    2    1    2    0    0  0.10536720038E+03  0.18689354813E+02 -0.85654350842E+01  0.16484026495E+03  0.12508959737E+03 0.  0.
         23    2    1    2    0    0 -0.10536720038E+03 -0.18689354813E+02 -0.19011145788E+03  0.23684498078E+03  0.92204336153E+02 0.  0.
          5    1    3    3  502    0  0.38415957030E+02  0.69120422045E+02 -0.15274195413E+02  0.80648570624E+02  0.41800000000E+01 0.  1.
         -5    1    3    3    0  502  0.66951243346E+02 -0.50431067232E+02  0.67087603284E+01  0.84191694323E+02  0.41800000000E+01 0.  1.
        -11    1    4    4    0    0 -0.31739528689E+02  0.10595582315E+02 -0.13801933313E+03  0.14201760582E+03  0.00000000000E+00 0.  1.
         11    1    4    4    0    0 -0.73627671686E+02 -0.29284937128E+02 -0.52092124751E+02  0.94827374959E+02  0.00000000000E+00 0. -1.
</event>
<event>
 8    1  0.6840084E-009  0.1071533E+03  0.7561462E-02  0.1265934E+00
         -2   -1    0    0    0  501 -0.00000000000E+00  0.00000000000E+00  0.19360160219E+03  0.19360160219E+03  0.00000000000E+00 0.  1.
          2   -1    0    0  501    0  0.00000000000E+00 -0.00000000000E+00 -0.63853391435E+02  0.63853391435E+02  0.00000000000E+00 0. -1.
         25    2    1    2    0    0 -0.17302063047E+02  0.17779980622E+02  0.92660936118E+02  0.15763371202E+03  0.12508736542E+03 0.  0.
         23    2    1    2    0    0  0.17302063047E+02 -0.17779980622E+02  0.37087274634E+02  0.99821281599E+02  0.89293522854E+02 0.  0.
          5    1    3    3  502    0  0.33155404416E+02 -0.38738466371E+02  0.30659109501E+02  0.59643968799E+02  0.41800000000E+01 0.  1.
         -5    1    3    3    0  502 -0.50457467462E+02  0.56518446992E+02  0.62001826617E+02  0.97989743223E+02  0.41800000000E+01 0.  1.
        -11    1    4    4    0    0  0.32019638302E+02  0.25893514796E+02  0.34398569240E+02  0.53656247644E+02  0.00000000000E+00 0.  1.
         11    1    4    4    0    0 -0.14717575255E+02 -0.43673495417E+02  0.26887053940E+01  0.46165033955E+02  0.00000000000E+00 0. -1.
</event>
<event>
 8    1  0.6840084E-009  0.1007364E+03  0.7561462E-02  0.1278755E+00
         -3   -1    0    0    0  501 -0.00000000000E+00  0.00000000000E+00  0.11119711080E+03  0.11119711080E+03  0.00000000000E+00 0.  1.
          3   -1    0    0  501    0  0.00000000000E+00 -0.00000000000E+00 -0.11076178407E+03  0.11076178407E+03  0.00000000000E+00 0. -1.
         25    2    1    2    0    0  0.20324742384E+02 -0.11036495834E+02  0.40333306763E+01  0.12727855166E+03  0.12509461444E+03 0.  0.
         23    2    1    2    0    0 -0.20324742384E+02  0.11036495834E+02 -0.35980039412E+01  0.94680343207E+02  0.91741606506E+02 0.  0.
          5    1    3    3  502    0  0.20020853471E+02  0.45987489864E+02 -0.32048480614E+02  0.59667925281E+02  0.41800000000E+01 0. -1.
         -5    1    3    3    0  502  0.30388891307E+00 -0.57023985697E+02  0.36081811290E+02  0.67610626378E+02  0.41800000000E+01 0. -1.
        -11    1    4    4    0    0  0.31616329219E+02 -0.15971330728E+02  0.39986943875E+01  0.35646391617E+02  0.00000000000E+00 0.  1.
         11    1    4    4    0    0 -0.51941071603E+02  0.27007826562E+02 -0.75966983287E+01  0.59033951590E+02  0.00000000000E+00 0. -1.
</event>
<event>
 8    1  0.6840084E-009  0.1303381E+03  0.7561462E-02  0.1226955E+00
          2   -1    0    0  501    0  0.00000000000E+00  0.00000000000E+00  0.45882613697E+02  0.45882613697E+02  0.00000000000E+00 0. -1.
         -2   -1    0    0    0  501 -0.00000000000E+00 -0.00000000000E+00 -0.51914159782E+03  0.51914159782E+03  0.00000000000E+00 0.  1.
         25    2    1    2    0    0  0.36570467207E+02 -0.99394480000E+02 -0.30546029983E+03  0.34665764306E+03  0.12509542354E+03 0.  0.
         23    2    1    2    0    0 -0.36570467207E+02  0.99394480000E+02 -0.16779868430E+03  0.21836656847E+03  0.91164126964E+02 0.  0.
          5    1    3    3  502    0  0.17328492692E+01  0.24988476220E+02 -0.16972174569E+02  0.30544292756E+02  0.41800000000E+01 0. -1.
         -5    1    3    3    0  502  0.34837617938E+02 -0.12438295622E+03 -0.28848812526E+03  0.31611335030E+03  0.41800000000E+01 0. -1.
        -11    1    4    4    0    0 -0.19716762149E+02  0.45845216198E+02 -0.15209427152E+03  0.16007248979E+03  0.00000000000E+00 0.  1.
         11    1    4    4    0    0 -0.16853705058E+02  0.53549263802E+02 -0.15704412776E+02  0.58294078675E+02  0.00000000000E+00 0. -1.
</event>
<event>
 8    1  0.6840084E-009  0.1083078E+03  0.7561462E-02  0.1263736E+00
          2   -1    0    0  501    0  0.00000000000E+00  0.00000000000E+00  0.45231211478E+03  0.45231211478E+03  0.00000000000E+00 0. -1.
         -2   -1    0    0    0  501 -0.00000000000E+00 -0.00000000000E+00 -0.29794711893E+02  0.29794711893E+02  0.00000000000E+00 0.  1.
         25    2    1    2    0    0 -0.79758360418E+01  0.26693316118E+02  0.30473459484E+03  0.33058604597E+03  0.12509122037E+03 0.  0.
         23    2    1    2    0    0  0.79758360418E+01 -0.26693316118E+02  0.11778280805E+03  0.15152078070E+03  0.91157062404E+02 0.  0.
          5    1    3    3  502    0 -0.65622463756E+02  0.24940019673E+02  0.16870698006E+03  0.18277808910E+03  0.41800000000E+01 0. -1.
         -5    1    3    3    0  502  0.57646627714E+02  0.17532964443E+01  0.13602761477E+03  0.14780795687E+03  0.41800000000E+01 0. -1.
        -11    1    4    4    0    0  0.37630087215E+02  0.12197837258E+02  0.81604513185E+02  0.90686863821E+02  0.00000000000E+00 0. -1.
         11    1    4    4    0    0 -0.29654251173E+02 -0.38891153376E+02  0.36178294863E+02  0.60833916878E+02  0.00000000000E+00 0.  1.
</event>
<event>
 8    1  0.6840084E-009  0.1178987E+03  0.7561462E-02  0.1246604E+00
         -4   -1    0    0    0  501 -0.00000000000E+00  0.00000000000E+00  0.10728567222E+04  0.10728567222E+04  0.00000000000E+00 0.  1.
          4   -1    0    0  501    0  0.00000000000E+00 -0.00000000000E+00 -0.20871247265E+02  0.20871247265E+02  0.00000000000E+00 0. -1.
         25    2    1    2    0    0 -0.15202834619E+02 -0.99124282786E+02  0.62396258692E+03  0.64422874201E+03  0.12507842555E+03 0.  0.
         23    2    1    2    0    0  0.15202834619E+02  0.99124282786E+02  0.42802288806E+03  0.44949922750E+03  0.93750803728E+02 0.  0.
          5    1    3    3  502    0  0.64180796493E+01 -0.70111697292E+02  0.59072195313E+03  0.59491742297E+03  0.41800000000E+01 0.  1.
         -5    1    3    3    0  502 -0.21620914269E+02 -0.29012585494E+02  0.33240633790E+02  0.49311319042E+02  0.41800000000E+01 0.  1.
        -11    1    4    4    0    0 -0.32698447543E+02  0.53450304431E+02  0.13130709378E+03  0.14549115572E+03  0.00000000000E+00 0. -1.
         11    1    4    4    0    0  0.47901282163E+02  0.45673978355E+02  0.29671579428E+03  0.30400807178E+03  0.00000000000E+00 0.  1.
</event>
<event>
 8    1  0.6840084E-009  0.1367583E+03  0.7561462E-02  0.1217759E+00
          2   -1    0    0  501    0  0.00000000000E+00  0.00000000000E+00  0.27336760188E+03  0.27336760188E+03  0.00000000000E+00 0. -1.
         -2   -1    0    0    0  501 -0.00000000000E+00 -0.00000000000E+00 -0.11525029078E+03  0.11525029078E+03  0.00000000000E+00 0.  1.
         25    2    1    2    0    0  0.12790489871E+03 -0.15757835324E+02  0.22544078549E+02  0.18101013274E+03  0.12509380556E+03 0.  0.
         23    2    1    2    0    0 -0.12790489871E+03  0.15757835324E+02  0.13557323255E+03  0.20760775991E+03  0.90071683143E+02 0.  0.
          5    1    3    3  502    0  0.52793969109E+02  0.19396505685E+02  0.66387437944E+02  0.87110228584E+02  0.41800000000E+01 0.  1.
         -5    1    3    3    0  502  0.75110929601E+02 -0.35154341009E+02 -0.43843359395E+02  0.93899904156E+02  0.41800000000E+01 0.  1.
        -11    1    4    4    0    0 -0.10685010319E+03  0.27006238213E+02  0.14483874829E+03  0.18200149576E+03  0.00000000000E+00 0. -1.
         11    1    4    4    0    0 -0.21054795522E+02 -0.11248402889E+02 -0.92655157370E+01  0.25606264153E+02  0.00000000000E+00 0.  1.
</event>
<event>
 8    1  0.6840084E-009  0.1273387E+03  0.7561462E-02  0.1231459E+00
         -2   -1    0    0    0  501 -0.00000000000E+00  0.00000000000E+00  0.62242187518E+02  0.62242187518E+02  0.00000000000E+00 0.  1.
          2   -1    0    0  501    0  0.00000000000E+00 -0.00000000000E+00 -0.32661182459E+03  0.32661182459E+03  0.00000000000E+00 0. -1.
         25    2    1    2    0    0 -0.18512906056E+02 -0.65100153146E+02 -0.22164407080E+03  0.26334828695E+03  0.12508184716E+03 0.  0.
         23    2    1    2    0    0  0.18512906056E+02  0.65100153146E+02 -0.42725566279E+02  0.12550572516E+03  0.96671895627E+02 0.  0.
          5    1    3    3  502    0  0.21144625102E+02  0.30797759166E+02 -0.71566942877E+02  0.80838708878E+02  0.41800000000E+01 0.  1.
         -5    1    3    3    0  502 -0.39657531158E+02 -0.95897912311E+02 -0.15007712792E+03  0.18250957807E+03  0.41800000000E+01 0.  1.
        -11    1    4    4    0    0  0.17138221239E+02 -0.21006340981E+02  0.41986611730E+01  0.27433806595E+02  0.00000000000E+00 0.  1.
         11    1    4    4    0    0  0.13746848171E+01  0.86106494127E+02 -0.46924227452E+02  0.98071918566E+02  0.00000000000E+00 0. -1.
</event>
<event>
 8    1  0.6840084E-009  0.9601709E+02  0.7561462E-02  0.1288902E+00
         -2   -1    0    0    0  501 -0.00000000000E+00  0.00000000000E+00  0.32890171892E+02  0.32890171892E+02  0.00000000000E+00 0. -1.
          2   -1    0    0  501    0  0.00000000000E+00 -0.00000000000E+00 -0.48686932636E+03  0.48686932636E+03  0.00000000000E+00 0.  1.
         25    2    1    2    0    0 -0.46378160626E+02  0.46527826711E+02 -0.24996891087E+03  0.28713190018E+03  0.12507797272E+03 0.  0.
         23    2    1    2    0    0  0.46378160626E+02 -0.46527826711E+02 -0.20401024360E+03  0.23262759807E+03  0.90441403396E+02 0.  0.
          5    1    3    3  502    0 -0.29309136857E+02 -0.25444422705E+02 -0.16841310698E+02  0.42515247808E+02  0.41800000000E+01 0.  1.
         -5    1    3    3    0  502 -0.17069023769E+02  0.71972249416E+02 -0.23312760017E+03  0.24461665237E+03  0.41800000000E+01 0.  1.
        -11    1    4    4    0    0  0.33573065459E+02 -0.31947700668E+01 -0.17657196528E+03  0.17976377890E+03  0.00000000000E+00 0.  1.
         11    1    4    4    0    0  0.12805095167E+02 -0.43333056644E+02 -0.27438278319E+02  0.52863819172E+02  0.00000000000E+00 0. -1.
</event>
<event>
 8    1  0.6840084E-009  0.9686419E+02  0.7561462E-02  0.1287032E+00
         -1   -1    0    0    0  501 -0.00000000000E+00  0.00000000000E+00  0.18035251397E+02  0.18035251397E+02  0.00000000000E+00 0.  1.
          1   -1    0    0  501    0  0.00000000000E+00 -0.00000000000E+00 -0.95110724141E+03  0.95110724141E+03  0.00000000000E+00 0. -1.
         25    2    1    2    0    0 -0.82119857277E+01  0.56021698402E+02 -0.34383580045E+03  0.37023959306E+03  0.12509368968E+03 0.  0.
         23    2    1    2    0    0  0.82119857277E+01 -0.56021698402E+02 -0.58923618956E+03  0.59890289974E+03  0.90991916305E+02 0.  0.
          5    1    3    3  502    0  0.27915681575E+02  0.15860178967E+02 -0.12827066776E+02  0.34825803605E+02  0.41800000000E+01 0. -1.
         -5    1    3    3    0  502 -0.36127667303E+02  0.40161519435E+02 -0.33100873367E+03  0.33541378945E+03  0.41800000000E+01 0. -1.
        -11    1    4    4    0    0  0.49551309373E+02 -0.35924853945E+02 -0.33742098039E+03  0.34292688054E+03  0.00000000000E+00 0.  1.
         11    1    4    4    0    0 -0.41339323645E+02 -0.20096844458E+02 -0.25181520917E+03  0.25597601920E+03  0.00000000000E+00 0. -1.
</event>
<event>
 8    1  0.6840084E-009  0.1065546E+03  0.7561462E-02  0.1267087E+00
         -2   -1    0    0    0  501 -0.00000000000E+00  0.00000000000E+00  0.13841667880E+02  0.13841667880E+02  0.00000000000E+00 0.  1.
          2   -1    0    0  501    0  0.00000000000E+00 -0.00000000000E+00 -0.95535685706E+03  0.95535685706E+03  0.00000000000E+00 0. -1.
         25    2    1    2    0    0  0.39832262978E+02  0.76052816155E+01 -0.54922009524E+03  0.56474267283E+03  0.12508846474E+03 0.  0.
         23    2    1    2    0    0 -0.39832262978E+02 -0.76052816155E+01 -0.39229509394E+03  0.40445585211E+03  0.89691951137E+02 0.  0.
          5    1    3    3  502    0 -0.36073601766E+02  0.22682762401E+02 -0.31823157264E+03  0.32109907922E+03  0.41800000000E+01 0.  1.
         -5    1    3    3    0  502  0.75905864744E+02 -0.15077480786E+02 -0.23098852260E+03  0.24364359360E+03  0.41800000000E+01 0.  1.
        -11    1    4    4    0    0 -0.83445562355E+01 -0.43931519402E+02 -0.12239606768E+03  0.13030889225E+03  0.00000000000E+00 0.  1.
         11    1    4    4    0    0 -0.31487706743E+02  0.36326237787E+02 -0.26989902626E+03  0.27414695987E+03  0.00000000000E+00 0. -1.
</event>
<event>
 8    1  0.6840084E-009  0.1852613E+03  0.7561462E-02  0.1162806E+00
         -2   -1    0    0    0  501 -0.00000000000E+00  0.00000000000E+00  0.75179483457E+02  0.75179483457E+02  0.00000000000E+00 0.  1.
          2   -1    0    0  501    0  0.00000000000E+00 -0.00000000000E+00 -0.68777361990E+03  0.68777361990E+03  0.00000000000E+00 0. -1.
         25    2    1    2    0    0  0.79253311633E+02 -0.14617248130E+03 -0.50280135034E+03  0.54415519493E+03  0.12509275188E+03 0.  0.
         23    2    1    2    0    0 -0.79253311633E+02  0.14617248130E+03 -0.10979278611E+03  0.21879790843E+03  0.90391300224E+02 0.  0.
          5    1    3    3  502    0  0.10159302771E+03 -0.12414701509E+03 -0.31305635564E+03  0.35178882706E+03  0.41800000000E+01 0. -1.
         -5    1    3    3    0  502 -0.22339716077E+02 -0.22025466211E+02 -0.18974499470E+03  0.19236636787E+03  0.41800000000E+01 0. -1.
        -11    1    4    4    0    0 -0.69949126091E+02  0.61261592076E+02 -0.93451726559E+02  0.13182976941E+03  0.00000000000E+00 0. -1.
         11    1    4    4    0    0 -0.93041855423E+01  0.84910889227E+02 -0.16341059548E+02  0.86968139022E+02  0.00000000000E+00 0.  1.
</event>
<event>
 8    1  0.6840084E-009  0.1007732E+03  0.7561462E-02  0.1278678E+00
         -3   -1    0    0    0  501 -0.00000000000E+00  0.00000000000E+00  0.98889268649E+03  0.98889268649E+03  0.00000000000E+00 0.  1.
          3   -1    0    0  501    0  0.00000000000E+00 -0.00000000000E+00 -0.12348206471E+02  0.12348206471E+02  0.00000000000E+00 0. -1.
         25    2    1    2    0    0  0.11173190270E+02  0.13794074676E+02  0.64962207990E+03  0.66179438949E+03  0.12509136897E+03 0.  0.
         23    2    1    2    0    0 -0.11173190270E+02 -0.13794074676E+02  0.32692240013E+03  0.33944650348E+03  0.89613371445E+02 0.  0.
          5    1    3    3  502    0  0.46619727819E+02 -0.36114225992E+02  0.41897605786E+03  0.42312651276E+03  0.41800000000E+01 0. -1.
         -5    1    3    3    0  502 -0.35446537549E+02  0.49908300668E+02  0.23064602203E+03  0.23866787672E+03  0.41800000000E+01 0. -1.
        -11    1    4    4    0    0 -0.45476360247E+02 -0.57783875700E+01  0.25802434934E+03  0.26206498041E+03  0.00000000000E+00 0.  1.
         11    1    4    4    0    0  0.34303169977E+02 -0.80156871059E+01  0.68898050784E+02  0.77381523067E+02  0.00000000000E+00 0. -1.
</event>
<event>
 8    1  0.6840084E-009  0.6674388E+02  0.7561462E-02  0.1371529E+00
         -1   -1    0    0    0  501 -0.00000000000E+00  0.00000000000E+00  0.17351162821E+03  0.17351162821E+03  0.00000000000E+00 0.  1.
          1   -1    0    0  501    0  0.00000000000E+00 -0.00000000000E+00 -0.83480425676E+02  0.83480425676E+02  0.00000000000E+00 0. -1.
         25    2    1    2    0    0 -0.30825360142E+02 -0.25532415963E+02  0.15028826967E+02  0.13220297923E+03  0.12509858107E+03 0.  0.
         23    2    1    2    0    0  0.30825360142E+02  0.25532415963E+02  0.75002375572E+02  0.12478907466E+03  0.91350148989E+02 0.  0.
          5    1    3    3  502    0  0.11200257596E+02  0.76193904626E+01  0.60318356948E+02  0.61961903345E+02  0.41800000000E+01 0.  1.
         -5    1    3    3    0  502 -0.42025617738E+02 -0.33151806426E+02 -0.45289529981E+02  0.70241075885E+02  0.41800000000E+01 0.  1.
        -11    1    4    4    0    0 -0.11315890970E+01 -0.14417469355E+02  0.72112740558E+02  0.73548564005E+02  0.00000000000E+00 0.  1.
         11    1    4    4    0    0  0.31956949239E+02  0.39949885318E+02  0.28896350142E+01  0.51240510655E+02  0.00000000000E+00 0. -1.
</event>
<event>
 8    1  0.6840084E-009  0.1821204E+03  0.7561462E-02  0.1165767E+00
         -2   -1    0    0    0  501 -0.00000000000E+00  0.00000000000E+00  0.12481053194E+03  0.12481053194E+03  0.00000000000E+00 0.  1.
          2   -1    0    0  501    0  0.00000000000E+00 -0.00000000000E+00 -0.31561682713E+03  0.31561682713E+03  0.00000000000E+00 0. -1.
         25    2    1    2    0    0  0.13805750608E+02 -0.15893498289E+03 -0.51341010812E+02  0.20912664962E+03  0.12508848330E+03 0.  0.
         23    2    1    2    0    0 -0.13805750608E+02  0.15893498289E+03 -0.13946528438E+03  0.23130070945E+03  0.92728232555E+02 0.  0.
          5    1    3    3  502    0 -0.37184110118E+02 -0.34999895857E+02 -0.54775315205E+02  0.75003055345E+02  0.41800000000E+01 0. -1.
         -5    1    3    3    0  502  0.50989860726E+02 -0.12393508703E+03  0.34343043926E+01  0.13412359427E+03  0.41800000000E+01 0. -1.
        -11    1    4    4    0    0  0.33840023889E+02  0.77685745992E+02 -0.38031089825E+02  0.92879417206E+02  0.00000000000E+00 0.  1.
         11    1    4    4    0    0 -0.47645774497E+02  0.81249236893E+02 -0.10143419455E+03  0.13842129225E+03  0.00000000000E+00 0. -1.
</event>
<event>
 8    1  0.6840084E-009  0.1599829E+03  0.7561462E-02  0.1188716E+00
          1   -1    0    0  501    0  0.00000000000E+00  0.00000000000E+00  0.51908597006E+02  0.51908597006E+02  0.00000000000E+00 0. -1.
         -1   -1    0    0    0  501 -0.00000000000E+00 -0.00000000000E+00 -0.11723086313E+04  0.11723086313E+04  0.00000000000E+00 0.  1.
         25    2    1    2    0    0  0.33773075210E+01 -0.14620691148E+03 -0.98808257869E+03  0.10066492075E+04  0.12509027731E+03 0.  0.
         23    2    1    2    0    0 -0.33773075210E+01  0.14620691148E+03 -0.13231745562E+03  0.21756802082E+03  0.91869839733E+02 0.  0.
          5    1    3    3  502    0  0.38388600432E+02 -0.26445705190E+02 -0.10730703883E+03  0.11706977812E+03  0.41800000000E+01 0.  1.
         -5    1    3    3    0  502 -0.35011292911E+02 -0.11976120629E+03 -0.88077553986E+03  0.88957942938E+03  0.41800000000E+01 0.  1.
        -11    1    4    4    0    0 -0.12849316927E+02  0.11473859313E+03 -0.14227720889E+03  0.18322896569E+03  0.00000000000E+00 0.  1.
         11    1    4    4    0    0  0.94720094065E+01  0.31468318351E+02  0.99597532717E+01  0.34339055130E+02  0.00000000000E+00 0. -1.
</event>
<event>
 8    1  0.6840084E-009  0.1139450E+03  0.7561462E-02  0.1253434E+00
          1   -1    0    0  501    0  0.00000000000E+00  0.00000000000E+00  0.54167088777E+03  0.54167088777E+03  0.00000000000E+00 0. -1.
         -1   -1    0    0    0  501 -0.00000000000E+00 -0.00000000000E+00 -0.26843489394E+02  0.26843489394E+02  0.00000000000E+00 0.  1.
         25    2    1    2    0    0 -0.50368800836E+02 -0.13223327204E+02  0.25570163492E+03  0.28938159638E+03  0.12508600939E+03 0.  0.
         23    2    1    2    0    0  0.50368800836E+02  0.13223327204E+02  0.25912576346E+03  0.27913278078E+03  0.89761214007E+02 0.  0.
          5    1    3    3  502    0  0.28695629029E+02  0.29136957115E+02  0.11831669494E+03  0.12525459711E+03  0.41800000000E+01 0.  1.
         -5    1    3    3    0  502 -0.79064429865E+02 -0.42360284319E+02  0.13738493998E+03  0.16412699927E+03  0.41800000000E+01 0.  1.
        -11    1    4    4    0    0  0.35874059805E+02  0.47643719359E+02  0.10709152291E+03  0.12257840935E+03  0.00000000000E+00 0.  1.
         11    1    4    4    0    0  0.14494741031E+02 -0.34420392154E+02  0.15203424055E+03  0.15655437143E+03  0.00000000000E+00 0. -1.
</event>
<event>
 8    1  0.6840084E-009  0.1145930E+03  0.7561462E-02  0.1252293E+00
         -1   -1    0    0    0  501 -0.00000000000E+00  0.00000000000E+00  0.55569202698E+02  0.55569202698E+02  0.00000000000E+00 0.  1.
          1   -1    0    0  501    0  0.00000000000E+00 -0.00000000000E+00 -0.29103324871E+03  0.29103324871E+03  0.00000000000E+00 0. -1.
         25    2    1    2    0    0 -0.26241033058E+02 -0.60273229712E+02 -0.12586483281E+03  0.18923639451E+03  0.12508798036E+03 0.  0.
         23    2    1    2    0    0  0.26241033058E+02  0.60273229712E+02 -0.10959921320E+03  0.15736605690E+03  0.91818485586E+02 0.  0.
          5    1    3    3  502    0  0.30617105186E+02 -0.55471635222E+02 -0.16180621677E+02  0.65527050613E+02  0.41800000000E+01 0. -1.
         -5    1    3    3    0  502 -0.56858138245E+02 -0.48015944908E+01 -0.10968421114E+03  0.12370934390E+03  0.41800000000E+01 0. -1.
        -11    1    4    4    0    0  0.28147799868E+02  0.81983382779E+02 -0.10294727394E+03  0.13457977152E+03  0.00000000000E+00 0. -1.
         11    1    4    4    0    0 -0.19067668099E+01 -0.21710153067E+02 -0.66519392592E+01  0.22786285387E+02  0.00000000000E+00 0.  1.
</event>
<event>
 8    1  0.6840084E-009  0.1224205E+03  0.7561462E-02  0.1239157E+00
          2   -1    0    0  501    0  0.00000000000E+00  0.00000000000E+00  0.16608521408E+04  0.16608521408E+04  0.00000000000E+00 0. -1.
         -2   -1    0    0    0  501 -0.00000000000E+00 -0.00000000000E+00 -0.17709508786E+02  0.17709508786E+02  0.00000000000E+00 0.  1.
         25    2    1    2    0    0 -0.61661743142E+02 -0.14043166379E+01  0.14466149015E+04  0.14533229180E+04  0.12509471637E+03 0.  0.
         23    2    1    2    0    0  0.61661743142E+02  0.14043166379E+01  0.19652773055E+03  0.22523873163E+03  0.91132840820E+02 0.  0.
          5    1    3    3  502    0 -0.13889919687E+02 -0.58866098347E+02  0.82365405391E+03  0.82588232838E+03  0.41800000000E+01 0. -1.
         -5    1    3    3    0  502 -0.47771823454E+02  0.57461781709E+02  0.62296084759E+03  0.62744058962E+03  0.41800000000E+01 0. -1.
        -11    1    4    4    0    0  0.82525979485E+02  0.15796808784E+02  0.13983293094E+03  0.16313590970E+03  0.00000000000E+00 0.  1.
         11    1    4    4    0    0 -0.20864236343E+02 -0.14392492146E+02  0.56694799610E+02  0.62102821926E+02  0.00000000000E+00 0. -1.
</event>
<event>
 8    1  0.6840084E-009  0.1181065E+03  0.7561462E-02  0.1246254E+00
         -2   -1    0    0    0  501 -0.00000000000E+00  0.00000000000E+00  0.73285310222E+02  0.73285310222E+02  0.00000000000E+00 0.  1.
          2   -1    0    0  501    0  0.00000000000E+00 -0.00000000000E+00 -0.33684773730E+03  0.33684773730E+03  0.00000000000E+00 0. -1.
         25    2    1    2    0    0 -0.92582211771E+02  0.16205209797E+02 -0.22403846683E+03  0.27326707087E+03  0.12509029795E+03 0.  0.
         23    2    1    2    0    0  0.92582211771E+02 -0.16205209797E+02 -0.39523960244E+02  0.13686597665E+03  0.91302121389E+02 0.  0.
          5    1    3    3  502    0 -0.10351454803E+03  0.67852412233E+01 -0.87132215018E+02  0.13553891119E+03  0.41800000000E+01 0.  1.
         -5    1    3    3    0  502  0.10932336255E+02  0.94199685739E+01 -0.13690625182E+03  0.13772815968E+03  0.41800000000E+01 0.  1.
        -11    1    4    4    0    0  0.85637699553E+02  0.13647439991E+02  0.16689171643E+00  0.86718487394E+02  0.00000000000E+00 0.  1.
         11    1    4    4    0    0  0.69445122179E+01 -0.29852649789E+02 -0.39690851961E+02  0.50147489256E+02  0.00000000000E+00 0. -1.
</event>
<event>
 8    1  0.6840084E-009  0.1828233E+03  0.7561462E-02  0.1165098E+00
          2   -1    0    0  501    0  0.00000000000E+00  0.00000000000E+00  0.50115147770E+03  0.50115147770E+03  0.00000000000E+00 0. -1.
         -2   -1    0    0    0  501 -0.00000000000E+00 -0.00000000000E+00 -0.71553719759E+02  0.71553719759E+02  0.00000000000E+00 0.  1.
         25    2    1    2    0    0  0.84176536837E+02 -0.12907254164E+03  0.24967011677E+03  0.31894835745E+03  0.12508987631E+03 0.  0.
         23    2    1    2    0    0 -0.84176536837E+02  0.12907254164E+03  0.17992764118E+03  0.25375684001E+03  0.90956953738E+02 0.  0.
          5    1    3    3  502    0  0.10406303250E+03 -0.57100414134E+02  0.11741463051E+03  0.16701269378E+03  0.41800000000E+01 0. -1.
         -5    1    3    3    0  502 -0.19886495667E+02 -0.71972127507E+02  0.13225548626E+03  0.15193566367E+03  0.41800000000E+01 0. -1.
        -11    1    4    4    0    0 -0.65379389604E+02  0.13691192494E+03  0.12986643667E+03  0.19971136960E+03  0.00000000000E+00 0.  1.
         11    1    4    4    0    0 -0.18797147233E+02 -0.78393832998E+01  0.50061204511E+02  0.54045470409E+02  0.00000000000E+00 0. -1.
</event>
<event>
 8    1  0.6840084E-009  0.1275253E+03  0.7561462E-02  0.1231175E+00
          2   -1    0    0  501    0  0.00000000000E+00  0.00000000000E+00  0.70868252197E+03  0.70868252197E+03  0.00000000000E+00 0. -1.
         -2   -1    0    0    0  501 -0.00000000000E+00 -0.00000000000E+00 -0.25509317632E+02  0.25509317632E+02  0.00000000000E+00 0.  1.
         25    2    1    2    0    0  0.67403431350E+02  0.79375498828E+01  0.26473258108E+03  0.30056220958E+03  0.12509226628E+03 0.  0.
         23    2    1    2    0    0 -0.67403431350E+02 -0.79375498828E+01  0.41844062325E+03  0.43362963002E+03  0.91301005407E+02 0.  0.
          5    1    3    3  502    0 -0.25645219676E+02  0.35695283285E+02  0.99678459559E+02  0.10901879765E+03  0.41800000000E+01 0. -1.
         -5    1    3    3    0  502  0.93048651026E+02 -0.27757733402E+02  0.16505412152E+03  0.19154341193E+03  0.41800000000E+01 0. -1.
        -11    1    4    4    0    0 -0.30057972515E+02 -0.49451069151E+02  0.20626059550E+03  0.21422493601E+03  0.00000000000E+00 0. -1.
         11    1    4    4    0    0 -0.37345458835E+02  0.41513519268E+02  0.21218002775E+03  0.21940469401E+03  0.00000000000E+00 0.  1.
</event>
<event>
 8    1  0.6840084E-009  0.1096808E+03  0.7561462E-02  0.1261162E+00
          1   -1    0    0  501    0  0.00000000000E+00  0.00000000000E+00  0.21326595336E+03  0.21326595336E+03  0.00000000000E+00 0. -1.
         -1   -1    0    0    0  501 -0.00000000000E+00 -0.00000000000E+00 -0.11668812406E+03  0.11668812406E+03  0.00000000000E+00 0.  1.
         25    2    1    2    0    0 -0.53710659126E+02 -0.16879062957E+02 -0.51575154701E+02  0.14655035157E+03  0.12508905345E+03 0.  0.
         23    2    1    2    0    0  0.53710659126E+02  0.16879062957E+02  0.14815298401E+03  0.18340372585E+03  0.92292374087E+02 0.  0.
          5    1    3    3  502    0 -0.37306073751E+02  0.53154757247E+02 -0.26455269856E+02  0.70246174699E+02  0.41800000000E+01 0.  1.
         -5    1    3    3    0  502 -0.16404585375E+02 -0.70033820204E+02 -0.25119884845E+02  0.76304176873E+02  0.41800000000E+01 0.  1.
        -11    1    4    4    0    0 -0.91810902091E+01  0.17027178249E+02  0.10586223516E+03  0.10761519432E+03  0.00000000000E+00 0. -1.
         11    1    4    4    0    0  0.62891749335E+02 -0.14811529209E+00  0.42290748850E+02  0.75788531526E+02  0.00000000000E+00 0.  1.
</event>
<event>
 8    1  0.6840084E-009  0.9542933E+02  0.7561462E-02  0.1290212E+00
          2   -1    0    0  501    0  0.00000000000E+00  0.00000000000E+00  0.10093156642E+03  0.10093156642E+03  0.00000000000E+00 0. -1.
         -2   -1    0    0    0  501 -0.00000000000E+00 -0.00000000000E+00 -0.13056352177E+03  0.13056352177E+03  0.00000000000E+00 0.  1.
         25    2    1    2    0    0  0.23235818729E+01 -0.94432378465E+01 -0.50490735601E+02  0.13525727275E+03  0.12510252466E+03 0.  0.
         23    2    1    2    0    0 -0.23235818729E+01  0.94432378465E+01  0.20858780246E+02  0.96237815448E+02  0.93445463427E+02 0.  0.
          5    1    3    3  502    0  0.14791433619E+02 -0.53625873395E+02 -0.66186834135E+02  0.86560327048E+02  0.41800000000E+01 0.  1.
         -5    1    3    3    0  502 -0.12467851746E+02  0.44182635549E+02  0.15696098534E+02  0.48696945698E+02  0.41800000000E+01 0.  1.
        -11    1    4    4    0    0 -0.40342723753E+02  0.25476729277E+02  0.26521624422E+02  0.54589336472E+02  0.00000000000E+00 0.  1.
         11    1    4    4    0    0  0.38019141880E+02 -0.16033491431E+02 -0.56628441759E+01  0.41648478975E+02  0.00000000000E+00 0. -1.
</event>
<event>
 8    1  0.6840084E-009  0.1294915E+03  0.7561462E-02  0.1228212E+00
         -1   -1    0    0    0  501 -0.00000000000E+00  0.00000000000E+00  0.37317718575E+02  0.37317718575E+02  0.00000000000E+00 0.  1.
          1   -1    0    0  501    0  0.00000000000E+00 -0.00000000000E+00 -0.57596747634E+03  0.57596747634E+03  0.00000000000E+00 0. -1.
         25    2    1    2    0    0  0.56569128334E+01 -0.84996131834E+02 -0.19127047191E+03  0.24390665251E+03  0.12509883542E+03 0.  0.
         23    2    1    2    0    0 -0.56569128334E+01  0.84996131834E+02 -0.34737928586E+03  0.36937854241E+03  0.92259396588E+02 0.  0.
          5    1    3    3  502    0 -0.30261712220E+01  0.29407899539E+02 -0.73981137539E+02  0.79778840422E+02  0.41800000000E+01 0.  1.
         -5    1    3    3    0  502  0.86830840553E+01 -0.11440403137E+03 -0.11728933437E+03  0.16412781208E+03  0.41800000000E+01 0.  1.
        -11    1    4    4    0    0 -0.21265775658E+02 -0.59166231900E+01 -0.21953058371E+02  0.31131598355E+02  0.00000000000E+00 0. -1.
         11    1    4    4    0    0  0.15608862825E+02  0.90912755024E+02 -0.32542622749E+03  0.33824694405E+03  0.00000000000E+00 0.  1.
</event>
<event>
 8    1  0.6840084E-009  0.1261790E+03  0.7561462E-02  0.1233238E+00
          1   -1    0    0  501    0  0.00000000000E+00  0.00000000000E+00  0.76340071527E+03  0.76340071527E+03  0.00000000000E+00 0. -1.
         -1   -1    0    0    0  501 -0.00000000000E+00 -0.00000000000E+00 -0.29125651508E+02  0.29125651508E+02  0.00000000000E+00 0.  1.
         25    2    1    2    0    0  0.99971883871E+02 -0.45444658569E+01  0.36481942957E+03  0.39844397880E+03  0.12509739533E+03 0.  0.
         23    2    1    2    0    0 -0.99971883871E+02  0.45444658569E+01  0.36945563420E+03  0.39408238798E+03  0.93746643351E+02 0.  0.
          5    1    3    3  502    0  0.11762376177E+03  0.26332751809E+01  0.19701698504E+03  0.22951132491E+03  0.41800000000E+01 0. -1.
         -5    1    3    3    0  502 -0.17651877896E+02 -0.71777410378E+01  0.16780244453E+03  0.16893265389E+03  0.41800000000E+01 0. -1.
        -11    1    4    4    0    0 -0.10213309268E+03 -0.79499173930E+01  0.36717637781E+03  0.38119924217E+03  0.00000000000E+00 0. -1.
         11    1    4    4    0    0  0.21612088121E+01  0.12494383250E+02  0.22792563893E+01  0.12883145812E+02  0.00000000000E+00 0.  1.
</event>
<event>
 8    1  0.6840084E-009  0.1422688E+03  0.7561462E-02  0.1210308E+00
         -1   -1    0    0    0  501 -0.00000000000E+00  0.00000000000E+00  0.20123893354E+03  0.20123893354E+03  0.00000000000E+00 0.  1.
          1   -1    0    0  501    0  0.00000000000E+00 -0.00000000000E+00 -0.11089180282E+03  0.11089180282E+03  0.00000000000E+00 0. -1.
         25    2    1    2    0    0 -0.84424924866E+02  0.59441558740E+02  0.30418176915E+02  0.16502619257E+03  0.12509001520E+03 0.  0.
         23    2    1    2    0    0  0.84424924866E+02 -0.59441558740E+02  0.59928953800E+02  0.14710454379E+03  0.85949988108E+02 0.  0.
          5    1    3    3  502    0  0.30764240820E+02  0.24136338974E+02 -0.43416317816E+01  0.39564169886E+02  0.41800000000E+01 0. -1.
         -5    1    3    3    0  502 -0.11518916569E+03  0.35305219766E+02  0.34759808697E+02  0.12546202268E+03  0.41800000000E+01 0. -1.
        -11    1    4    4    0    0  0.28542350546E+02 -0.62486086186E+02  0.59892871851E+02  0.91139085139E+02  0.00000000000E+00 0.  1.
         11    1    4    4    0    0  0.55882574320E+02  0.30445274456E+01  0.36081949149E-01  0.55965458650E+02  0.00000000000E+00 0. -1.
</event>
<event>
 8    1  0.6840084E-009  0.2524119E+03  0.7561462E-02  0.1111790E+00
          1   -1    0    0  501    0  0.00000000000E+00  0.00000000000E+00  0.11019874656E+04  0.11019874656E+04  0.00000000000E+00 0. -1.
         -1   -1    0    0    0  501 -0.00000000000E+00 -0.00000000000E+00 -0.77676347570E+02  0.77676347570E+02  0.00000000000E+00 0.  1.
         25    2    1    2    0    0 -0.23556810254E+03  0.15627857845E+02  0.25372187638E+03  0.36845844453E+03  0.12510105483E+03 0.  0.
         23    2    1    2    0    0  0.23556810254E+03 -0.15627857845E+02  0.77058924165E+03  0.81120536864E+03  0.92248630846E+02 0.  0.
          5    1    3    3  502    0 -0.18458576276E+03  0.63946478345E+02  0.16912161685E+03  0.25841952247E+03  0.41800000000E+01 0.  1.
         -5    1    3    3    0  502 -0.50982339772E+02 -0.48318620500E+02  0.84600259533E+02  0.11003892206E+03  0.41800000000E+01 0.  1.
        -11    1    4    4    0    0  0.17446451924E+03 -0.28066908090E+02  0.42895209847E+03  0.46392404829E+03  0.00000000000E+00 0.  1.
         11    1    4    4    0    0  0.61103583298E+02  0.12439050245E+02  0.34163714318E+03  0.34728132035E+03  0.00000000000E+00 0. -1.
</event>
<event>
 8    1  0.6840084E-009  0.1799943E+03  0.7561462E-02  0.1167809E+00
         -2   -1    0    0    0  501 -0.00000000000E+00  0.00000000000E+00  0.29941170105E+02  0.29941170105E+02  0.00000000000E+00 0.  1.
          2   -1    0    0  501    0  0.00000000000E+00 -0.00000000000E+00 -0.12370392778E+04  0.12370392778E+04  0.00000000000E+00 0. -1.
         25    2    1    2    0    0  0.70287700127E+02 -0.13731454907E+03 -0.51482708269E+03  0.55180558174E+03  0.12508728471E+03 0.  0.
         23    2    1    2    0    0 -0.70287700127E+02  0.13731454907E+03 -0.69227102497E+03  0.71517486613E+03  0.91870947258E+02 0.  0.
          5    1    3    3  502    0  0.62589495126E+02 -0.19738669618E+02 -0.29621343176E+03  0.30342532778E+03  0.41800000000E+01 0. -1.
         -5    1    3    3    0  502  0.76982050017E+01 -0.11757587945E+03 -0.21861365092E+03  0.24838025397E+03  0.41800000000E+01 0. -1.
        -11    1    4    4    0    0  0.13333448500E+02  0.63188017366E+02 -0.32186386427E+03  0.32827862177E+03  0.00000000000E+00 0. -1.
         11    1    4    4    0    0 -0.83621148627E+02  0.74126531706E+02 -0.37040716070E+03  0.38689624436E+03  0.00000000000E+00 0.  1.
</event>
<event>
 8    1  0.6840084E-009  0.9521953E+02  0.7561462E-02  0.1290682E+00
         -3   -1    0    0    0  501 -0.00000000000E+00  0.00000000000E+00  0.51693915253E+02  0.51693915253E+02  0.00000000000E+00 0.  1.
          3   -1    0    0  501    0  0.00000000000E+00 -0.00000000000E+00 -0.60502995172E+03  0.60502995172E+03  0.00000000000E+00 0. -1.
         25    2    1    2    0    0 -0.14505502951E+02  0.40513889380E+02 -0.53937048239E+03  0.55535563218E+03  0.12509027170E+03 0.  0.
         23    2    1    2    0    0  0.14505502951E+02 -0.40513889380E+02 -0.13965554074E+02  0.10136823479E+03  0.90712168284E+02 0.  0.
          5    1    3    3  502    0 -0.16196131228E+02  0.66531137257E+02 -0.51459373393E+03  0.51914630914E+03  0.41800000000E+01 0. -1.
         -5    1    3    3    0  502  0.16906282776E+01 -0.26017247877E+02 -0.24776748458E+02  0.36209323043E+02  0.41800000000E+01 0. -1.
        -11    1    4    4    0    0 -0.23952990705E+01 -0.65348566118E+02  0.54194526260E+01  0.65616636748E+02  0.00000000000E+00 0.  1.
         11    1    4    4    0    0  0.16900802021E+02  0.24834676738E+02 -0.19385006700E+02  0.35751598040E+02  0.00000000000E+00 0. -1.
</event>
<event>
 8    1  0.6840084E-009  0.1028840E+03  0.7561462E-02  0.1274346E+00
          1   -1    0    0  501    0  0.00000000000E+00  0.00000000000E+00  0.68217020617E+02  0.68217020617E+02  0.00000000000E+00 0. -1.
         -1   -1    0    0    0  501 -0.00000000000E+00 -0.00000000000E+00 -0.22699657759E+03  0.22699657759E+03  0.00000000000E+00 0.  1.
         25    2    1    2    0    0 -0.45536883148E+02 -0.39205525062E+02 -0.76626644009E+02  0.15851678200E+03  0.12508096051E+03 0.  0.
         23    2    1    2    0    0  0.45536883148E+02  0.39205525062E+02 -0.82152912968E+02  0.13669681621E+03  0.91248219329E+02 0.  0.
          5    1    3    3  502    0 -0.47428379875E+02 -0.74333930124E+02 -0.84528844302E+02  0.12221940232E+03  0.41800000000E+01 0.  1.
         -5    1    3    3    0  502  0.18914967278E+01  0.35128405062E+02  0.79022002922E+01  0.36297379679E+02  0.41800000000E+01 0.  1.
        -11    1    4    4    0    0  0.16011239404E+02 -0.13966502307E+02 -0.71957324673E+02  0.75028524896E+02  0.00000000000E+00 0.  1.
         11    1    4    4    0    0  0.29525643743E+02  0.53172027369E+02 -0.10195588295E+02  0.61668291314E+02  0.00000000000E+00 0. -1.
</event>
<event>
 8    1  0.6840084E-009  0.6390594E+02  0.7561462E-02  0.1382135E+00
         -2   -1    0    0    0  501 -0.00000000000E+00  0.00000000000E+00  0.37218068810E+02  0.37218068810E+02  0.00000000000E+00 0.  1.
          2   -1    0    0  501    0  0.00000000000E+00 -0.00000000000E+00 -0.38606527182E+03  0.38606527182E+03  0.00000000000E+00 0. -1.
         25    2    1    2    0    0 -0.50596017019E+02  0.13528880227E+02 -0.19988175617E+03  0.24154179083E+03  0.12508690070E+03 0.  0.
         23    2    1    2    0    0  0.50596017019E+02 -0.13528880227E+02 -0.14896544684E+03  0.18174154981E+03  0.89979436737E+02 0.  0.
          5    1    3    3  502    0 -0.23348875153E+02  0.23058048156E+02 -0.20851629479E+03  0.21112404209E+03  0.41800000000E+01 0.  1.
         -5    1    3    3    0  502 -0.27247141865E+02 -0.95291679286E+01  0.86345386149E+01  0.30417748739E+02  0.41800000000E+01 0.  1.
        -11    1    4    4    0    0  0.36796517836E+02  0.10139121257E+02 -0.14954443770E+03  0.15433834375E+03  0.00000000000E+00 0. -1.
         11    1    4    4    0    0  0.13799499183E+02 -0.23668001484E+02  0.57899085597E+00  0.27403206060E+02  0.00000000000E+00 0.  1.
</event>
<event>
 8    1  0.6840084E-009  0.1520507E+03  0.7561462E-02  0.1197976E+00
         -1   -1    0    0    0  501 -0.00000000000E+00  0.00000000000E+00  0.23458415871E+03  0.23458415871E+03  0.00000000000E+00 0.  1.
          1   -1    0    0  501    0  0.00000000000E+00 -0.00000000000E+00 -0.22683593411E+03  0.22683593411E+03  0.00000000000E+00 0. -1.
         25    2    1    2    0    0 -0.53260419087E+02 -0.14174545763E+03 -0.13156146886E+03  0.23639326643E+03  0.12507961195E+03 0.  0.
         23    2    1    2    0    0  0.53260419087E+02  0.14174545763E+03  0.13930969346E+03  0.22502682639E+03  0.91112210503E+02 0.  0.
          5    1    3    3  502    0 -0.30472510308E+02 -0.59593042309E+02 -0.13524302706E+03  0.15095712419E+03  0.41800000000E+01 0.  1.
         -5    1    3    3    0  502 -0.22787908779E+02 -0.82152415323E+02  0.36815582017E+01  0.85436142240E+02  0.41800000000E+01 0.  1.
        -11    1    4    4    0    0  0.28613833747E+02  0.88460239471E+02  0.13788339195E+03  0.16630031637E+03  0.00000000000E+00 0.  1.
         11    1    4    4    0    0  0.24646585340E+02  0.53285218162E+02  0.14263015127E+01  0.58726510023E+02  0.00000000000E+00 0. -1.
</event>
<event>
 8    1  0.6840084E-009  0.9841183E+02  0.7561462E-02  0.1283672E+00
          1   -1    0    0  501    0  0.00000000000E+00  0.00000000000E+00  0.24091802962E+03  0.24091802962E+03  0.00000000000E+00 0. -1.
         -1   -1    0    0    0  501 -0.00000000000E+00 -0.00000000000E+00 -0.81727572512E+02  0.81727572512E+02  0.00000000000E+00 0.  1.
         25    2    1    2    0    0  0.66402918306E+01 -0.87671261841E+02  0.76016703290E+02  0.17074826202E+03  0.12508431626E+03 0.  0.
         23    2    1    2    0    0 -0.66402918306E+01  0.87671261841E+02  0.83173753816E+02  0.15189734011E+03  0.91785537970E+02 0.  0.
          5    1    3    3  502    0  0.84159890529E+01  0.84465673095E+01 -0.26982320792E+02  0.29794150539E+02  0.41800000000E+01 0. -1.
         -5    1    3    3    0  502 -0.17756972223E+01 -0.96117829150E+02  0.10299902408E+03  0.14095411148E+03  0.41800000000E+01 0. -1.
        -11    1    4    4    0    0 -0.66266180873E+01  0.74987764434E+02  0.80486078319E+01  0.75709028326E+02  0.00000000000E+00 0.  1.
         11    1    4    4    0    0 -0.13673743344E-01  0.12683497407E+02  0.75125145984E+02  0.76188311784E+02  0.00000000000E+00 0. -1.
</event>
<event>
 8    1  0.6840084E-009  0.1347525E+03  0.7561462E-02  0.1220570E+00
         -2   -1    0    0    0  501 -0.00000000000E+00  0.00000000000E+00  0.56069736134E+02  0.56069736134E+02  0.00000000000E+00 0.  1.
          2   -1    0    0  501    0  0.00000000000E+00 -0.00000000000E+00 -0.38482475722E+03  0.38482475722E+03  0.00000000000E+00 0. -1.
         25    2    1    2    0    0 -0.88508299954E+02  0.46204630151E+02 -0.18726898547E+03  0.24634192373E+03  0.12508430540E+03 0.  0.
         23    2    1    2    0    0  0.88508299954E+02 -0.46204630151E+02 -0.14148603562E+03  0.19455256963E+03  0.88678165678E+02 0.  0.
          5    1    3    3  502    0  0.11237127960E+02  0.42799446803E+02 -0.14461100802E+02  0.46740362940E+02  0.41800000000E+01 0. -1.
         -5    1    3    3    0  502 -0.99745427914E+02  0.34051833486E+01 -0.17280788467E+03  0.19960156079E+03  0.41800000000E+01 0. -1.
        -11    1    4    4    0    0  0.83605540819E+02 -0.64900186347E+02 -0.13952432329E+03  0.17512554763E+03  0.00000000000E+00 0. -1.
         11    1    4    4    0    0  0.49027591356E+01  0.18695556196E+02 -0.19617123269E+01  0.19427022002E+02  0.00000000000E+00 0.  1.
</event>
<event>
 8    1  0.6840084E-009  0.1034921E+03  0.7561462E-02  0.1273119E+00
         -2   -1    0    0    0  501 -0.00000000000E+00  0.00000000000E+00  0.29854410360E+02  0.29854410360E+02  0.00000000000E+00 0.  1.
          2   -1    0    0  501    0  0.00000000000E+00 -0.00000000000E+00 -0.55363145713E+03  0.55363145713E+03  0.00000000000E+00 0. -1.
         25    2    1    2    0    0  0.64552875947E+02 -0.25016479352E+02 -0.29373552800E+03  0.32668162281E+03  0.12508966481E+03 0.  0.
         23    2    1    2    0    0 -0.64552875947E+02  0.25016479352E+02 -0.23004151877E+03  0.25680424468E+03  0.90754733725E+02 0.  0.
          5    1    3    3  502    0  0.21958530406E+02 -0.42555793748E+02 -0.27083829739E+03  0.27507095152E+03  0.41800000000E+01 0. -1.
         -5    1    3    3    0  502  0.42594345541E+02  0.17539314396E+02 -0.22897230611E+02  0.51610671292E+02  0.41800000000E+01 0. -1.
        -11    1    4    4    0    0 -0.13174124876E+02  0.52684562366E+02 -0.13162172990E+03  0.14238504297E+03  0.00000000000E+00 0.  1.
         11    1    4    4    0    0 -0.51378751071E+02 -0.27668083014E+02 -0.98419788871E+02  0.11441920171E+03  0.00000000000E+00 0. -1.
</event>
<event>
 8    1  0.6840084E-009  0.1554208E+03  0.7561462E-02  0.1193966E+00
          2   -1    0    0  501    0  0.00000000000E+00  0.00000000000E+00  0.36664942709E+02  0.36664942709E+02  0.00000000000E+00 0. -1.
         -2   -1    0    0    0  501 -0.00000000000E+00 -0.00000000000E+00 -0.68936661165E+03  0.68936661165E+03  0.00000000000E+00 0.  1.
         25    2    1    2    0    0  0.50254291150E+02  0.10425577754E+03 -0.36314828521E+03  0.40114488419E+03  0.12508309291E+03 0.  0.
         23    2    1    2    0    0 -0.50254291150E+02 -0.10425577754E+03 -0.28955338373E+03  0.32488667017E+03  0.91188954886E+02 0.  0.
          5    1    3    3  502    0  0.39412398333E+02  0.13333338862E+03 -0.29668136184E+03  0.32767122627E+03  0.41800000000E+01 0.  1.
         -5    1    3    3    0  502  0.10841892818E+02 -0.29077611076E+02 -0.66466923373E+02  0.73473657922E+02  0.41800000000E+01 0.  1.
        -11    1    4    4    0    0  0.20784300309E+02 -0.12027190657E+02 -0.19938030901E+02  0.31211624928E+02  0.00000000000E+00 0. -1.
         11    1    4    4    0    0 -0.71038591460E+02 -0.92228586885E+02 -0.26961535283E+03  0.29367504524E+03  0.00000000000E+00 0.  1.
</event>
<event>
 8    1  0.6840084E-009  0.1083636E+03  0.7561462E-02  0.1263630E+00
          2   -1    0    0  501    0  0.00000000000E+00  0.00000000000E+00  0.12118562499E+04  0.12118562499E+04  0.00000000000E+00 0. -1.
         -2   -1    0    0    0  501 -0.00000000000E+00 -0.00000000000E+00 -0.11107876876E+02  0.11107876876E+02  0.00000000000E+00 0.  1.
         25    2    1    2    0    0 -0.27691454003E+02 -0.11233793661E+02  0.84062410832E+03  0.85040314965E+03  0.12507442067E+03 0.  0.
         23    2    1    2    0    0  0.27691454003E+02  0.11233793661E+02  0.36012426467E+03  0.37256097709E+03  0.90659698327E+02 0.  0.
          5    1    3    3  502    0  0.43863530523E+02  0.13068265692E+02  0.19424091715E+03  0.19960409608E+03  0.41800000000E+01 0.  1.
         -5    1    3    3    0  502 -0.71554984526E+02 -0.24302059352E+02  0.64638319117E+03  0.65079905357E+03  0.41800000000E+01 0.  1.
        -11    1    4    4    0    0  0.59815065711E+02  0.17566851167E+02  0.25135043209E+03  0.25896616779E+03  0.00000000000E+00 0.  1.
         11    1    4    4    0    0 -0.32123611708E+02 -0.63330575059E+01  0.10877383258E+03  0.11359480930E+03  0.00000000000E+00 0. -1.
</event>
<event>
 8    1  0.6840084E-009  0.9027055E+02  0.7561462E-02  0.1302198E+00
         -3   -1    0    0    0  501 -0.00000000000E+00  0.00000000000E+00  0.33497925626E+02  0.33497925626E+02  0.00000000000E+00 0.  1.
          3   -1    0    0  501    0  0.00000000000E+00 -0.00000000000E+00 -0.44207700147E+03  0.44207700147E+03  0.00000000000E+00 0. -1.
         25    2    1    2    0    0 -0.24079041394E+02 -0.47606302443E+02 -0.20040484945E+03  0.24218969370E+03  0.12509030253E+03 0.  0.
         23    2    1    2    0    0  0.24079041394E+02  0.47606302443E+02 -0.20817422639E+03  0.23338523339E+03  0.91027459387E+02 0.  0.
          5    1    3    3  502    0 -0.17991242156E+02 -0.77491607335E+02 -0.63521955042E+02  0.10188790495E+03  0.41800000000E+01 0. -1.
         -5    1    3    3    0  502 -0.60877992382E+01  0.29885304893E+02 -0.13688289441E+03  0.14030178876E+03  0.41800000000E+01 0. -1.
        -11    1    4    4    0    0  0.54106621282E+01  0.50858015143E+02 -0.20824703626E+03  0.21443563389E+03  0.00000000000E+00 0. -1.
         11    1    4    4    0    0  0.18668379266E+02 -0.32517127009E+01  0.72809870277E-01  0.18949599499E+02  0.00000000000E+00 0.  1.
</event>
<event>
 8    1  0.6840084E-009  0.7967110E+02  0.7561462E-02  0.1329987E+00
          2   -1    0    0  501    0  0.00000000000E+00  0.00000000000E+00  0.27146269835E+03  0.27146269835E+03  0.00000000000E+00 0.  1.
         -2   -1    0    0    0  501 -0.00000000000E+00 -0.00000000000E+00 -0.56810817105E+02  0.56810817105E+02  0.00000000000E+00 0. -1.
         25    2    1    2    0    0 -0.16475891626E+02 -0.43194991942E+02  0.17126697941E+03  0.21706679822E+03  0.12509338239E+03 0.  0.
         23    2    1    2    0    0  0.16475891626E+02  0.43194991942E+02  0.43384901832E+02  0.11120671723E+03  0.91364226683E+02 0.  0.
          5    1    3    3  502    0 -0.10988361896E+02  0.22674157776E+02 -0.73410661747E+01  0.26574897565E+02  0.41800000000E+01 0. -1.
         -5    1    3    3    0  502 -0.54875297301E+01 -0.65869149718E+02  0.17860804559E+03  0.19049190066E+03  0.41800000000E+01 0. -1.
        -11    1    4    4    0    0  0.26711343902E+02  0.39349265563E+01 -0.21613396126E+02  0.34584945166E+02  0.00000000000E+00 0. -1.
         11    1    4    4    0    0 -0.10235452276E+02  0.39260065386E+02  0.64998297958E+02  0.76621772068E+02  0.00000000000E+00 0.  1.
</event>
<event>
 8    1  0.6840084E-009  0.3902050E+03  0.7561462E-02  0.1047225E+00
          1   -1    0    0  501    0  0.00000000000E+00  0.00000000000E+00  0.14018388788E+03  0.14018388788E+03  0.00000000000E+00 0. -1.
         -1   -1    0    0    0  501 -0.00000000000E+00 -0.00000000000E+00 -0.11010638919E+04  0.11010638919E+04  0.00000000000E+00 0.  1.
         25    2    1    2    0    0  0.10417593510E+03 -0.35998043045E+03 -0.41625056329E+03  0.57389490908E+03  0.12510915023E+03 0.  0.
         23    2    1    2    0    0 -0.10417593510E+03  0.35998043045E+03 -0.54462944074E+03  0.66735287071E+03  0.91104832830E+02 0.  0.
          5    1    3    3  502    0  0.35410897340E+02 -0.30382575891E+03 -0.31312899422E+03  0.43775708201E+03  0.41800000000E+01 0.  1.
         -5    1    3    3    0  502  0.68765037756E+02 -0.56154671544E+02 -0.10312156907E+03  0.13613782708E+03  0.41800000000E+01 0.  1.
        -11    1    4    4    0    0 -0.36672729762E+02  0.27333104585E+03 -0.39413832339E+03  0.48104029737E+03  0.00000000000E+00 0. -1.
         11    1    4    4    0    0 -0.67503205334E+02  0.86649384602E+02 -0.15049111735E+03  0.18631257333E+03  0.00000000000E+00 0.  1.
</event>
<event>
 8    1  0.6840084E-009  0.1150518E+03  0.7561462E-02  0.1251491E+00
          3   -1    0    0  501    0  0.00000000000E+00  0.00000000000E+00  0.33661254692E+03  0.33661254692E+03  0.00000000000E+00 0. -1.
         -3   -1    0    0    0  501 -0.00000000000E+00 -0.00000000000E+00 -0.45757319533E+02  0.45757319533E+02  0.00000000000E+00 0.  1.
         25    2    1    2    0    0  0.11128249193E+02 -0.59211947613E+02  0.16760763314E+03  0.21764700743E+03  0.12509200008E+03 0.  0.
         23    2    1    2    0    0 -0.11128249193E+02  0.59211947613E+02  0.12324759425E+03  0.16472285903E+03  0.91179812063E+02 0.  0.
          5    1    3    3  502    0  0.67131390663E+02 -0.44544984462E+02  0.92843456786E+02  0.12299698826E+03  0.41800000000E+01 0. -1.
         -5    1    3    3    0  502 -0.56003141470E+02 -0.14666963151E+02  0.74764176355E+02  0.94650019168E+02  0.41800000000E+01 0. -1.
        -11    1    4    4    0    0  0.14264767178E+02 -0.10160076285E+02  0.73747619345E+02  0.75798562597E+02  0.00000000000E+00 0. -1.
         11    1    4    4    0    0 -0.25393016371E+02  0.69372023898E+02  0.49499974904E+02  0.88924296430E+02  0.00000000000E+00 0.  1.
</event>
<event>
 8    1  0.6840084E-009  0.2405687E+03  0.7561462E-02  0.1119415E+00
          2   -1    0    0  501    0  0.00000000000E+00  0.00000000000E+00  0.11540314986E+04  0.11540314986E+04  0.00000000000E+00 0.  1.
         -2   -1    0    0    0  501 -0.00000000000E+00 -0.00000000000E+00 -0.58947616983E+02  0.58947616983E+02  0.00000000000E+00 0. -1.
         25    2    1    2    0    0 -0.15079013224E+03 -0.18223675605E+03  0.57146253725E+03  0.63100366339E+03  0.12509313530E+03 0.  0.
         23    2    1    2    0    0  0.15079013224E+03  0.18223675605E+03  0.52362134435E+03  0.58197545217E+03  0.92564655434E+02 0.  0.
          5    1    3    3  502    0 -0.15318463422E+03 -0.18390723855E+03  0.45238843616E+03  0.51182045106E+03  0.41800000000E+01 0. -1.
         -5    1    3    3    0  502  0.23945019771E+01  0.16704825021E+01  0.11907410109E+03  0.11918321233E+03  0.41800000000E+01 0. -1.
        -11    1    4    4    0    0  0.30173682280E+02  0.31851111421E+02  0.33185690289E+02  0.55011221047E+02  0.00000000000E+00 0. -1.
         11    1    4    4    0    0  0.12061644996E+03  0.15038564463E+03  0.49043565406E+03  0.52696423112E+03  0.00000000000E+00 0.  1.
</event>
<event>
 8    1  0.6840084E-009  0.1477179E+03  0.7561462E-02  0.1203306E+00
          3   -1    0    0  501    0  0.00000000000E+00  0.00000000000E+00  0.37846553612E+03  0.37846553612E+03  0.00000000000E+00 0. -1.
         -3   -1    0    0    0  501 -0.00000000000E+00 -0.00000000000E+00 -0.67272152206E+02  0.67272152206E+02  0.00000000000E+00 0.  1.
         25    2    1    2    0    0  0.43849654387E+02  0.10760356966E+03  0.20470984119E+03  0.26656084594E+03  0.12508894881E+03 0.  0.
         23    2    1    2    0    0 -0.43849654387E+02 -0.10760356966E+03  0.10648354272E+03  0.17917684239E+03  0.85230719720E+02 0.  0.
          5    1    3    3  502    0 -0.82384175031E+01  0.10201410750E+03  0.18296455987E+03  0.20968608018E+03  0.41800000000E+01 0. -1.
         -5    1    3    3    0  502  0.52088071890E+02  0.55894621562E+01  0.21745281320E+02  0.56874765759E+02  0.41800000000E+01 0. -1.
        -11    1    4    4    0    0 -0.43655744020E+02 -0.12587212219E+02  0.54204495672E+02  0.70727570638E+02  0.00000000000E+00 0. -1.
         11    1    4    4    0    0 -0.19391036717E+00 -0.95016357439E+02  0.52279047049E+02  0.10844927175E+03  0.00000000000E+00 0.  1.
</event>
<event>
 8    1  0.6840084E-009  0.1047751E+03  0.7561462E-02  0.1270563E+00
         -1   -1    0    0    0  501 -0.00000000000E+00  0.00000000000E+00  0.35462974490E+02  0.35462974490E+02  0.00000000000E+00 0.  1.
          1   -1    0    0  501    0  0.00000000000E+00 -0.00000000000E+00 -0.56161309682E+03  0.56161309682E+03  0.00000000000E+00 0. -1.
         25    2    1    2    0    0  0.54871969512E+02  0.54495959478E+02 -0.18984639650E+03  0.24014538893E+03  0.12508961158E+03 0.  0.
         23    2    1    2    0    0 -0.54871969512E+02 -0.54495959478E+02 -0.33630372583E+03  0.35693068238E+03  0.91206213478E+02 0.  0.
          5    1    3    3  502    0  0.15482550113E+02  0.59087984134E+02 -0.19067218453E+03  0.20026096369E+03  0.41800000000E+01 0. -1.
         -5    1    3    3    0  502  0.39389419399E+02 -0.45920246563E+01  0.82578802455E+00  0.39884425242E+02  0.41800000000E+01 0. -1.
        -11    1    4    4    0    0 -0.40308763524E+02  0.10652354481E+02 -0.20970778048E+03  0.21381211908E+03  0.00000000000E+00 0. -1.
         11    1    4    4    0    0 -0.14563205989E+02 -0.65148313958E+02 -0.12659594536E+03  0.14311856330E+03  0.00000000000E+00 0.  1.
</event>
<event>
 8    1  0.6840084E-009  0.1367312E+03  0.7561462E-02  0.1217796E+00
          1   -1    0    0  501    0  0.00000000000E+00  0.00000000000E+00  0.17284823082E+04  0.17284823082E+04  0.00000000000E+00 0. -1.
         -1   -1    0    0    0  501 -0.00000000000E+00 -0.00000000000E+00 -0.12610002305E+02  0.12610002305E+02  0.00000000000E+00 0.  1.
         25    2    1    2    0    0 -0.91823025371E+02  0.15529397821E+02  0.11399637701E+04  0.11505813497E+04  0.12508962811E+03 0.  0.
         23    2    1    2    0    0  0.91823025371E+02 -0.15529397821E+02  0.57590853584E+03  0.59051096080E+03  0.91432614478E+02 0.  0.
          5    1    3    3  502    0  0.29182266662E+02  0.12821390155E+02  0.16301434415E+03  0.16615396935E+03  0.41800000000E+01 0.  1.
         -5    1    3    3    0  502 -0.12100529203E+03  0.27080076657E+01  0.97694942593E+03  0.98442738037E+03  0.41800000000E+01 0.  1.
        -11    1    4    4    0    0  0.15593017279E+02 -0.37717492341E+02  0.99714210299E+02  0.10774356200E+03  0.00000000000E+00 0. -1.
         11    1    4    4    0    0  0.76230008092E+02  0.22188094520E+02  0.47619432554E+03  0.48276739881E+03  0.00000000000E+00 0.  1.
</event>
<event>
 8    1  0.6840084E-009  0.7229091E+02  0.7561462E-02  0.1352472E+00
          1   -1    0    0  501    0  0.00000000000E+00  0.00000000000E+00  0.23754909581E+03  0.23754909581E+03  0.00000000000E+00 0. -1.
         -1   -1    0    0    0  501 -0.00000000000E+00 -0.00000000000E+00 -0.64275300217E+02  0.64275300217E+02  0.00000000000E+00 0.  1.
         25    2    1    2    0    0 -0.51742932262E+02  0.18843217286E+02  0.71972260395E+02  0.15446904901E+03  0.12509309716E+03 0.  0.
         23    2    1    2    0    0  0.51742932262E+02 -0.18843217286E+02  0.10130153520E+03  0.14735534702E+03  0.91756195350E+02 0.  0.
          5    1    3    3  502    0 -0.53290334134E+02 -0.60721948380E+01 -0.21271890249E+02  0.57850643704E+02  0.41800000000E+01 0. -1.
         -5    1    3    3    0  502  0.15474018718E+01  0.24915412124E+02  0.93244150644E+02  0.96618405302E+02  0.41800000000E+01 0. -1.
        -11    1    4    4    0    0  0.39859587150E+02  0.36575740126E+01 -0.28615408559E+01  0.40129203226E+02  0.00000000000E+00 0.  1.
         11    1    4    4    0    0  0.11883345111E+02 -0.22500791298E+02  0.10416307605E+03  0.10722614379E+03  0.00000000000E+00 0. -1.
</event>
<event>
 8    1  0.6840084E-009  0.1805479E+03  0.7561462E-02  0.1167274E+00
         -2   -1    0    0    0  501 -0.00000000000E+00  0.00000000000E+00  0.30885560663E+02  0.30885560663E+02  0.00000000000E+00 0.  1.
          2   -1    0    0  501    0  0.00000000000E+00 -0.00000000000E+00 -0.11264320575E+04  0.11264320575E+04  0.00000000000E+00 0. -1.
         25    2    1    2    0    0  0.14860353122E+03  0.17246069906E+02 -0.50841283596E+03  0.54452854607E+03  0.12508912546E+03 0.  0.
         23    2    1    2    0    0 -0.14860353122E+03 -0.17246069906E+02 -0.58713366085E+03  0.61278907206E+03  0.91673740583E+02 0.  0.
          5    1    3    3  502    0  0.12619319258E+03 -0.35435599580E+02 -0.28278754784E+03  0.31171569287E+03  0.41800000000E+01 0.  1.
         -5    1    3    3    0  502  0.22410338642E+02  0.52681669487E+02 -0.22562528812E+03  0.23281285320E+03  0.41800000000E+01 0.  1.
        -11    1    4    4    0    0 -0.15634079514E+03 -0.30332064619E+01 -0.49087048890E+03  0.51517519490E+03  0.00000000000E+00 0.  1.
         11    1    4    4    0    0  0.77372639188E+01 -0.14212863445E+02 -0.96263171949E+02  0.97613877159E+02  0.00000000000E+00 0. -1.
</event>
<event>
 8    1  0.6840084E-009  0.1048547E+03  0.7561462E-02  0.1270406E+00
          2   -1    0    0  501    0  0.00000000000E+00  0.00000000000E+00  0.58259899873E+03  0.58259899873E+03  0.00000000000E+00 0. -1.
         -2   -1    0    0    0  501 -0.00000000000E+00 -0.00000000000E+00 -0.24681216524E+02  0.24681216524E+02  0.00000000000E+00 0.  1.
         25    2    1    2    0    0 -0.38599181148E+01 -0.16956700796E+02  0.44081308518E+03  0.45854804429E+03  0.12509078377E+03 0.  0.
         23    2    1    2    0    0  0.38599181148E+01  0.16956700796E+02  0.11710469703E+03  0.14873217097E+03  0.90029550401E+02 0.  0.
          5    1    3    3  502    0 -0.36921646276E+02 -0.55779779617E+02  0.16612621237E+03  0.17913677070E+03  0.41800000000E+01 0. -1.
         -5    1    3    3    0  502  0.33061728161E+02  0.38823078822E+02  0.27468687281E+03  0.27941127359E+03  0.41800000000E+01 0. -1.
        -11    1    4    4    0    0  0.38002903066E+01 -0.37185891791E+02  0.43397544568E+02  0.57276344412E+02  0.00000000000E+00 0. -1.
         11    1    4    4    0    0  0.59627808199E-01  0.54142592586E+02  0.73707152463E+02  0.91455826559E+02  0.00000000000E+00 0.  1.
</event>
<event>
 8    1  0.6840084E-009  0.1126903E+03  0.7561462E-02  0.1255667E+00
          2   -1    0    0  501    0  0.00000000000E+00  0.00000000000E+00  0.69274954824E+03  0.69274954824E+03  0.00000000000E+00 0. -1.
         -2   -1    0    0    0  501 -0.00000000000E+00 -0.00000000000E+00 -0.18892699786E+02  0.18892699786E+02  0.00000000000E+00 0.  1.
         25    2    1    2    0    0 -0.30321204032E+02 -0.15070067893E+02  0.39452712815E+03  0.41526530430E+03  0.12508851167E+03 0.  0.
         23    2    1    2    0    0  0.30321204032E+02  0.15070067893E+02  0.27932972031E+03  0.29637694373E+03  0.93100578762E+02 0.  0.
          5    1    3    3  502    0  0.59111393713E+01 -0.66169378198E+02  0.21577893669E+03  0.22581264379E+03  0.41800000000E+01 0. -1.
         -5    1    3    3    0  502 -0.36232343404E+02  0.51099310305E+02  0.17874819146E+03  0.18945266051E+03  0.41800000000E+01 0. -1.
        -11    1    4    4    0    0  0.31977231809E+02  0.50930566725E+02  0.20806017088E+03  0.21657677781E+03  0.00000000000E+00 0. -1.
         11    1    4    4    0    0 -0.16560277765E+01 -0.35860498832E+02  0.71269549430E+02  0.79800165917E+02  0.00000000000E+00 0.  1.
</event>
<event>
 8    1  0.6840084E-009  0.1330279E+03  0.7561462E-02  0.1223031E+00
         -1   -1    0    0    0  501 -0.00000000000E+00  0.00000000000E+00  0.11160700244E+03  0.11160700244E+03  0.00000000000E+00 0.  1.
          1   -1    0    0  501    0  0.00000000000E+00 -0.00000000000E+00 -0.19291734780E+03  0.19291734780E+03  0.00000000000E+00 0. -1.
         25    2    1    2    0    0  0.71735061766E+02 -0.61772590674E+02 -0.24787577414E+02  0.15881973222E+03  0.12509001280E+03 0.  0.
         23    2    1    2    0    0 -0.71735061766E+02  0.61772590674E+02 -0.56522767946E+02  0.14570461802E+03  0.95253558315E+02 0.  0.
          5    1    3    3  502    0  0.11832744485E+01  0.27046610411E+02  0.22897674874E+02  0.35702873663E+02  0.41800000000E+01 0.  1.
         -5    1    3    3    0  502  0.70551787318E+02 -0.88819201085E+02 -0.47685252289E+02  0.12311685856E+03  0.41800000000E+01 0.  1.
        -11    1    4    4    0    0 -0.53055145771E+02 -0.73420821978E+01 -0.50901246419E+02  0.73889725611E+02  0.00000000000E+00 0. -1.
         11    1    4    4    0    0 -0.18679915995E+02  0.69114672872E+02 -0.56215215261E+01  0.71814892411E+02  0.00000000000E+00 0.  1.
</event>
<event>
 8    1  0.6840084E-009  0.2107310E+03  0.7561462E-02  0.1140988E+00
         -2   -1    0    0    0  501 -0.00000000000E+00  0.00000000000E+00  0.17198293069E+03  0.17198293069E+03  0.00000000000E+00 0.  1.
          2   -1    0    0  501    0  0.00000000000E+00 -0.00000000000E+00 -0.31167943579E+03  0.31167943579E+03  0.00000000000E+00 0. -1.
         25    2    1    2    0    0 -0.11877530033E+03  0.16214197207E+03 -0.10797326373E+03  0.26019853124E+03  0.12508980335E+03 0.  0.
         23    2    1    2    0    0  0.11877530033E+03 -0.16214197207E+03 -0.31723241374E+02  0.22346383524E+03  0.92369532551E+02 0.  0.
          5    1    3    3  502    0 -0.12033165792E+03  0.10189145999E+03 -0.28365050051E+02  0.16026111812E+03  0.41800000000E+01 0.  1.
         -5    1    3    3    0  502  0.15563575938E+01  0.60250512085E+02 -0.79608213681E+02  0.99937413119E+02  0.41800000000E+01 0.  1.
        -11    1    4    4    0    0  0.42968038881E+02 -0.84532176224E+02  0.28968131678E+02  0.99151872576E+02  0.00000000000E+00 0.  1.
         11    1    4    4    0    0  0.75807261444E+02 -0.77609795847E+02 -0.60691373052E+02  0.12431196267E+03  0.00000000000E+00 0. -1.
</event>
<event>
 8    1  0.6840084E-009  0.6558226E+02  0.7561462E-02  0.1375795E+00
         -1   -1    0    0    0  501 -0.00000000000E+00  0.00000000000E+00  0.18328063120E+03  0.18328063120E+03  0.00000000000E+00 0.  1.
          1   -1    0    0  501    0  0.00000000000E+00 -0.00000000000E+00 -0.80539586346E+02  0.80539586346E+02  0.00000000000E+00 0. -1.
         25    2    1    2    0    0  0.31746331556E+01  0.24122818642E+02  0.48363530538E+01  0.12753444096E+03  0.12509857971E+03 0.  0.
         23    2    1    2    0    0 -0.31746331556E+01 -0.24122818642E+02  0.97904691799E+02  0.13628577658E+03  0.91632393549E+02 0.  0.
          5    1    3    3  502    0  0.20854074347E+00 -0.27986308645E+02 -0.46353626844E+02  0.54308453139E+02  0.41800000000E+01 0. -1.
         -5    1    3    3    0  502  0.29660924122E+01  0.52109127287E+02  0.51189979897E+02  0.73225987823E+02  0.41800000000E+01 0. -1.
        -11    1    4    4    0    0  0.12169717168E+02 -0.31288105576E+02  0.11030218782E+03  0.11529796271E+03  0.00000000000E+00 0.  1.
         11    1    4    4    0    0 -0.15344350323E+02  0.71652869331E+01 -0.12397496021E+02  0.20987813875E+02  0.00000000000E+00 0. -1.
</event>
<event>
 8    1  0.6840084E-009  0.1238849E+03  0.7561462E-02  0.1236822E+00
          2   -1    0    0  501    0  0.00000000000E+00  0.00000000000E+00  0.10858802644E+04  0.10858802644E+04  0.00000000000E+00 0. -1.
         -2   -1    0    0    0  501 -0.00000000000E+00 -0.00000000000E+00 -0.14758089886E+02  0.14758089886E+02  0.00000000000E+00 0.  1.
         25    2    1    2    0    0  0.49122735361E+02 -0.30787112815E+02  0.49100145972E+03  0.50999096860E+03  0.12508982839E+03 0.  0.
         23    2    1    2    0    0 -0.49122735361E+02  0.30787112815E+02  0.58012071482E+03  0.59064738571E+03  0.94675239825E+02 0.  0.
          5    1    3    3  502    0  0.81855680235E+02 -0.52442621413E+02  0.31852314328E+03  0.33305411892E+03  0.41800000000E+01 0.  1.
         -5    1    3    3    0  502 -0.32732944873E+02  0.21655508599E+02  0.17247831644E+03  0.17693684968E+03  0.41800000000E+01 0.  1.
        -11    1    4    4    0    0  0.26624845242E+02  0.22383171008E+02  0.17676201719E+03  0.18015187884E+03  0.00000000000E+00 0.  1.
         11    1    4    4    0    0 -0.75747580603E+02  0.84039418065E+01  0.40335869763E+03  0.41049550687E+03  0.00000000000E+00 0. -1.
</event>
<event>
 8    1  0.6840084E-009  0.9918010E+02  0.7561462E-02  0.1282030E+00
         -1   -1    0    0    0  501 -0.00000000000E+00  0.00000000000E+00  0.44601990155E+03  0.44601990155E+03  0.00000000000E+00 0.  1.
          1   -1    0    0  501    0  0.00000000000E+00 -0.00000000000E+00 -0.72645454155E+02  0.72645454155E+02  0.00000000000E+00 0. -1.
         25    2    1    2    0    0  0.27041612909E+02 -0.25784990451E+02  0.39713249085E+03  0.41804007199E+03  0.12508865633E+03 0.  0.
         23    2    1    2    0    0 -0.27041612909E+02  0.25784990451E+02 -0.23758043457E+02  0.10062528371E+03  0.90359772750E+02 0.  0.
          5    1    3    3  502    0  0.70776747853E+02 -0.40697141016E+02  0.28978231452E+03  0.30109278891E+03  0.41800000000E+01 0.  1.
         -5    1    3    3    0  502 -0.43735134945E+02  0.14912150564E+02  0.10735017633E+03  0.11694728308E+03  0.41800000000E+01 0.  1.
        -11    1    4    4    0    0 -0.37446036392E+02  0.38551908633E+02  0.17240894401E+02  0.56442038770E+02  0.00000000000E+00 0.  1.
         11    1    4    4    0    0  0.10404423484E+02 -0.12766918182E+02 -0.40998937858E+02  0.44183244939E+02  0.00000000000E+00 0. -1.
</event>
<event>
 8    1  0.6840084E-009  0.7801669E+02  0.7561462E-02  0.1334776E+00
         -2   -1    0    0    0  501 -0.00000000000E+00  0.00000000000E+00  0.20644932189E+02  0.20644932189E+02  0.00000000000E+00 0.  1.
          2   -1    0    0  501    0  0.00000000000E+00 -0.00000000000E+00 -0.79180138286E+03  0.79180138286E+03  0.00000000000E+00 0. -1.
         25    2    1    2    0    0 -0.27808776283E+02  0.42253046829E+02 -0.56961927130E+03  0.58538168359E+03  0.12508778215E+03 0.  0.
         23    2    1    2    0    0  0.27808776283E+02 -0.42253046829E+02 -0.20153717938E+03  0.22706463147E+03  0.91555798211E+02 0.  0.
          5    1    3    3  502    0 -0.24927272991E+02  0.40170802695E+02 -0.57543319477E+03  0.57738712869E+03  0.41800000000E+01 0.  1.
         -5    1    3    3    0  502 -0.28815032926E+01  0.20822441339E+01  0.58139234764E+01  0.79945548999E+01  0.41800000000E+01 0.  1.
        -11    1    4    4    0    0 -0.42999308130E+01 -0.64103062801E+02 -0.10621858095E+03  0.12413733928E+03  0.00000000000E+00 0.  1.
         11    1    4    4    0    0  0.32108707096E+02  0.21850015972E+02 -0.95318598433E+02  0.10292729219E+03  0.00000000000E+00 0. -1.
</event>
<event>
 8    1  0.6840084E-009  0.9841450E+02  0.7561462E-02  0.1283666E+00
          4   -1    0    0  501    0  0.00000000000E+00  0.00000000000E+00  0.57015365351E+02  0.57015365351E+02  0.00000000000E+00 0.  1.
         -4   -1    0    0    0  501 -0.00000000000E+00 -0.00000000000E+00 -0.22926506660E+03  0.22926506660E+03  0.00000000000E+00 0. -1.
         25    2    1    2    0    0  0.10477219602E+02 -0.33083320561E+02 -0.11556047502E+03  0.17379949390E+03  0.12509101671E+03 0.  0.
         23    2    1    2    0    0 -0.10477219602E+02  0.33083320561E+02 -0.56689226226E+02  0.11248093805E+03  0.90741472463E+02 0.  0.
          5    1    3    3  502    0  0.14827879882E+02  0.44239704132E+02 -0.20555131218E+02  0.51156654141E+02  0.41800000000E+01 0. -1.
         -5    1    3    3    0  502 -0.43506602799E+01 -0.77323024694E+02 -0.95005343803E+02  0.12264283976E+03  0.41800000000E+01 0. -1.
        -11    1    4    4    0    0 -0.27523980516E+02 -0.73984770325E+01  0.12019536104E+02  0.30931799398E+02  0.00000000000E+00 0.  1.
         11    1    4    4    0    0  0.17046760914E+02  0.40481797594E+02 -0.68708762329E+02  0.81549138652E+02  0.00000000000E+00 0. -1.
</event>
<event>
 8    1  0.6840084E-009  0.1027024E+03  0.7561462E-02  0.1274714E+00
          3   -1    0    0  501    0  0.00000000000E+00  0.00000000000E+00  0.27754179608E+03  0.27754179608E+03  0.00000000000E+00 0. -1.
         -3   -1    0    0    0  501 -0.00000000000E+00 -0.00000000000E+00 -0.75106138390E+02  0.75106138390E+02  0.00000000000E+00 0.  1.
         25    2    1    2    0    0  0.49468159369E+01 -0.34033470657E+02  0.20130060706E+01  0.12974593242E+03  0.12508879515E+03 0.  0.
         23    2    1    2    0    0 -0.49468159369E+01  0.34033470657E+02  0.20042265162E+03  0.22290200205E+03  0.91286993176E+02 0.  0.
          5    1    3    3  502    0  0.15411173219E+02  0.46108850349E+02  0.25347614581E+00  0.48796178033E+02  0.41800000000E+01 0. -1.
         -5    1    3    3    0  502 -0.10464357282E+02 -0.80142321006E+02  0.17595299248E+01  0.80949754386E+02  0.41800000000E+01 0. -1.
        -11    1    4    4    0    0  0.15955257658E+02  0.47971744295E+02  0.18837218424E+03  0.19503829956E+03  0.00000000000E+00 0. -1.
         11    1    4    4    0    0 -0.20902073595E+02 -0.13938273638E+02  0.12050467374E+02  0.27863702492E+02  0.00000000000E+00 0.  1.
</event>
<event>
 8    1  0.6840084E-009  0.1153726E+03  0.7561462E-02  0.1250932E+00
          2   -1    0    0  501    0  0.00000000000E+00  0.00000000000E+00  0.15496294744E+03  0.15496294744E+03  0.00000000000E+00 0. -1.
         -2   -1    0    0    0  501 -0.00000000000E+00 -0.00000000000E+00 -0.11889476241E+03  0.11889476241E+03  0.00000000000E+00 0.  1.
         25    2    1    2    0    0 -0.75931150218E+02  0.19675347094E+02 -0.47402345179E+01  0.14772335090E+03  0.12508820776E+03 0.  0.
         23    2    1    2    0    0  0.75931150218E+02 -0.19675347094E+02  0.40808419551E+02  0.12613435894E+03  0.89954936177E+02 0.  0.
          5    1    3    3  502    0 -0.24228855576E+02 -0.36701297849E+02  0.39498275557E+02  0.59258829539E+02  0.41800000000E+01 0. -1.
         -5    1    3    3    0  502 -0.51702294642E+02  0.56376644943E+02 -0.44238510075E+02  0.88464521363E+02  0.41800000000E+01 0. -1.
        -11    1    4    4    0    0 -0.16116334736E+02 -0.21434639400E+01 -0.10451277537E+02  0.19327697357E+02  0.00000000000E+00 0.  1.
         11    1    4    4    0    0  0.92047484954E+02 -0.17531883154E+02  0.51259697088E+02  0.10680666158E+03  0.00000000000E+00 0. -1.
</event>
<event>
 8    1  0.6840084E-009  0.1584777E+03  0.7561462E-02  0.1190426E+00
         -1   -1    0    0    0  501 -0.00000000000E+00  0.00000000000E+00  0.75719488881E+02  0.75719488881E+02  0.00000000000E+00 0.  1.
          1   -1    0    0  501    0  0.00000000000E+00 -0.00000000000E+00 -0.39274602613E+03  0.39274602613E+03  0.00000000000E+00 0. -1.
         25    2    1    2    0    0  0.10772918838E+03 -0.44725206936E+02 -0.79211715873E+02  0.18848476080E+03  0.12508431939E+03 0.  0.
         23    2    1    2    0    0 -0.10772918838E+03  0.44725206936E+02 -0.23781482137E+03  0.27998075421E+03  0.90705078677E+02 0.  0.
          5    1    3    3  502    0 -0.16333198678E+02 -0.42712294568E+02 -0.30476532027E+02  0.55112656357E+02  0.41800000000E+01 0.  1.
         -5    1    3    3    0  502  0.12406238706E+03 -0.20129123678E+01 -0.48735183845E+02  0.13337210444E+03  0.41800000000E+01 0.  1.
        -11    1    4    4    0    0 -0.35917577489E+02 -0.27348656445E+02 -0.59586287780E+02  0.74756585485E+02  0.00000000000E+00 0.  1.
         11    1    4    4    0    0 -0.71811610893E+02  0.72073863381E+02 -0.17822853359E+03  0.20522416872E+03  0.00000000000E+00 0. -1.
</event>
<event>
 8    1  0.6840084E-009  0.2931287E+03  0.7561462E-02  0.1088727E+00
         -2   -1    0    0    0  501 -0.00000000000E+00  0.00000000000E+00  0.54753228916E+02  0.54753228916E+02  0.00000000000E+00 0.  1.
          2   -1    0    0  501    0  0.00000000000E+00 -0.00000000000E+00 -0.18367929536E+04  0.18367929536E+04  0.00000000000E+00 0. -1.
         25    2    1    2    0    0 -0.28502481366E+03  0.37533385633E+02 -0.67715869067E+03  0.74621634729E+03  0.12508814965E+03 0.  0.
         23    2    1    2    0    0  0.28502481366E+03 -0.37533385633E+02 -0.11048810340E+04  0.11453298352E+04  0.91490068727E+02 0.  0.
          5    1    3    3  502    0 -0.17407569701E+03  0.49390035192E+02 -0.27794685703E+03  0.33168305896E+03  0.41800000000E+01 0. -1.
         -5    1    3    3    0  502 -0.11094911665E+03 -0.11856649559E+02 -0.39921183363E+03  0.41453328834E+03  0.41800000000E+01 0. -1.
        -11    1    4    4    0    0  0.10425994129E+03  0.15062003784E+02 -0.53132368312E+03  0.54166581539E+03  0.00000000000E+00 0. -1.
         11    1    4    4    0    0  0.18076487237E+03 -0.52595389417E+02 -0.57355735085E+03  0.60366401979E+03  0.00000000000E+00 0.  1.
</event>
<event>
 8    1  0.6840084E-009  0.3473971E+03  0.7561462E-02  0.1063688E+00
          2   -1    0    0  501    0  0.00000000000E+00  0.00000000000E+00  0.54060772643E+03  0.54060772643E+03  0.00000000000E+00 0. -1.
         -2   -1    0    0    0  501 -0.00000000000E+00 -0.00000000000E+00 -0.23657217184E+03  0.23657217184E+03  0.00000000000E+00 0.  1.
         25    2    1    2    0    0  0.34077592205E+03  0.28838551076E+01  0.15274892802E+03  0.39384807358E+03  0.12509006509E+03 0.  0.
         23    2    1    2    0    0 -0.34077592205E+03 -0.28838551076E+01  0.15128662658E+03  0.38333182469E+03  0.88989318303E+02 0.  0.
          5    1    3    3  502    0  0.75837111811E+02  0.37561596043E+02 -0.25448744823E+01  0.84770807541E+02  0.41800000000E+01 0.  1.
         -5    1    3    3    0  502  0.26493881024E+03 -0.34677740935E+02  0.15529380250E+03  0.30907726604E+03  0.41800000000E+01 0.  1.
        -11    1    4    4    0    0 -0.14153968583E+02 -0.78209709131E+01  0.31488460131E+02  0.35398100713E+02  0.00000000000E+00 0. -1.
         11    1    4    4    0    0 -0.32662195346E+03  0.49371158054E+01  0.11979816645E+03  0.34793372398E+03  0.00000000000E+00 0.  1.
</event>
<event>
 8    1  0.6840084E-009  0.1176127E+03  0.7561462E-02  0.1247088E+00
          1   -1    0    0  501    0  0.00000000000E+00  0.00000000000E+00  0.13271851700E+03  0.13271851700E+03  0.00000000000E+00 0. -1.
         -1   -1    0    0    0  501 -0.00000000000E+00 -0.00000000000E+00 -0.12354555104E+03  0.12354555104E+03  0.00000000000E+00 0.  1.
         25    2    1    2    0    0 -0.36099562530E+01  0.33523708809E+02  0.52150636613E+02  0.13965209191E+03  0.12508455956E+03 0.  0.
         23    2    1    2    0    0  0.36099562530E+01 -0.33523708809E+02 -0.42977670652E+02  0.11661197612E+03  0.10302621979E+03 0.  0.
          5    1    3    3  502    0 -0.49130826968E+02 -0.24135562158E+02  0.13485585687E+02  0.56530495669E+02  0.41800000000E+01 0.  1.
         -5    1    3    3    0  502  0.45520870715E+02  0.57659270967E+02  0.38665050926E+02  0.83121596245E+02  0.41800000000E+01 0.  1.
        -11    1    4    4    0    0 -0.47477187107E+00 -0.70019973754E+02 -0.37654686095E+02  0.79504072334E+02  0.00000000000E+00 0. -1.
         11    1    4    4    0    0  0.40847281241E+01  0.36496264944E+02 -0.53229845570E+01  0.37107903785E+02  0.00000000000E+00 0.  1.
</event>
<event>
 8    1  0.6840084E-009  0.8902184E+02  0.7561462E-02  0.1305238E+00
          2   -1    0    0  501    0  0.00000000000E+00  0.00000000000E+00  0.88619669002E+02  0.88619669002E+02  0.00000000000E+00 0. -1.
         -2   -1    0    0    0  501 -0.00000000000E+00 -0.00000000000E+00 -0.17309096944E+03  0.17309096944E+03  0.00000000000E+00 0.  1.
         25    2    1    2    0    0  0.34255310775E+01  0.57377736410E+02 -0.65656614108E+02  0.15251782268E+03  0.12508779461E+03 0.  0.
         23    2    1    2    0    0 -0.34255310775E+01 -0.57377736410E+02 -0.18814686330E+02  0.10919281576E+03  0.90912813694E+02 0.  0.
          5    1    3    3  502    0  0.51132420222E+02  0.11745471516E+02  0.83150051913E+01  0.53283132511E+02  0.41800000000E+01 0.  1.
         -5    1    3    3    0  502 -0.47706889144E+02  0.45632264894E+02 -0.73971619300E+02  0.99234690169E+02  0.41800000000E+01 0.  1.
        -11    1    4    4    0    0 -0.81068101864E+01 -0.19791802896E+02 -0.53635642013E+02  0.57742687221E+02  0.00000000000E+00 0.  1.
         11    1    4    4    0    0  0.46812791088E+01 -0.37585933514E+02  0.34820955684E+02  0.51450128542E+02  0.00000000000E+00 0. -1.
</event>
<event>
 8    1  0.6840084E-009  0.1630462E+03  0.7561462E-02  0.1185300E+00
         -1   -1    0    0    0  501 -0.00000000000E+00  0.00000000000E+00  0.47018913356E+02  0.47018913356E+02  0.00000000000E+00 0.  1.
          1   -1    0    0  501    0  0.00000000000E+00 -0.00000000000E+00 -0.64858286122E+03  0.64858286122E+03  0.00000000000E+00 0. -1.
         25    2    1    2    0    0 -0.35468277698E+02 -0.11821424221E+03 -0.21390853159E+03  0.27683379977E+03  0.12508991575E+03 0.  0.
         23    2    1    2    0    0  0.35468277698E+02  0.11821424221E+03 -0.38765541627E+03  0.41876797481E+03  0.99283881762E+02 0.  0.
          5    1    3    3  502    0 -0.26971147640E+02  0.17211123444E+02 -0.79489637961E+02  0.85788930046E+02  0.41800000000E+01 0.  1.
         -5    1    3    3    0  502 -0.84971300586E+01 -0.13542536565E+03 -0.13441889363E+03  0.19104486972E+03  0.41800000000E+01 0.  1.
        -11    1    4    4    0    0  0.26866523530E+02 -0.10663361303E+02 -0.81827817608E+02  0.86783115266E+02  0.00000000000E+00 0. -1.
         11    1    4    4    0    0  0.86017541685E+01  0.12887760351E+03 -0.30582759867E+03  0.33198485955E+03  0.00000000000E+00 0.  1.
</event>
<event>
 8    1  0.6840084E-009  0.9617617E+02  0.7561462E-02  0.1288549E+00
          3   -1    0    0  501    0  0.00000000000E+00  0.00000000000E+00  0.27559175789E+02  0.27559175789E+02  0.00000000000E+00 0. -1.
         -3   -1    0    0    0  501 -0.00000000000E+00 -0.00000000000E+00 -0.89521903410E+03  0.89521903410E+03  0.00000000000E+00 0.  1.
         25    2    1    2    0    0 -0.46244102212E+02 -0.57373472565E+02 -0.72382919832E+03  0.73824567399E+03  0.12509090484E+03 0.  0.
         23    2    1    2    0    0  0.46244102212E+02  0.57373472565E+02 -0.14383065999E+03  0.18453253590E+03  0.89077301880E+02 0.  0.
          5    1    3    3  502    0 -0.56373852646E+02 -0.64179100030E+02 -0.24968813763E+03  0.26392916969E+03  0.41800000000E+01 0.  1.
         -5    1    3    3    0  502  0.10129750435E+02  0.68056274646E+01 -0.47414106070E+03  0.47431650430E+03  0.41800000000E+01 0.  1.
        -11    1    4    4    0    0  0.27314809549E+01 -0.11852277788E+02  0.62118604551E+01  0.13657404120E+02  0.00000000000E+00 0. -1.
         11    1    4    4    0    0  0.43512621257E+02  0.69225750354E+02 -0.15004252044E+03  0.17087513178E+03  0.00000000000E+00 0.  1.
</event>
<event>
 8    1  0.6840084E-009  0.2039343E+03  0.7561462E-02  0.1146461E+00
          2   -1    0    0  501    0  0.00000000000E+00  0.00000000000E+00  0.72229501299E+03  0.72229501299E+03  0.00000000000E+00 0. -1.
         -2   -1    0    0    0  501 -0.00000000000E+00 -0.00000000000E+00 -0.60430433192E+02  0.60430433192E+02  0.00000000000E+00 0.  1.
         25    2    1    2    0    0 -0.17730402804E+03 -0.19802806861E+02  0.35289622783E+03  0.41474341364E+03  0.12508989578E+03 0.  0.
         23    2    1    2    0    0  0.17730402804E+03  0.19802806861E+02  0.30896835197E+03  0.36798203254E+03  0.90113618471E+02 0.  0.
          5    1    3    3  502    0 -0.73128364030E+02 -0.63463854929E+02  0.10855021427E+03  0.14551989529E+03  0.41800000000E+01 0. -1.
         -5    1    3    3    0  502 -0.10417566401E+03  0.43661048068E+02  0.24434601356E+03  0.26922351835E+03  0.41800000000E+01 0. -1.
        -11    1    4    4    0    0  0.16298362378E+03  0.44872302058E+02  0.24347380016E+03  0.29640626930E+03  0.00000000000E+00 0.  1.
         11    1    4    4    0    0  0.14320404263E+02 -0.25069495197E+02  0.65494551801E+02  0.71575763240E+02  0.00000000000E+00 0. -1.
</event>
<event>
 8    1  0.6840084E-009  0.9992268E+02  0.7561462E-02  0.1280459E+00
         -1   -1    0    0    0  501 -0.00000000000E+00  0.00000000000E+00  0.21579145876E+02  0.21579145876E+02  0.00000000000E+00 0.  1.
          1   -1    0    0  501    0  0.00000000000E+00 -0.00000000000E+00 -0.58908508972E+03  0.58908508972E+03  0.00000000000E+00 0. -1.
         25    2    1    2    0    0 -0.30183374824E+02 -0.30643059722E+01 -0.35708052879E+03  0.37957184601E+03  0.12509139121E+03 0.  0.
         23    2    1    2    0    0  0.30183374824E+02  0.30643059722E+01 -0.21042541505E+03  0.23109238959E+03  0.90578204544E+02 0.  0.
          5    1    3    3  502    0 -0.34281601207E+02 -0.59021960704E+02 -0.14767527943E+03  0.16273991699E+03  0.41800000000E+01 0.  1.
         -5    1    3    3    0  502  0.40982263823E+01  0.55957654732E+02 -0.20940524936E+03  0.21683192902E+03  0.41800000000E+01 0.  1.
        -11    1    4    4    0    0  0.55154258330E+01  0.34670127335E+02 -0.17204502232E+03  0.17559022568E+03  0.00000000000E+00 0. -1.
         11    1    4    4    0    0  0.24667948991E+02 -0.31605821363E+02 -0.38380392733E+02  0.55502163902E+02  0.00000000000E+00 0.  1.
</event>
<event>
 8    1  0.6840084E-009  0.7852668E+02  0.7561462E-02  0.1333285E+00
         -2   -1    0    0    0  501 -0.00000000000E+00  0.00000000000E+00  0.52958107835E+02  0.52958107835E+02  0.00000000000E+00 0. -1.
          2   -1    0    0  501    0  0.00000000000E+00 -0.00000000000E+00 -0.30638126423E+03  0.30638126423E+03  0.00000000000E+00 0.  1.
         25    2    1    2    0    0 -0.52759680891E+02 -0.42618027561E+02 -0.14316422421E+03  0.20184992666E+03  0.12509003797E+03 0.  0.
         23    2    1    2    0    0  0.52759680891E+02  0.42618027561E+02 -0.11025893218E+03  0.15748944540E+03  0.89699571261E+02 0.  0.
          5    1    3    3  502    0 -0.48733686244E+02 -0.48182153946E+02 -0.16492815869E+03  0.17864843146E+03  0.41800000000E+01 0. -1.
         -5    1    3    3    0  502 -0.40259946473E+01  0.55641263857E+01  0.21763934485E+02  0.23201495202E+02  0.41800000000E+01 0. -1.
        -11    1    4    4    0    0  0.33877701617E+02  0.14933381710E+00 -0.10545687400E+03  0.11076494591E+03  0.00000000000E+00 0.  1.
         11    1    4    4    0    0  0.18881979274E+02  0.42468693743E+02 -0.48020581776E+01  0.46724499487E+02  0.00000000000E+00 0. -1.
</event>
<event>
 8    1  0.6840084E-009  0.1364849E+03  0.7561462E-02  0.1218139E+00
         -2   -1    0    0    0  501 -0.00000000000E+00  0.00000000000E+00  0.11091421033E+03  0.11091421033E+03  0.00000000000E+00 0.  1.
          2   -1    0    0  501    0  0.00000000000E+00 -0.00000000000E+00 -0.33027938014E+03  0.33027938014E+03  0.00000000000E+00 0. -1.
         25    2    1    2    0    0 -0.11847910877E+03 -0.42721257466E+01 -0.23522570102E+03  0.29160372770E+03  0.12508418490E+03 0.  0.
         23    2    1    2    0    0  0.11847910877E+03  0.42721257466E+01  0.15860531204E+02  0.14958986277E+03  0.89833291836E+02 0.  0.
          5    1    3    3  502    0 -0.52399648601E+02 -0.40114187127E+02 -0.29260038558E+02  0.72308322058E+02  0.41800000000E+01 0. -1.
         -5    1    3    3    0  502 -0.66079460166E+02  0.35842061380E+02 -0.20596566246E+03  0.21929540564E+03  0.41800000000E+01 0. -1.
        -11    1    4    4    0    0  0.58861956508E+02 -0.26399971523E+02  0.42710731925E+02  0.77368566239E+02  0.00000000000E+00 0.  1.
         11    1    4    4    0    0  0.59617152259E+02  0.30672097270E+02 -0.26850200721E+02  0.72221296535E+02  0.00000000000E+00 0. -1.
</event>
<event>
 8    1  0.6840084E-009  0.1456354E+03  0.7561462E-02  0.1205941E+00
         -2   -1    0    0    0  501 -0.00000000000E+00  0.00000000000E+00  0.24125253835E+03  0.24125253835E+03  0.00000000000E+00 0.  1.
          2   -1    0    0  501    0  0.00000000000E+00 -0.00000000000E+00 -0.13173078997E+03  0.13173078997E+03  0.00000000000E+00 0. -1.
         25    2    1    2    0    0  0.33573083811E+02 -0.94941319781E+02  0.16253013095E+03  0.22848498955E+03  0.12509332845E+03 0.  0.
         23    2    1    2    0    0 -0.33573083811E+02  0.94941319781E+02 -0.53008382580E+02  0.14449833877E+03  0.89044231288E+02 0.  0.
          5    1    3    3  502    0  0.68010188782E+02 -0.11823207824E+02  0.56024688849E+02  0.89002315599E+02  0.41800000000E+01 0.  1.
         -5    1    3    3    0  502 -0.34437104970E+02 -0.83118111957E+02  0.10650544211E+03  0.13948267395E+03  0.41800000000E+01 0.  1.
        -11    1    4    4    0    0  0.26376791648E+02  0.10278956122E+02 -0.69886922496E+00  0.28317494501E+02  0.00000000000E+00 0. -1.
         11    1    4    4    0    0 -0.59949875460E+02  0.84662363659E+02 -0.52309513355E+02  0.11618084427E+03  0.00000000000E+00 0.  1.
</event>
<event>
 8    1  0.6840084E-009  0.1043920E+03  0.7561462E-02  0.1271322E+00
          1   -1    0    0  501    0  0.00000000000E+00  0.00000000000E+00  0.34333039083E+03  0.34333039083E+03  0.00000000000E+00 0. -1.
         -1   -1    0    0    0  501 -0.00000000000E+00 -0.00000000000E+00 -0.55906563445E+02  0.55906563445E+02  0.00000000000E+00 0.  1.
         25    2    1    2    0    0 -0.65713094239E+01 -0.85625069068E+02  0.15273393713E+03  0.21529296547E+03  0.12509424794E+03 0.  0.
         23    2    1    2    0    0  0.65713094239E+01  0.85625069068E+02  0.13468989026E+03  0.18394398881E+03  0.91209593360E+02 0.  0.
          5    1    3    3  502    0  0.12024349893E+02 -0.53715748446E+02 -0.29025485163E+01  0.55279868029E+02  0.41800000000E+01 0.  1.
         -5    1    3    3    0  502 -0.18595659317E+02 -0.31909320622E+02  0.15563648564E+03  0.16001309744E+03  0.41800000000E+01 0.  1.
        -11    1    4    4    0    0 -0.31111485457E+02  0.68065809890E+02  0.51202463530E+02  0.90678394753E+02  0.00000000000E+00 0.  1.
         11    1    4    4    0    0  0.37682794881E+02  0.17559259178E+02  0.83487426730E+02  0.93265594058E+02  0.00000000000E+00 0. -1.
</event>
<event>
 8    1  0.6840084E-009  0.1123568E+03  0.7561462E-02  0.1256267E+00
         -1   -1    0    0    0  501 -0.00000000000E+00  0.00000000000E+00  0.26889776260E+03  0.26889776260E+03  0.00000000000E+00 0.  1.
          1   -1    0    0  501    0  0.00000000000E+00 -0.00000000000E+00 -0.74673689945E+02  0.74673689945E+02  0.00000000000E+00 0. -1.
         25    2    1    2    0    0 -0.64896389433E+02  0.36734661946E+02  0.42794320978E+02  0.15179017830E+03  0.12509167667E+03 0.  0.
         23    2    1    2    0    0  0.64896389433E+02 -0.36734661946E+02  0.15142975168E+03  0.19178127424E+03  0.91039061435E+02 0.  0.
          5    1    3    3  502    0  0.36100690989E+02  0.30416318700E+01 -0.12608623628E+01  0.36490732908E+02  0.41800000000E+01 0.  1.
         -5    1    3    3    0  502 -0.10099708042E+03  0.33693030076E+02  0.44055183341E+02  0.11529944540E+03  0.41800000000E+01 0.  1.
        -11    1    4    4    0    0  0.41846718871E+02 -0.45312993000E+01  0.14583248834E+03  0.15178535901E+03  0.00000000000E+00 0. -1.
         11    1    4    4    0    0  0.23049670561E+02 -0.32203362646E+02  0.55972633398E+01  0.39995915236E+02  0.00000000000E+00 0.  1.
</event>
<event>
 8    1  0.6840084E-009  0.2200402E+03  0.7561462E-02  0.1133853E+00
         -2   -1    0    0    0  501 -0.00000000000E+00  0.00000000000E+00  0.99789238051E+02  0.99789238051E+02  0.00000000000E+00 0.  1.
          2   -1    0    0  501    0  0.00000000000E+00 -0.00000000000E+00 -0.53984737422E+03  0.53984737422E+03  0.00000000000E+00 0. -1.
         25    2    1    2    0    0  0.19184042151E+03  0.59221672955E+02 -0.20287869794E+03  0.31163713188E+03  0.12509189428E+03 0.  0.
         23    2    1    2    0    0 -0.19184042151E+03 -0.59221672955E+02 -0.23717943824E+03  0.32799948040E+03  0.10497437471E+03 0.  0.
          5    1    3    3  502    0  0.14012958919E+03 -0.14089780256E+02 -0.89193757616E+02  0.16675677639E+03  0.41800000000E+01 0. -1.
         -5    1    3    3    0  502  0.51710832327E+02  0.73311453211E+02 -0.11368494032E+03  0.14488035549E+03  0.41800000000E+01 0. -1.
        -11    1    4    4    0    0 -0.10677748704E+03 -0.63443389337E+02 -0.19919601226E+03  0.23474570643E+03  0.00000000000E+00 0. -1.
         11    1    4    4    0    0 -0.85062934468E+02  0.42217163822E+01 -0.37983425980E+02  0.93253773965E+02  0.00000000000E+00 0.  1.
</event>
<event>
 8    1  0.6840084E-009  0.1587482E+03  0.7561462E-02  0.1190117E+00
         -2   -1    0    0    0  501 -0.00000000000E+00  0.00000000000E+00  0.57995361425E+02  0.57995361425E+02  0.00000000000E+00 0.  1.
          2   -1    0    0  501    0  0.00000000000E+00 -0.00000000000E+00 -0.95419848118E+03  0.95419848118E+03  0.00000000000E+00 0. -1.
         25    2    1    2    0    0 -0.14784782022E+03  0.13432926084E+02 -0.14841509393E+03  0.24436425853E+03  0.12508968501E+03 0.  0.
         23    2    1    2    0    0  0.14784782022E+03 -0.13432926084E+02 -0.74778802582E+03  0.76782958407E+03  0.91301244072E+02 0.  0.
          5    1    3    3  502    0 -0.33025751113E+02  0.14490052638E+02  0.19258779014E+02  0.41097868937E+02  0.41800000000E+01 0.  1.
         -5    1    3    3    0  502 -0.11482206910E+03 -0.10571265541E+01 -0.16767387295E+03  0.20326638959E+03  0.41800000000E+01 0.  1.
        -11    1    4    4    0    0  0.12584556101E+03 -0.39759567711E+02 -0.66902199590E+03  0.68191521427E+03  0.00000000000E+00 0. -1.
         11    1    4    4    0    0  0.22002259204E+02  0.26326641627E+02 -0.78766029918E+02  0.85914369802E+02  0.00000000000E+00 0.  1.
</event>
<event>
 8    1  0.6840084E-009  0.7924100E+02  0.7561462E-02  0.1331219E+00
          1   -1    0    0  501    0  0.00000000000E+00  0.00000000000E+00  0.78398745996E+02  0.78398745996E+02  0.00000000000E+00 0. -1.
         -1   -1    0    0    0  501 -0.00000000000E+00 -0.00000000000E+00 -0.19942529247E+03  0.19942529247E+03  0.00000000000E+00 0.  1.
         25    2    1    2    0    0  0.12391073817E+02  0.25884767991E+02 -0.12831012494E+03  0.18147969185E+03  0.12509128855E+03 0.  0.
         23    2    1    2    0    0 -0.12391073817E+02 -0.25884767991E+02  0.72835784626E+01  0.96344346610E+02  0.91682183025E+02 0.  0.
          5    1    3    3  502    0  0.32025441391E+02 -0.37031127936E+02 -0.16890549541E+02  0.51958602717E+02  0.41800000000E+01 0. -1.
         -5    1    3    3    0  502 -0.19634367574E+02  0.62915895927E+02 -0.11141957539E+03  0.12952108914E+03  0.41800000000E+01 0. -1.
        -11    1    4    4    0    0 -0.18807271078E+02 -0.24008198085E+01  0.46482661981E+02  0.50200749457E+02  0.00000000000E+00 0. -1.
         11    1    4    4    0    0  0.64161972615E+01 -0.23483948182E+02 -0.39199083519E+02  0.46143597153E+02  0.00000000000E+00 0.  1.
</event>
<event>
 8    1  0.6840084E-009  0.2338310E+03  0.7561462E-02  0.1123972E+00
         -1   -1    0    0    0  501 -0.00000000000E+00  0.00000000000E+00  0.30540418672E+03  0.30540418672E+03  0.00000000000E+00 0.  1.
          1   -1    0    0  501    0  0.00000000000E+00 -0.00000000000E+00 -0.20173489117E+03  0.20173489117E+03  0.00000000000E+00 0. -1.
         25    2    1    2    0    0 -0.79905722345E+02  0.20671684177E+03  0.30379412304E+02  0.25629403793E+03  0.12508776140E+03 0.  0.
         23    2    1    2    0    0  0.79905722345E+02 -0.20671684177E+03  0.73289883243E+02  0.25084503996E+03  0.91842528014E+02 0.  0.
          5    1    3    3  502    0 -0.48520457012E+02  0.15057192722E+02 -0.21352743740E+02  0.55266317650E+02  0.41800000000E+01 0. -1.
         -5    1    3    3    0  502 -0.31385265333E+02  0.19165964905E+03  0.51732156044E+02  0.20102772028E+03  0.41800000000E+01 0. -1.
        -11    1    4    4    0    0  0.75918724500E+02 -0.17909339221E+03  0.94047380456E+02  0.21606250400E+03  0.00000000000E+00 0.  1.
         11    1    4    4    0    0  0.39869978449E+01 -0.27623449559E+02 -0.20757497214E+02  0.34782535962E+02  0.00000000000E+00 0. -1.
</event>
<event>
 8    1  0.6840084E-009  0.9271260E+02  0.7561462E-02  0.1296413E+00
          2   -1    0    0  501    0  0.00000000000E+00  0.00000000000E+00  0.16303521270E+03  0.16303521270E+03  0.00000000000E+00 0. -1.
         -2   -1    0    0    0  501 -0.00000000000E+00 -0.00000000000E+00 -0.72193690997E+02  0.72193690997E+02  0.00000000000E+00 0.  1.
         25    2    1    2    0    0  0.67178782904E+01  0.10780366179E+02  0.43265739674E+02  0.13296419466E+03  0.12508479783E+03 0.  0.
         23    2    1    2    0    0 -0.67178782904E+01 -0.10780366179E+02  0.47575782030E+02  0.10226470904E+03  0.89628508273E+02 0.  0.
          5    1    3    3  502    0 -0.46547423484E+01  0.66792964329E+02  0.32929288220E+02  0.74731366459E+02  0.41800000000E+01 0. -1.
         -5    1    3    3    0  502  0.11372620639E+02 -0.56012598149E+02  0.10336451455E+02  0.58232828201E+02  0.41800000000E+01 0. -1.
        -11    1    4    4    0    0  0.16101928640E+02 -0.28098113085E+02 -0.13281207024E+02  0.35002378846E+02  0.00000000000E+00 0.  1.
         11    1    4    4    0    0 -0.22819806930E+02  0.17317746906E+02  0.60856989054E+02  0.67262330193E+02  0.00000000000E+00 0. -1.
</event>
<event>
 8    1  0.6840084E-009  0.1273370E+03  0.7561462E-02  0.1231461E+00
         -1   -1    0    0    0  501 -0.00000000000E+00  0.00000000000E+00  0.25690654113E+02  0.25690654113E+02  0.00000000000E+00 0.  1.
          1   -1    0    0  501    0  0.00000000000E+00 -0.00000000000E+00 -0.65140980038E+03  0.65140980038E+03  0.00000000000E+00 0. -1.
         25    2    1    2    0    0 -0.97526185951E+01  0.68280374253E+02 -0.37036389492E+03  0.39695813150E+03  0.12509604481E+03 0.  0.
         23    2    1    2    0    0  0.97526185951E+01 -0.68280374253E+02 -0.25535525135E+03  0.28014232300E+03  0.92282683444E+02 0.  0.
          5    1    3    3  502    0  0.54718663722E+02  0.48319160451E+02 -0.22618326189E+03  0.23770825351E+03  0.41800000000E+01 0.  1.
         -5    1    3    3    0  502 -0.64471282318E+02  0.19961213803E+02 -0.14418063303E+03  0.15924987799E+03  0.41800000000E+01 0.  1.
        -11    1    4    4    0    0 -0.39093304242E+02 -0.45650188206E+02 -0.11379716231E+03  0.12869351293E+03  0.00000000000E+00 0.  1.
         11    1    4    4    0    0  0.48845922837E+02 -0.22630186048E+02 -0.14155808904E+03  0.15144881007E+03  0.00000000000E+00 0. -1.
</event>
<event>
 8    1  0.6840084E-009  0.1654160E+03  0.7561462E-02  0.1182714E+00
          1   -1    0    0  501    0  0.00000000000E+00  0.00000000000E+00  0.68234039317E+02  0.68234039317E+02  0.00000000000E+00 0. -1.
         -1   -1    0    0    0  501 -0.00000000000E+00 -0.00000000000E+00 -0.55546311037E+03  0.55546311037E+03  0.00000000000E+00 0.  1.
         25    2    1    2    0    0 -0.11149474890E+03  0.68490738443E+02 -0.40697631962E+03  0.44542137736E+03  0.12509363852E+03 0.  0.
         23    2    1    2    0    0  0.11149474890E+03 -0.68490738443E+02 -0.80252751435E+02  0.17827577232E+03  0.90662487285E+02 0.  0.
          5    1    3    3  502    0 -0.12732849514E+02 -0.33094159396E+02 -0.12236648545E+03  0.12746912569E+03  0.41800000000E+01 0.  1.
         -5    1    3    3    0  502 -0.98761899384E+02  0.10158489784E+03 -0.28460983417E+03  0.31795225168E+03  0.41800000000E+01 0.  1.
        -11    1    4    4    0    0  0.11410441739E+03 -0.34375177794E+02 -0.40586685775E+02  0.12589181855E+03  0.00000000000E+00 0.  1.
         11    1    4    4    0    0 -0.26096684898E+01 -0.34115560650E+02 -0.39666065660E+02  0.52383953774E+02  0.00000000000E+00 0. -1.
</event>
<event>
 8    1  0.6840084E-009  0.9737035E+02  0.7561462E-02  0.1285925E+00
         -2   -1    0    0    0  501 -0.00000000000E+00  0.00000000000E+00  0.27546623285E+02  0.27546623285E+02  0.00000000000E+00 0. -1.
          2   -1    0    0  501    0  0.00000000000E+00 -0.00000000000E+00 -0.66394713453E+03  0.66394713453E+03  0.00000000000E+00 0.  1.
         25    2    1    2    0    0  0.79305311515E+00  0.52900455094E+02 -0.50061732032E+03  0.51871435235E+03  0.12509113017E+03 0.  0.
         23    2    1    2    0    0 -0.79305311515E+00 -0.52900455094E+02 -0.13578319092E+03  0.17277940546E+03  0.92825432573E+02 0.  0.
          5    1    3    3  502    0 -0.56253913052E+02  0.54542304993E+02 -0.30063749938E+03  0.31070845531E+03  0.41800000000E+01 0.  1.
         -5    1    3    3    0  502  0.57046966167E+02 -0.16418498992E+01 -0.19997982094E+03  0.20800589704E+03  0.41800000000E+01 0.  1.
        -11    1    4    4    0    0  0.12680219262E+02 -0.23230245091E+02 -0.13761993194E+03  0.14014163520E+03  0.00000000000E+00 0.  1.
         11    1    4    4    0    0 -0.13473272377E+02 -0.29670210003E+02  0.18367410237E+01  0.32637770263E+02  0.00000000000E+00 0. -1.
</event>
<event>
 8    1  0.6840084E-009  0.1149224E+03  0.7561462E-02  0.1251717E+00
          1   -1    0    0  501    0  0.00000000000E+00  0.00000000000E+00  0.21042749875E+03  0.21042749875E+03  0.00000000000E+00 0. -1.
         -1   -1    0    0    0  501 -0.00000000000E+00 -0.00000000000E+00 -0.83768188155E+02  0.83768188155E+02  0.00000000000E+00 0.  1.
         25    2    1    2    0    0  0.41339542782E+01  0.64273923259E+02  0.11313340807E+03  0.18054040597E+03  0.12508974129E+03 0.  0.
         23    2    1    2    0    0 -0.41339542782E+01 -0.64273923259E+02  0.13525902520E+02  0.11365528093E+03  0.92662538577E+02 0.  0.
          5    1    3    3  502    0 -0.37191968418E+02  0.67188363196E+02  0.21449352087E+02  0.79844008971E+02  0.41800000000E+01 0. -1.
         -5    1    3    3    0  502  0.41325922696E+02 -0.29144399366E+01  0.91684055986E+02  0.10069639700E+03  0.41800000000E+01 0. -1.
        -11    1    4    4    0    0  0.37975228830E+02 -0.45874978057E+01 -0.42246735382E+01  0.38483905822E+02  0.00000000000E+00 0.  1.
         11    1    4    4    0    0 -0.42109183108E+02 -0.59686425453E+02  0.17750576059E+02  0.75171375109E+02  0.00000000000E+00 0. -1.
</event>
<event>
 8    1  0.6840084E-009  0.1379373E+03  0.7561462E-02  0.1216132E+00
          1   -1    0    0  501    0  0.00000000000E+00  0.00000000000E+00  0.28489262354E+03  0.28489262354E+03  0.00000000000E+00 0. -1.
         -1   -1    0    0    0  501 -0.00000000000E+00 -0.00000000000E+00 -0.11671014186E+03  0.11671014186E+03  0.00000000000E+00 0.  1.
         25    2    1    2    0    0 -0.64519354698E+02  0.87913752863E+02 -0.19476335157E+02  0.16708784315E+03  0.12508974628E+03 0.  0.
         23    2    1    2    0    0  0.64519354698E+02 -0.87913752863E+02  0.18765881684E+03  0.23451492225E+03  0.88824783397E+02 0.  0.
          5    1    3    3  502    0 -0.36302377305E+02  0.11320395725E+03 -0.37764530382E+02  0.12480637279E+03  0.41800000000E+01 0.  1.
         -5    1    3    3    0  502 -0.28216977394E+02 -0.25290204384E+02  0.18288195224E+02  0.42281470358E+02  0.41800000000E+01 0.  1.
        -11    1    4    4    0    0  0.31526598208E+02 -0.82746966681E+01  0.55900731769E+01  0.33070317773E+02  0.00000000000E+00 0.  1.
         11    1    4    4    0    0  0.32992756490E+02 -0.79639056195E+02  0.18206874366E+03  0.20144460447E+03  0.00000000000E+00 0. -1.
</event>
<event>
 8    1  0.6840084E-009  0.1163416E+03  0.7561462E-02  0.1249257E+00
         -2   -1    0    0    0  501 -0.00000000000E+00  0.00000000000E+00  0.55835069445E+02  0.55835069445E+02  0.00000000000E+00 0.  1.
          2   -1    0    0  501    0  0.00000000000E+00 -0.00000000000E+00 -0.51806305663E+03  0.51806305663E+03  0.00000000000E+00 0. -1.
         25    2    1    2    0    0 -0.37234137582E+02  0.88881148925E+02 -0.97221506322E+02  0.18543489266E+03  0.12509132060E+03 0.  0.
         23    2    1    2    0    0  0.37234137582E+02 -0.88881148925E+02 -0.36500648086E+03  0.38846323341E+03  0.91584458315E+02 0.  0.
          5    1    3    3  502    0 -0.35464772251E+02  0.92004973239E+02 -0.11300059513E+02  0.99336946383E+02  0.41800000000E+01 0. -1.
         -5    1    3    3    0  502 -0.17693653306E+01 -0.31238243140E+01 -0.85921446809E+02  0.86097946281E+02  0.41800000000E+01 0. -1.
        -11    1    4    4    0    0  0.63156031894E+02 -0.45116852583E+02 -0.16911260302E+03  0.18607333837E+03  0.00000000000E+00 0.  1.
         11    1    4    4    0    0 -0.25921894312E+02 -0.43764296343E+02 -0.19589387784E+03  0.20238989504E+03  0.00000000000E+00 0. -1.
</event>
<event>
 8    1  0.6840084E-009  0.1318426E+03  0.7561462E-02  0.1224747E+00
         -1   -1    0    0    0  501 -0.00000000000E+00  0.00000000000E+00  0.29565017670E+03  0.29565017670E+03  0.00000000000E+00 0.  1.
          1   -1    0    0  501    0  0.00000000000E+00 -0.00000000000E+00 -0.83431534018E+02  0.83431534018E+02  0.00000000000E+00 0. -1.
         25    2    1    2    0    0 -0.76741720717E+02 -0.76746297422E+02  0.14810130624E+03  0.22217096262E+03  0.12508658543E+03 0.  0.
         23    2    1    2    0    0  0.76741720717E+02  0.76746297422E+02  0.64117336442E+02  0.15691074810E+03  0.93438023144E+02 0.  0.
          5    1    3    3  502    0 -0.14393123697E+01 -0.49167539223E+02  0.13110265088E+03  0.14008888607E+03  0.41800000000E+01 0.  1.
         -5    1    3    3    0  502 -0.75302408348E+02 -0.27578758199E+02  0.16998655361E+02  0.82082076551E+02  0.41800000000E+01 0.  1.
        -11    1    4    4    0    0  0.92100151969E+02  0.54606803541E+02  0.71769704644E+02  0.12890008336E+03  0.00000000000E+00 0.  1.
         11    1    4    4    0    0 -0.15358431252E+02  0.22139493881E+02 -0.76523682019E+01  0.28010664736E+02  0.00000000000E+00 0. -1.
</event>
<event>
 8    1  0.6840084E-009  0.1015326E+03  0.7561462E-02  0.1277106E+00
          1   -1    0    0  501    0  0.00000000000E+00  0.00000000000E+00  0.54367964229E+03  0.54367964229E+03  0.00000000000E+00 0. -1.
         -1   -1    0    0    0  501 -0.00000000000E+00 -0.00000000000E+00 -0.23586264385E+02  0.23586264385E+02  0.00000000000E+00 0.  1.
         25    2    1    2    0    0  0.16972251456E+02 -0.16216167027E+02  0.36750849578E+03  0.38891947128E+03  0.12507933194E+03 0.  0.
         23    2    1    2    0    0 -0.16972251456E+02  0.16216167027E+02  0.15258488212E+03  0.17834643539E+03  0.89298843060E+02 0.  0.
          5    1    3    3  502    0  0.70746339374E+02 -0.82432924515E+01  0.23622368499E+03  0.24676324312E+03  0.41800000000E+01 0.  1.
         -5    1    3    3    0  502 -0.53774087918E+02 -0.79728745759E+01  0.13128481079E+03  0.14215622816E+03  0.41800000000E+01 0.  1.
        -11    1    4    4    0    0 -0.33668106134E+02  0.37335148048E+02  0.13975834799E+03  0.14852558864E+03  0.00000000000E+00 0. -1.
         11    1    4    4    0    0  0.16695854678E+02 -0.21118981021E+02  0.12826534138E+02  0.29820846748E+02  0.00000000000E+00 0.  1.
</event>
<event>
 8    1  0.6840084E-009  0.1594348E+03  0.7561462E-02  0.1189336E+00
          1   -1    0    0  501    0  0.00000000000E+00  0.00000000000E+00  0.75996768410E+03  0.75996768410E+03  0.00000000000E+00 0. -1.
         -1   -1    0    0    0  501 -0.00000000000E+00 -0.00000000000E+00 -0.67495864178E+02  0.67495864178E+02  0.00000000000E+00 0.  1.
         25    2    1    2    0    0 -0.13905563514E+03  0.95458073173E+01  0.10063345684E+03  0.21260622011E+03  0.12508685019E+03 0.  0.
         23    2    1    2    0    0  0.13905563514E+03 -0.95458073173E+01  0.59183836308E+03  0.61485732817E+03  0.91374470684E+02 0.  0.
          5    1    3    3  502    0 -0.12414144266E+03  0.43913699987E+02  0.34022346181E+02  0.13606800973E+03  0.41800000000E+01 0.  1.
         -5    1    3    3    0  502 -0.14914192478E+02 -0.34367892670E+02  0.66611110662E+02  0.76538210376E+02  0.41800000000E+01 0.  1.
        -11    1    4    4    0    0  0.34487796690E+02 -0.26500330644E+02  0.70279520550E+02  0.82649178178E+02  0.00000000000E+00 0.  1.
         11    1    4    4    0    0  0.10456783845E+03  0.16954523327E+02  0.52155884253E+03  0.53220814999E+03  0.00000000000E+00 0. -1.
</event>
<event>
 8    1  0.6840084E-009  0.1299543E+03  0.7561462E-02  0.1227524E+00
         -1   -1    0    0    0  501 -0.00000000000E+00  0.00000000000E+00  0.33825118575E+02  0.33825118575E+02  0.00000000000E+00 0.  1.
          1   -1    0    0  501    0  0.00000000000E+00 -0.00000000000E+00 -0.61179742108E+03  0.61179742108E+03  0.00000000000E+00 0. -1.
         25    2    1    2    0    0 -0.92521204132E+02  0.24077135782E+01 -0.28860435851E+03  0.32788004964E+03  0.12508749299E+03 0.  0.
         23    2    1    2    0    0  0.92521204132E+02 -0.24077135782E+01 -0.28936794400E+03  0.31774249002E+03  0.93061875374E+02 0.  0.
          5    1    3    3  502    0  0.14080939320E+02 -0.26212637696E+02 -0.13728650319E+03  0.14053622873E+03  0.41800000000E+01 0. -1.
         -5    1    3    3    0  502 -0.10660214345E+03  0.28620351274E+02 -0.15131785531E+03  0.18734382091E+03  0.41800000000E+01 0. -1.
        -11    1    4    4    0    0 -0.81475941574E+01 -0.15870507414E+02 -0.99250976000E+01  0.20414795088E+02  0.00000000000E+00 0.  1.
         11    1    4    4    0    0  0.10066879829E+03  0.13462793836E+02 -0.27944284640E+03  0.29732769493E+03  0.00000000000E+00 0. -1.
</event>
<event>
 8    1  0.6840084E-009  0.8102718E+02  0.7561462E-02  0.1326161E+00
          2   -1    0    0  501    0  0.00000000000E+00  0.00000000000E+00  0.65510802976E+02  0.65510802976E+02  0.00000000000E+00 0. -1.
         -2   -1    0    0    0  501 -0.00000000000E+00 -0.00000000000E+00 -0.18015163650E+03  0.18015163650E+03  0.00000000000E+00 0.  1.
         25    2    1    2    0    0 -0.29136310315E+02 -0.16560170344E+02 -0.68736690092E+02  0.14661138535E+03  0.12508797676E+03 0.  0.
         23    2    1    2    0    0  0.29136310315E+02  0.16560170344E+02 -0.45904143433E+02  0.99051054125E+02  0.81121865846E+02 0.  0.
          5    1    3    3  502    0 -0.55840548328E+02  0.11142980505E+02  0.10846097563E+02  0.58115773112E+02  0.41800000000E+01 0.  1.
         -5    1    3    3    0  502  0.26704238013E+02 -0.27703150850E+02 -0.79582787655E+02  0.88495612241E+02  0.41800000000E+01 0.  1.
        -11    1    4    4    0    0  0.19302592413E+02  0.38025558043E+02 -0.58419660471E+02  0.72328347609E+02  0.00000000000E+00 0.  1.
         11    1    4    4    0    0  0.98337179018E+01 -0.21465387699E+02  0.12515517038E+02  0.26722706516E+02  0.00000000000E+00 0. -1.
</event>
<event>
 8    1  0.6840084E-009  0.7447503E+02  0.7561462E-02  0.1345504E+00
          1   -1    0    0  501    0  0.00000000000E+00  0.00000000000E+00  0.62383230744E+03  0.62383230744E+03  0.00000000000E+00 0. -1.
         -1   -1    0    0    0  501 -0.00000000000E+00 -0.00000000000E+00 -0.23918817477E+02  0.23918817477E+02  0.00000000000E+00 0.  1.
         25    2    1    2    0    0  0.44944682871E+02  0.34004349091E+02  0.40612623081E+03  0.42867549422E+03  0.12509134152E+03 0.  0.
         23    2    1    2    0    0 -0.44944682871E+02 -0.34004349091E+02  0.19378725916E+03  0.21907563070E+03  0.85230920901E+02 0.  0.
          5    1    3    3  502    0  0.61857750269E+02  0.39006972095E+02  0.40381284846E+03  0.41040250258E+03  0.41800000000E+01 0.  1.
         -5    1    3    3    0  502 -0.16913067399E+02 -0.50026230037E+01  0.23133823453E+01  0.18272991644E+02  0.41800000000E+01 0.  1.
        -11    1    4    4    0    0 -0.20014156708E+02 -0.80085258837E+01 -0.41553540995E+00  0.21560974590E+02  0.00000000000E+00 0.  1.
         11    1    4    4    0    0 -0.24930526162E+02 -0.25995823208E+02  0.19420279457E+03  0.19751465611E+03  0.00000000000E+00 0. -1.
</event>
<event>
 8    1  0.6840084E-009  0.1297084E+03  0.7561462E-02  0.1227889E+00
         -1   -1    0    0    0  501 -0.00000000000E+00  0.00000000000E+00  0.27540311560E+03  0.27540311560E+03  0.00000000000E+00 0.  1.
          1   -1    0    0  501    0  0.00000000000E+00 -0.00000000000E+00 -0.63108859811E+02  0.63108859811E+02  0.00000000000E+00 0. -1.
         25    2    1    2    0    0  0.73697890528E+02 -0.47346306087E+01  0.13657406441E+03  0.19939709221E+03  0.12511166819E+03 0.  0.
         23    2    1    2    0    0 -0.73697890528E+02  0.47346306087E+01  0.75720191379E+02  0.13911488320E+03  0.90363751306E+02 0.  0.
          5    1    3    3  502    0  0.46097474305E+02  0.59321603406E+02  0.75540211141E+02  0.10662000594E+03  0.41800000000E+01 0.  1.
         -5    1    3    3    0  502  0.27600416222E+02 -0.64056234014E+02  0.61033853271E+02  0.92777086270E+02  0.41800000000E+01 0.  1.
        -11    1    4    4    0    0 -0.81740813879E+02  0.30547562080E+02  0.69023981716E+02  0.11126106352E+03  0.00000000000E+00 0.  1.
         11    1    4    4    0    0  0.80429233512E+01 -0.25812931471E+02  0.66962096628E+01  0.27853819685E+02  0.00000000000E+00 0. -1.
</event>
<event>
 8    1  0.6840084E-009  0.1409849E+03  0.7561462E-02  0.1212010E+00
          1   -1    0    0  501    0  0.00000000000E+00  0.00000000000E+00  0.58879663337E+03  0.58879663337E+03  0.00000000000E+00 0. -1.
         -1   -1    0    0    0  501 -0.00000000000E+00 -0.00000000000E+00 -0.43550970054E+02  0.43550970054E+02  0.00000000000E+00 0.  1.
         25    2    1    2    0    0  0.12026328158E+02  0.90157489522E+02  0.43984786354E+03  0.46624734190E+03  0.12508970896E+03 0.  0.
         23    2    1    2    0    0 -0.12026328158E+02 -0.90157489522E+02  0.10539779978E+03  0.16610026152E+03  0.90595779115E+02 0.  0.
          5    1    3    3  502    0  0.18544222021E+02 -0.29289553955E+02  0.10421273630E+03  0.10990692858E+03  0.41800000000E+01 0. -1.
         -5    1    3    3    0  502 -0.65178938635E+01  0.11944704348E+03  0.33563512723E+03  0.35634041333E+03  0.41800000000E+01 0. -1.
        -11    1    4    4    0    0 -0.34222644584E+02 -0.98007672544E+02  0.93549763116E+02  0.13974352027E+03  0.00000000000E+00 0.  1.
         11    1    4    4    0    0  0.22196316426E+02  0.78501830213E+01  0.11848036661E+02  0.26356741245E+02  0.00000000000E+00 0. -1.
</event>
<event>
 8    1  0.6840084E-009  0.1089095E+03  0.7561462E-02  0.1262603E+00
         -2   -1    0    0    0  501 -0.00000000000E+00  0.00000000000E+00  0.25540071157E+02  0.25540071157E+02  0.00000000000E+00 0.  1.
          2   -1    0    0  501    0  0.00000000000E+00 -0.00000000000E+00 -0.67676721531E+03  0.67676721531E+03  0.00000000000E+00 0. -1.
         25    2    1    2    0    0  0.69494826364E+02 -0.51700501197E+01 -0.42246137415E+03  0.44606994417E+03  0.12509405314E+03 0.  0.
         23    2    1    2    0    0 -0.69494826364E+02  0.51700501197E+01 -0.22876577000E+03  0.25623734230E+03  0.92019224914E+02 0.  0.
          5    1    3    3  502    0 -0.11429506468E+02 -0.45430173557E+02 -0.90414652329E+02  0.10191573011E+03  0.41800000000E+01 0.  1.
         -5    1    3    3    0  502  0.80924332832E+02  0.40260123438E+02 -0.33204672182E+03  0.34415421406E+03  0.41800000000E+01 0.  1.
        -11    1    4    4    0    0 -0.63302780589E+02 -0.98439872699E+01 -0.23111303965E+03  0.23982781993E+03  0.00000000000E+00 0. -1.
         11    1    4    4    0    0 -0.61920457747E+01  0.15014037390E+02  0.23472696470E+01  0.16409522370E+02  0.00000000000E+00 0.  1.
</event>
<event>
 8    1  0.6840084E-009  0.1637215E+03  0.7561462E-02  0.1184558E+00
          2   -1    0    0  501    0  0.00000000000E+00  0.00000000000E+00  0.40638467642E+03  0.40638467642E+03  0.00000000000E+00 0. -1.
         -2   -1    0    0    0  501 -0.00000000000E+00 -0.00000000000E+00 -0.87360481358E+02  0.87360481358E+02  0.00000000000E+00 0.  1.
         25    2    1    2    0    0 -0.51715071466E+02 -0.11318389755E+03  0.49464878008E+02  0.18324836202E+03  0.12509254471E+03 0.  0.
         23    2    1    2    0    0  0.51715071466E+02  0.11318389755E+03  0.26955931705E+03  0.31049679576E+03  0.90889996620E+02 0.  0.
          5    1    3    3  502    0 -0.41117515543E+02 -0.14048093561E+03  0.36266524956E+02  0.15085846542E+03  0.41800000000E+01 0. -1.
         -5    1    3    3    0  502 -0.10597555923E+02  0.27297038060E+02  0.13198353052E+02  0.32389896599E+02  0.41800000000E+01 0. -1.
        -11    1    4    4    0    0  0.40240745051E+02  0.26778773270E+01  0.99501902138E+02  0.10736441272E+03  0.00000000000E+00 0. -1.
         11    1    4    4    0    0  0.11474326415E+02  0.11050602023E+03  0.17005741492E+03  0.20313238304E+03  0.00000000000E+00 0.  1.
</event>
<event>
 8    1  0.6840084E-009  0.3417246E+03  0.7561462E-02  0.1066064E+00
          4   -1    0    0  501    0  0.00000000000E+00  0.00000000000E+00  0.15986025681E+03  0.15986025681E+03  0.00000000000E+00 0. -1.
         -4   -1    0    0    0  501 -0.00000000000E+00 -0.00000000000E+00 -0.81254365286E+03  0.81254365286E+03  0.00000000000E+00 0.  1.
         25    2    1    2    0    0 -0.27665970661E+03 -0.17703980423E+03 -0.47585414602E+03  0.59158122392E+03  0.12508993031E+03 0.  0.
         23    2    1    2    0    0  0.27665970661E+03  0.17703980423E+03 -0.17682925003E+03  0.38082268576E+03  0.76639733666E+02 0.  0.
          5    1    3    3  502    0 -0.24586906148E+03 -0.10225739426E+03 -0.32330218728E+03  0.41886745729E+03  0.41800000000E+01 0.  1.
         -5    1    3    3    0  502 -0.30790645131E+02 -0.74782409969E+02 -0.15255195875E+03  0.17271376664E+03  0.41800000000E+01 0.  1.
        -11    1    4    4    0    0  0.27050576731E+03  0.15183721467E+03 -0.15429998055E+03  0.34646268761E+03  0.00000000000E+00 0.  1.
         11    1    4    4    0    0  0.61539393002E+01  0.25202589562E+02 -0.22529269475E+02  0.34359998146E+02  0.00000000000E+00 0. -1.
</event>
<event>
 8    1  0.6840084E-009  0.1083727E+03  0.7561462E-02  0.1263613E+00
          2   -1    0    0  501    0  0.00000000000E+00  0.00000000000E+00  0.54736704043E+02  0.54736704043E+02  0.00000000000E+00 0. -1.
         -2   -1    0    0    0  501 -0.00000000000E+00 -0.00000000000E+00 -0.28499318318E+03  0.28499318318E+03  0.00000000000E+00 0.  1.
         25    2    1    2    0    0  0.57818333937E+02 -0.54293847538E+00 -0.15936733860E+03  0.21069274609E+03  0.12510087979E+03 0.  0.
         23    2    1    2    0    0 -0.57818333937E+02  0.54293847538E+00 -0.70889140538E+02  0.12903714113E+03  0.91005818622E+02 0.  0.
          5    1    3    3  502    0  0.84781019222E+01 -0.42811053822E+02 -0.62193512831E+01  0.44281116426E+02  0.41800000000E+01 0. -1.
         -5    1    3    3    0  502  0.49340232015E+02  0.42268115346E+02 -0.15314798731E+03  0.16641162967E+03  0.41800000000E+01 0. -1.
        -11    1    4    4    0    0 -0.61140566394E+02 -0.36102241405E+02 -0.45466818239E+02  0.84313535415E+02  0.00000000000E+00 0. -1.
         11    1    4    4    0    0  0.33222324566E+01  0.36645179880E+02 -0.25422322299E+02  0.44723605714E+02  0.00000000000E+00 0.  1.
</event>
<event>
 8    1  0.6840084E-009  0.5183380E+02  0.7561462E-02  0.1435694E+00
         -4   -1    0    0    0  501 -0.00000000000E+00  0.00000000000E+00  0.10639309719E+03  0.10639309719E+03  0.00000000000E+00 0.  1.
          4   -1    0    0  501    0  0.00000000000E+00 -0.00000000000E+00 -0.11514246734E+03  0.11514246734E+03  0.00000000000E+00 0. -1.
         25    2    1    2    0    0  0.18304467558E+02 -0.69890422185E+01  0.99648264472E+01  0.12700801501E+03  0.12509131811E+03 0.  0.
         23    2    1    2    0    0 -0.18304467558E+02  0.69890422185E+01 -0.18714196593E+02  0.94527549519E+02  0.90561229123E+02 0.  0.
          5    1    3    3  502    0  0.27638317013E+02  0.12688478213E+02 -0.52448653815E+02  0.60771767571E+02  0.41800000000E+01 0. -1.
         -5    1    3    3    0  502 -0.93338494542E+01 -0.19677520432E+02  0.62413480263E+02  0.66236247436E+02  0.41800000000E+01 0. -1.
        -11    1    4    4    0    0  0.13508549711E+02 -0.79211070408E+01  0.30367287854E+02  0.34167192212E+02  0.00000000000E+00 0.  1.
         11    1    4    4    0    0 -0.31813017269E+02  0.14910149259E+02 -0.49081484447E+02  0.60360357307E+02  0.00000000000E+00 0. -1.
</event>
<event>
 8    1  0.6840084E-009  0.1266040E+03  0.7561462E-02  0.1232584E+00
          2   -1    0    0  501    0  0.00000000000E+00  0.00000000000E+00  0.61031989784E+03  0.61031989784E+03  0.00000000000E+00 0. -1.
         -2   -1    0    0    0  501 -0.00000000000E+00 -0.00000000000E+00 -0.36800830315E+02  0.36800830315E+02  0.00000000000E+00 0.  1.
         25    2    1    2    0    0 -0.27349860419E+02  0.60542098124E+02  0.44509099183E+03  0.46708243490E+03  0.12508656795E+03 0.  0.
         23    2    1    2    0    0  0.27349860419E+02 -0.60542098124E+02  0.12842807570E+03  0.18003829325E+03  0.10726908174E+03 0.  0.
          5    1    3    3  502    0  0.69773629468E+00  0.93249242854E+02  0.24089033949E+03  0.25834383327E+03  0.41800000000E+01 0.  1.
         -5    1    3    3    0  502 -0.28047596713E+02 -0.32707144730E+02  0.20420065234E+03  0.20873860164E+03  0.41800000000E+01 0.  1.
        -11    1    4    4    0    0  0.50589294037E+02  0.11995322590E+01  0.22802659379E+02  0.55503845124E+02  0.00000000000E+00 0.  1.
         11    1    4    4    0    0 -0.23239433618E+02 -0.61741630383E+02  0.10562541632E+03  0.12453444812E+03  0.00000000000E+00 0. -1.
</event>
<event>
 8    1  0.6840084E-009  0.1017442E+03  0.7561462E-02  0.1276670E+00
          4   -1    0    0  501    0  0.00000000000E+00  0.00000000000E+00  0.68197468422E+03  0.68197468422E+03  0.00000000000E+00 0. -1.
         -4   -1    0    0    0  501 -0.00000000000E+00 -0.00000000000E+00 -0.31953848742E+02  0.31953848742E+02  0.00000000000E+00 0.  1.
         25    2    1    2    0    0 -0.22312293245E+02 -0.90651254498E+02  0.44063859917E+03  0.46746726646E+03  0.12509109385E+03 0.  0.
         23    2    1    2    0    0  0.22312293245E+02  0.90651254498E+02  0.20938223631E+03  0.24646126650E+03  0.90480642308E+02 0.  0.
          5    1    3    3  502    0 -0.28518620920E+02 -0.76209197386E+02  0.44352576561E+03  0.45094759192E+03  0.41800000000E+01 0. -1.
         -5    1    3    3    0  502  0.62063276749E+01 -0.14442057112E+02 -0.28871664325E+01  0.16519674538E+02  0.41800000000E+01 0. -1.
        -11    1    4    4    0    0  0.24993582494E+02  0.13232940316E+02  0.61159316220E+01  0.28934313451E+02  0.00000000000E+00 0.  1.
         11    1    4    4    0    0 -0.26812892495E+01  0.77418314183E+02  0.20326630468E+03  0.21752695305E+03  0.00000000000E+00 0. -1.
</event>
<event>
 8    1  0.6840084E-009  0.1125134E+03  0.7561462E-02  0.1255985E+00
         -1   -1    0    0    0  501 -0.00000000000E+00  0.00000000000E+00  0.51595510334E+02  0.51595510334E+02  0.00000000000E+00 0.  1.
          1   -1    0    0  501    0  0.00000000000E+00 -0.00000000000E+00 -0.45982879413E+03  0.45982879413E+03  0.00000000000E+00 0. -1.
         25    2    1    2    0    0  0.90047933843E+02 -0.28566441815E+02 -0.12840546916E+03  0.20263266698E+03  0.12508941294E+03 0.  0.
         23    2    1    2    0    0 -0.90047933843E+02  0.28566441815E+02 -0.27982781463E+03  0.30879163748E+03  0.90133221110E+02 0.  0.
          5    1    3    3  502    0  0.16752386172E+02 -0.73909406254E+01  0.24990029314E+02  0.31260876681E+02  0.41800000000E+01 0.  1.
         -5    1    3    3    0  502  0.73295547670E+02 -0.21175501190E+02 -0.15339549847E+03  0.17137179030E+03  0.41800000000E+01 0.  1.
        -11    1    4    4    0    0  0.15289032459E+02 -0.93072816651E+01 -0.51040844200E+02  0.54088333143E+02  0.00000000000E+00 0. -1.
         11    1    4    4    0    0 -0.10533696630E+03  0.37873723480E+02 -0.22878697043E+03  0.25470330434E+03  0.00000000000E+00 0.  1.
</event>
<event>
 8    1  0.6840084E-009  0.1659336E+03  0.7561462E-02  0.1182156E+00
          2   -1    0    0  501    0  0.00000000000E+00  0.00000000000E+00  0.12087463702E+04  0.12087463702E+04  0.00000000000E+00 0. -1.
         -2   -1    0    0    0  501 -0.00000000000E+00 -0.00000000000E+00 -0.31552187071E+02  0.31552187071E+02  0.00000000000E+00 0.  1.
         25    2    1    2    0    0  0.11179361498E+03 -0.72642214588E+02  0.90570450182E+03  0.92396872872E+03  0.12507143302E+03 0.  0.
         23    2    1    2    0    0 -0.11179361498E+03  0.72642214588E+02  0.27148968136E+03  0.31632982860E+03  0.92645613404E+02 0.  0.
          5    1    3    3  502    0  0.13179792945E+03 -0.42459657377E+02  0.80582337040E+03  0.81764435630E+03  0.41800000000E+01 0.  1.
         -5    1    3    3    0  502 -0.20004314473E+02 -0.30182557212E+02  0.99881131418E+02  0.10632437242E+03  0.41800000000E+01 0.  1.
        -11    1    4    4    0    0 -0.70182918962E+02  0.87974590129E+02  0.22777469811E+03  0.25406000024E+03  0.00000000000E+00 0. -1.
         11    1    4    4    0    0 -0.41610696019E+02 -0.15332375541E+02  0.43714983252E+02  0.62269828357E+02  0.00000000000E+00 0.  1.
</event>
<event>
 8    1  0.6840084E-009  0.8279732E+02  0.7561462E-02  0.1321295E+00
         -1   -1    0    0    0  501 -0.00000000000E+00  0.00000000000E+00  0.33555452404E+02  0.33555452404E+02  0.00000000000E+00 0.  1.
          1   -1    0    0  501    0  0.00000000000E+00 -0.00000000000E+00 -0.41254783204E+03  0.41254783204E+03  0.00000000000E+00 0. -1.
         25    2    1    2    0    0 -0.28576402718E+02 -0.71214971240E+01 -0.14948610560E+03  0.19713065651E+03  0.12508826265E+03 0.  0.
         23    2    1    2    0    0  0.28576402718E+02  0.71214971240E+01 -0.22950627403E+03  0.24897262793E+03  0.91907089641E+02 0.  0.
          5    1    3    3  502    0  0.52642517784E+01  0.23856667984E+02 -0.14901243741E+03  0.15105969633E+03  0.41800000000E+01 0.  1.
         -5    1    3    3    0  502 -0.33840654497E+02 -0.30978165108E+02 -0.47366819875E+00  0.46070960179E+02  0.41800000000E+01 0.  1.
        -11    1    4    4    0    0  0.24279480558E+02 -0.40341033084E+02 -0.13781484559E+03  0.14563592892E+03  0.00000000000E+00 0.  1.
         11    1    4    4    0    0  0.42969221605E+01  0.47462530208E+02 -0.91691428439E+02  0.10333669901E+03  0.00000000000E+00 0. -1.
</event>
<event>
 8    1  0.6840084E-009  0.1163486E+03  0.7561462E-02  0.1249245E+00
          1   -1    0    0  501    0  0.00000000000E+00  0.00000000000E+00  0.90531032926E+02  0.90531032926E+02  0.00000000000E+00 0. -1.
         -1   -1    0    0    0  501 -0.00000000000E+00 -0.00000000000E+00 -0.19319811075E+03  0.19319811075E+03  0.00000000000E+00 0.  1.
         25    2    1    2    0    0 -0.55705417065E+02  0.42809423808E+02 -0.27767354380E+01  0.14349615421E+03  0.12509075008E+03 0.  0.
         23    2    1    2    0    0  0.55705417065E+02 -0.42809423808E+02 -0.99890342384E+02  0.14023298947E+03  0.68930911613E+02 0.  0.
          5    1    3    3  502    0  0.32028586692E+02  0.32531647425E+02 -0.25133633615E+02  0.52281071033E+02  0.41800000000E+01 0. -1.
         -5    1    3    3    0  502 -0.87734003757E+02  0.10277776383E+02  0.22356898177E+02  0.91215083176E+02  0.41800000000E+01 0. -1.
        -11    1    4    4    0    0 -0.15266499010E+02  0.50668056931E+00 -0.15144089784E+02  0.21509676256E+02  0.00000000000E+00 0. -1.
         11    1    4    4    0    0  0.70971916076E+02 -0.43316104377E+02 -0.84746252600E+02  0.11872331321E+03  0.00000000000E+00 0.  1.
</event>
<event>
 7    1  0.6840084E-009  0.1250710E+03  0.7561462E-02  0.1234958E+00
          1   -1    0    0  501    0  0.00000000000E+00  0.00000000000E+00  0.15649888198E+04  0.15649888198E+04  0.00000000000E+00 0. -1.
         -1   -1    0    0    0  501 -0.00000000000E+00 -0.00000000000E+00 -0.11607396019E+02  0.11607396019E+02  0.00000000000E+00 0.  1.
         23    2    1    2    0    0 -0.58916570351E+02  0.49956075151E+02  0.54714321242E+03  0.55969022782E+03  0.88998227576E+02 0.  0.
          5    1    1    2  502    0  0.73304335542E+02  0.87035789461E+01  0.74893961216E+03  0.75258042292E+03  0.41800000000E+01 0. -1.
         -5    1    1    2    0  502 -0.14387765191E+02 -0.58659654097E+02  0.25729859918E+03  0.26432556506E+03  0.41800000000E+01 0. -1.
        -11    1    3    3    0    0  0.47185836745E+01  0.51785646474E+02  0.19364543615E+03  0.20050579332E+03  0.00000000000E+00 0. -1.
         11    1    3    3    0    0 -0.63635154026E+02 -0.18295713227E+01  0.35349777627E+03  0.35918443450E+03  0.00000000000E+00 0.  1.
</event>
<event>
 8    1  0.6840084E-009  0.1224121E+03  0.7561462E-02  0.1239170E+00
          1   -1    0    0  501    0  0.00000000000E+00  0.00000000000E+00  0.89481859427E+02  0.89481859427E+02  0.00000000000E+00 0. -1.
         -1   -1    0    0    0  501 -0.00000000000E+00 -0.00000000000E+00 -0.20280763887E+03  0.20280763887E+03  0.00000000000E+00 0.  1.
         25    2    1    2    0    0 -0.60696742535E+02  0.10361059148E+02 -0.11476876685E+03  0.18058990427E+03  0.12509755226E+03 0.  0.
         23    2    1    2    0    0  0.60696742535E+02 -0.10361059148E+02  0.14429874020E+01  0.11169959402E+03  0.93184070479E+02 0.  0.
          5    1    3    3  502    0  0.34517995785E+02 -0.11624743591E+02 -0.54562907463E+02  0.65735910790E+02  0.41800000000E+01 0. -1.
         -5    1    3    3    0  502 -0.95214738320E+02  0.21985802738E+02 -0.60205859383E+02  0.11485399348E+03  0.41800000000E+01 0. -1.
        -11    1    4    4    0    0 -0.71375985844E+01 -0.36846396415E+02 -0.76793618379E+01  0.38308939434E+02  0.00000000000E+00 0.  1.
         11    1    4    4    0    0  0.67834341120E+02  0.26485337267E+02  0.91223492399E+01  0.73390654589E+02  0.00000000000E+00 0. -1.
</event>
<event>
 8    1  0.6840084E-009  0.3392405E+03  0.7561462E-02  0.1067120E+00
         -2   -1    0    0    0  501 -0.00000000000E+00  0.00000000000E+00  0.10693120782E+03  0.10693120782E+03  0.00000000000E+00 0.  1.
          2   -1    0    0  501    0  0.00000000000E+00 -0.00000000000E+00 -0.13939923011E+04  0.13939923011E+04  0.00000000000E+00 0. -1.
         25    2    1    2    0    0 -0.18843378596E+03  0.26415974479E+03 -0.99996746432E+03  0.10587107692E+04  0.12508357448E+03 0.  0.
         23    2    1    2    0    0  0.18843378596E+03 -0.26415974479E+03 -0.28709362900E+03  0.44221273978E+03  0.88553333958E+02 0.  0.
          5    1    3    3  502    0 -0.76554203440E+02  0.29505305081E+02 -0.32979665398E+03  0.33987411562E+03  0.41800000000E+01 0. -1.
         -5    1    3    3    0  502 -0.11187958252E+03  0.23465443970E+03 -0.67017081034E+03  0.71883665355E+03  0.41800000000E+01 0. -1.
        -11    1    4    4    0    0  0.18586599352E+03 -0.20343459956E+03 -0.23386890583E+03  0.36142283956E+03  0.00000000000E+00 0.  1.
         11    1    4    4    0    0  0.25677924467E+01 -0.60725145225E+02 -0.53224723173E+02  0.80789900220E+02  0.00000000000E+00 0. -1.
</event>
<event>
 8    1  0.6840084E-009  0.9824564E+02  0.7561462E-02  0.1284029E+00
          1   -1    0    0  501    0  0.00000000000E+00  0.00000000000E+00  0.50426662262E+03  0.50426662262E+03  0.00000000000E+00 0. -1.
         -1   -1    0    0    0  501 -0.00000000000E+00 -0.00000000000E+00 -0.26273830199E+02  0.26273830199E+02  0.00000000000E+00 0.  1.
         25    2    1    2    0    0  0.73856534925E+01 -0.70687257313E+01  0.36195483016E+03  0.38309642799E+03  0.12508820607E+03 0.  0.
         23    2    1    2    0    0 -0.73856534925E+01  0.70687257313E+01  0.11603796226E+03  0.14744402484E+03  0.90390359067E+02 0.  0.
          5    1    3    3  502    0  0.52595344462E+02  0.20489697465E+02  0.27836142932E+03  0.28405748660E+03  0.41800000000E+01 0.  1.
         -5    1    3    3    0  502 -0.45209690969E+02 -0.27558423197E+02  0.83593400837E+02  0.99038941383E+02  0.41800000000E+01 0.  1.
        -11    1    4    4    0    0 -0.42806027319E+02 -0.14634723196E+02  0.38177753134E+02  0.59195201936E+02  0.00000000000E+00 0.  1.
         11    1    4    4    0    0  0.35420373827E+02  0.21703448927E+02  0.77860209130E+02  0.88248822900E+02  0.00000000000E+00 0. -1.
</event>
<event>
 8    1  0.6840084E-009  0.9923026E+02  0.7561462E-02  0.1281923E+00
         -2   -1    0    0    0  501 -0.00000000000E+00  0.00000000000E+00  0.14190475775E+03  0.14190475775E+03  0.00000000000E+00 0.  1.
          2   -1    0    0  501    0  0.00000000000E+00 -0.00000000000E+00 -0.12191537541E+03  0.12191537541E+03  0.00000000000E+00 0. -1.
         25    2    1    2    0    0  0.44750796062E+02  0.18150552378E+02 -0.44848408422E+02  0.14138441721E+03  0.12508436110E+03 0.  0.
         23    2    1    2    0    0 -0.44750796062E+02 -0.18150552378E+02  0.64837790757E+02  0.12243571595E+03  0.91948295962E+02 0.  0.
          5    1    3    3  502    0  0.83958527474E+02  0.32553992337E+02 -0.41597231704E+02  0.99280405106E+02  0.41800000000E+01 0.  1.
         -5    1    3    3    0  502 -0.39207731412E+02 -0.14403439960E+02 -0.32511767183E+01  0.42104012104E+02  0.41800000000E+01 0.  1.
        -11    1    4    4    0    0  0.30515178343E+01  0.10276658331E+02 -0.19007173425E+02  0.21821872265E+02  0.00000000000E+00 0. -1.
         11    1    4    4    0    0 -0.47802313896E+02 -0.28427210709E+02  0.83844964182E+02  0.10061384369E+03  0.00000000000E+00 0.  1.
</event>
<event>
 8    1  0.6840084E-009  0.1477179E+03  0.7561462E-02  0.1203306E+00
          4   -1    0    0  501    0  0.00000000000E+00  0.00000000000E+00  0.97334340528E+02  0.97334340528E+02  0.00000000000E+00 0. -1.
         -4   -1    0    0    0  501 -0.00000000000E+00 -0.00000000000E+00 -0.41284852814E+03  0.41284852814E+03  0.00000000000E+00 0.  1.
         25    2    1    2    0    0 -0.96966062538E+02  0.28691737809E+02 -0.33446420835E+03  0.37113282624E+03  0.12509050700E+03 0.  0.
         23    2    1    2    0    0  0.96966062538E+02 -0.28691737809E+02  0.18950020740E+02  0.13905004243E+03  0.93542385638E+02 0.  0.
          5    1    3    3  502    0 -0.36489809374E+02 -0.49527601470E+02 -0.11882774027E+03  0.13387305088E+03  0.41800000000E+01 0.  1.
         -5    1    3    3    0  502 -0.60476253164E+02  0.78219339279E+02 -0.21563646808E+03  0.23725977535E+03  0.41800000000E+01 0.  1.
        -11    1    4    4    0    0 -0.67818168635E+01 -0.30305603758E+02  0.16710130027E+02  0.35265437820E+02  0.00000000000E+00 0. -1.
         11    1    4    4    0    0  0.10374787940E+03  0.16138659484E+01  0.22398907134E+01  0.10378460461E+03  0.00000000000E+00 0.  1.
</event>
<event>
 8    1  0.6840084E-009  0.1193650E+03  0.7561462E-02  0.1244148E+00
         -2   -1    0    0    0  501 -0.00000000000E+00  0.00000000000E+00  0.68905360182E+02  0.68905360182E+02  0.00000000000E+00 0.  1.
          2   -1    0    0  501    0  0.00000000000E+00 -0.00000000000E+00 -0.27108368065E+03  0.27108368065E+03  0.00000000000E+00 0. -1.
         25    2    1    2    0    0  0.47921418536E+02  0.19898315168E+02 -0.19284239453E+03  0.23564435750E+03  0.12509064230E+03 0.  0.
         23    2    1    2    0    0 -0.47921418536E+02 -0.19898315168E+02 -0.93359259324E+01  0.10434468333E+03  0.90045811259E+02 0.  0.
          5    1    3    3  502    0 -0.94376583986E+01  0.62490091211E+02 -0.80255784108E+02  0.10223768473E+03  0.41800000000E+01 0. -1.
         -5    1    3    3    0  502  0.57359076935E+02 -0.42591776043E+02 -0.11258661043E+03  0.13340667277E+03  0.41800000000E+01 0. -1.
        -11    1    4    4    0    0  0.19151774086E+02 -0.30407702957E+02 -0.53932131686E+01  0.36338761646E+02  0.00000000000E+00 0.  1.
         11    1    4    4    0    0 -0.67073192622E+02  0.10509387789E+02 -0.39427127638E+01  0.68005921684E+02  0.00000000000E+00 0. -1.
</event>
<event>
 8    1  0.6840084E-009  0.1533966E+03  0.7561462E-02  0.1196360E+00
         -2   -1    0    0    0  501 -0.00000000000E+00  0.00000000000E+00  0.99139608123E+02  0.99139608123E+02  0.00000000000E+00 0.  1.
          2   -1    0    0  501    0  0.00000000000E+00 -0.00000000000E+00 -0.26706106129E+03  0.26706106129E+03  0.00000000000E+00 0. -1.
         25    2    1    2    0    0  0.11975943100E+03  0.12652006982E+02 -0.78264432334E+02  0.19046155206E+03  0.12509151391E+03 0.  0.
         23    2    1    2    0    0 -0.11975943100E+03 -0.12652006982E+02 -0.89657020833E+02  0.17573911735E+03  0.91342549715E+02 0.  0.
          5    1    3    3  502    0  0.91176586222E+02  0.61622301233E+02 -0.75532210693E+02  0.13354049999E+03  0.41800000000E+01 0. -1.
         -5    1    3    3    0  502  0.28582844775E+02 -0.48970294252E+02 -0.27322216409E+01  0.56921052078E+02  0.41800000000E+01 0. -1.
        -11    1    4    4    0    0 -0.34014999659E+02 -0.37411428459E+02 -0.19382478755E+01  0.50600316066E+02  0.00000000000E+00 0. -1.
         11    1    4    4    0    0 -0.85744431338E+02  0.24759421477E+02 -0.87718772957E+02  0.12513880128E+03  0.00000000000E+00 0.  1.
</event>
<event>
 8    1  0.6840084E-009  0.1017980E+03  0.7561462E-02  0.1276560E+00
          2   -1    0    0  501    0  0.00000000000E+00  0.00000000000E+00  0.12044388112E+03  0.12044388112E+03  0.00000000000E+00 0. -1.
         -2   -1    0    0    0  501 -0.00000000000E+00 -0.00000000000E+00 -0.15034995351E+03  0.15034995351E+03  0.00000000000E+00 0.  1.
         25    2    1    2    0    0  0.60642576911E+02 -0.46098257479E+02  0.80663383054E+01  0.14666911429E+03  0.12507674363E+03 0.  0.
         23    2    1    2    0    0 -0.60642576911E+02  0.46098257479E+02 -0.37972410703E+02  0.12412472034E+03  0.90346393106E+02 0.  0.
          5    1    3    3  502    0  0.29765753868E+02  0.31646935781E+01 -0.53774945530E+02  0.61686567059E+02  0.41800000000E+01 0.  1.
         -5    1    3    3    0  502  0.30876823043E+02 -0.49262951057E+02  0.61841283836E+02  0.84982547235E+02  0.41800000000E+01 0.  1.
        -11    1    4    4    0    0 -0.80245230091E+02  0.50735339655E+02 -0.41607086358E+02  0.10365578265E+03  0.00000000000E+00 0. -1.
         11    1    4    4    0    0  0.19602653180E+02 -0.46370821767E+01  0.36346756545E+01  0.20468937684E+02  0.00000000000E+00 0.  1.
</event>
<event>
 8    1  0.6840084E-009  0.1443322E+03  0.7561462E-02  0.1207616E+00
         -1   -1    0    0    0  501 -0.00000000000E+00  0.00000000000E+00  0.51760447411E+03  0.51760447411E+03  0.00000000000E+00 0.  1.
          1   -1    0    0  501    0  0.00000000000E+00 -0.00000000000E+00 -0.51797788373E+02  0.51797788373E+02  0.00000000000E+00 0. -1.
         25    2    1    2    0    0 -0.46932273723E+02 -0.10849805458E+03  0.19402602123E+03  0.25936203914E+03  0.12509238294E+03 0.  0.
         23    2    1    2    0    0  0.46932273723E+02  0.10849805458E+03  0.27178066452E+03  0.31004022335E+03  0.91026063981E+02 0.  0.
          5    1    3    3  502    0  0.25350430198E+02 -0.91946852837E+02  0.87505041417E+02  0.12950472088E+03  0.41800000000E+01 0. -1.
         -5    1    3    3    0  502 -0.72282703921E+02 -0.16551201742E+02  0.10652097981E+03  0.12985731826E+03  0.41800000000E+01 0. -1.
        -11    1    4    4    0    0  0.27279624140E+02  0.78094317709E+02  0.80718325585E+02  0.11557832166E+03  0.00000000000E+00 0. -1.
         11    1    4    4    0    0  0.19652649583E+02  0.30403736871E+02  0.19106233893E+03  0.19446190169E+03  0.00000000000E+00 0.  1.
</event>
<event>
 8    1  0.6840084E-009  0.1438887E+03  0.7561462E-02  0.1208190E+00
          2   -1    0    0  501    0  0.00000000000E+00  0.00000000000E+00  0.74727048050E+03  0.74727048050E+03  0.00000000000E+00 0.  1.
         -2   -1    0    0    0  501 -0.00000000000E+00 -0.00000000000E+00 -0.28721493389E+02  0.28721493389E+02  0.00000000000E+00 0. -1.
         25    2    1    2    0    0 -0.69275423486E+02 -0.67919525906E+02  0.43725288174E+03  0.46502638453E+03  0.12508920583E+03 0.  0.
         23    2    1    2    0    0  0.69275423486E+02  0.67919525906E+02  0.28129610536E+03  0.31096558936E+03  0.90332455815E+02 0.  0.
          5    1    3    3  502    0 -0.56601526971E+01  0.35408147573E+02  0.12091982375E+03  0.12619370197E+03  0.41800000000E+01 0.  1.
         -5    1    3    3    0  502 -0.63615270789E+02 -0.10332767348E+03  0.31633305800E+03  0.33883268255E+03  0.41800000000E+01 0.  1.
        -11    1    4    4    0    0  0.73589277498E+02  0.12459227038E+02  0.18897909456E+03  0.20318393707E+03  0.00000000000E+00 0.  1.
         11    1    4    4    0    0 -0.43138540122E+01  0.55460298868E+02  0.92317010802E+02  0.10778165229E+03  0.00000000000E+00 0. -1.
</event>
<event>
 8    1  0.6840084E-009  0.2142758E+03  0.7561462E-02  0.1138224E+00
          1   -1    0    0  501    0  0.00000000000E+00  0.00000000000E+00  0.21633842933E+03  0.21633842933E+03  0.00000000000E+00 0. -1.
         -1   -1    0    0    0  501 -0.00000000000E+00 -0.00000000000E+00 -0.25614298452E+03  0.25614298452E+03  0.00000000000E+00 0.  1.
         25    2    1    2    0    0  0.19243071968E+03  0.54689527045E+02 -0.79471431695E+02  0.24896491371E+03  0.12508914244E+03 0.  0.
         23    2    1    2    0    0 -0.19243071968E+03 -0.54689527045E+02  0.39666876498E+02  0.22351650014E+03  0.91463864434E+02 0.  0.
          5    1    3    3  502    0 -0.10379082160E+01  0.98675932349E+01  0.23043294872E+02  0.25434474406E+02  0.41800000000E+01 0. -1.
         -5    1    3    3    0  502  0.19346862790E+03  0.44821933810E+02 -0.10251472657E+03  0.22353043930E+03  0.41800000000E+01 0. -1.
        -11    1    4    4    0    0 -0.75094730298E+02  0.22864386943E+02  0.49999952745E+01  0.78657476832E+02  0.00000000000E+00 0.  1.
         11    1    4    4    0    0 -0.11733598939E+03 -0.77553913988E+02  0.34666881224E+02  0.14485902331E+03  0.00000000000E+00 0. -1.
</event>
<event>
 8    1  0.6840084E-009  0.1222107E+03  0.7561462E-02  0.1239494E+00
          1   -1    0    0  501    0  0.00000000000E+00  0.00000000000E+00  0.47607322954E+03  0.47607322954E+03  0.00000000000E+00 0. -1.
         -1   -1    0    0    0  501 -0.00000000000E+00 -0.00000000000E+00 -0.68129860372E+02  0.68129860372E+02  0.00000000000E+00 0.  1.
         25    2    1    2    0    0 -0.43822622103E+02  0.81157208123E+02  0.38159517476E+03  0.41202967044E+03  0.12508659916E+03 0.  0.
         23    2    1    2    0    0  0.43822622103E+02 -0.81157208123E+02  0.26348194412E+02  0.13217341947E+03  0.90932232061E+02 0.  0.
          5    1    3    3  502    0 -0.79131524769E+02  0.59328420407E+02  0.17314366736E+03  0.19944388090E+03  0.41800000000E+01 0. -1.
         -5    1    3    3    0  502  0.35308902666E+02  0.21828787716E+02  0.20845150740E+03  0.21258578955E+03  0.41800000000E+01 0. -1.
        -11    1    4    4    0    0 -0.85727924999E+01 -0.27113286472E+02  0.46269225254E+02  0.54308970531E+02  0.00000000000E+00 0. -1.
         11    1    4    4    0    0  0.52395414603E+02 -0.54043921651E+02 -0.19921030842E+02  0.77864448940E+02  0.00000000000E+00 0.  1.
</event>
<event>
 8    1  0.6840084E-009  0.6649206E+02  0.7561462E-02  0.1372445E+00
          1   -1    0    0  501    0  0.00000000000E+00  0.00000000000E+00  0.28022647722E+03  0.28022647722E+03  0.00000000000E+00 0. -1.
         -1   -1    0    0    0  501 -0.00000000000E+00 -0.00000000000E+00 -0.62793602595E+02  0.62793602595E+02  0.00000000000E+00 0.  1.
         25    2    1    2    0    0 -0.31724143546E+01 -0.22276377795E+01  0.18604455668E+02  0.12652589303E+03  0.12509056420E+03 0.  0.
         23    2    1    2    0    0  0.31724143546E+01  0.22276377795E+01  0.19882841896E+03  0.21649418679E+03  0.85568488043E+02 0.  0.
          5    1    3    3  502    0 -0.77566237902E+01  0.23603029925E+02 -0.48335457587E+02  0.54507404033E+02  0.41800000000E+01 0. -1.
         -5    1    3    3    0  502  0.45842094355E+01 -0.25830667704E+02  0.66939913255E+02  0.72018488993E+02  0.41800000000E+01 0. -1.
        -11    1    4    4    0    0 -0.31024205829E+02 -0.23092106879E+02  0.60818376520E+02  0.72073723853E+02  0.00000000000E+00 0.  1.
         11    1    4    4    0    0  0.34196620184E+02  0.25319744658E+02  0.13801004244E+03  0.14442046294E+03  0.00000000000E+00 0. -1.
</event>
<event>
 8    1  0.6840084E-009  0.1038811E+03  0.7561462E-02  0.1272340E+00
          1   -1    0    0  501    0  0.00000000000E+00  0.00000000000E+00  0.27291298935E+03  0.27291298935E+03  0.00000000000E+00 0. -1.
         -1   -1    0    0    0  501 -0.00000000000E+00 -0.00000000000E+00 -0.50311440735E+02  0.50311440735E+02  0.00000000000E+00 0.  1.
         25    2    1    2    0    0  0.12143074776E+02 -0.35092146465E+02  0.99489112723E+02  0.16408689164E+03  0.12509001339E+03 0.  0.
         23    2    1    2    0    0 -0.12143074776E+02  0.35092146465E+02  0.12311243589E+03  0.15913753844E+03  0.93750580060E+02 0.  0.
          5    1    3    3  502    0  0.20216422651E+02  0.41152540110E+02  0.65629087213E+02  0.80167853849E+02  0.41800000000E+01 0.  1.
         -5    1    3    3    0  502 -0.80733478747E+01 -0.76244686574E+02  0.33860025510E+02  0.83919037794E+02  0.41800000000E+01 0.  1.
        -11    1    4    4    0    0 -0.37375950677E+02  0.44404535697E+02  0.11835934037E+03  0.13182434499E+03  0.00000000000E+00 0. -1.
         11    1    4    4    0    0  0.25232875901E+02 -0.93123892321E+01  0.47530955211E+01  0.27313193451E+02  0.00000000000E+00 0.  1.
</event>
<event>
 8    1  0.6840084E-009  0.1322904E+03  0.7561462E-02  0.1224096E+00
          1   -1    0    0  501    0  0.00000000000E+00  0.00000000000E+00  0.90275029513E+03  0.90275029513E+03  0.00000000000E+00 0. -1.
         -1   -1    0    0    0  501 -0.00000000000E+00 -0.00000000000E+00 -0.34878297048E+02  0.34878297048E+02  0.00000000000E+00 0.  1.
         25    2    1    2    0    0  0.10619392897E+03 -0.18057962756E+02  0.25355351070E+03  0.30255323853E+03  0.12508332738E+03 0.  0.
         23    2    1    2    0    0 -0.10619392897E+03  0.18057962756E+02  0.61431848738E+03  0.63507535364E+03  0.11970906525E+03 0.  0.
          5    1    3    3  502    0  0.37281075278E+02 -0.28276853519E+01 -0.17297964500E+01  0.37660841388E+02  0.41800000000E+01 0.  1.
         -5    1    3    3    0  502  0.68912853693E+02 -0.15230277404E+02  0.25528330715E+03  0.26489239714E+03  0.41800000000E+01 0.  1.
        -11    1    4    4    0    0 -0.95638095203E+01  0.52735920177E+02  0.14321732389E+03  0.15291744699E+03  0.00000000000E+00 0.  1.
         11    1    4    4    0    0 -0.96630119450E+02 -0.34677957422E+02  0.47110116348E+03  0.48215790666E+03  0.00000000000E+00 0. -1.
</event>
<event>
 8    1  0.6840084E-009  0.1250415E+03  0.7561462E-02  0.1235004E+00
          1   -1    0    0  501    0  0.00000000000E+00  0.00000000000E+00  0.25764459260E+02  0.25764459260E+02  0.00000000000E+00 0. -1.
         -1   -1    0    0    0  501 -0.00000000000E+00 -0.00000000000E+00 -0.70829329577E+03  0.70829329577E+03  0.00000000000E+00 0.  1.
         25    2    1    2    0    0 -0.69135591958E+02 -0.14771855488E+02 -0.45587986457E+03  0.47798741395E+03  0.12509028414E+03 0.  0.
         23    2    1    2    0    0  0.69135591958E+02  0.14771855488E+02 -0.22664897194E+03  0.25607034108E+03  0.95939175046E+02 0.  0.
          5    1    3    3  502    0 -0.78605574483E+02  0.38004731036E+02 -0.32345286782E+03  0.33505585508E+03  0.41800000000E+01 0. -1.
         -5    1    3    3    0  502  0.94699825244E+01 -0.52776586524E+02 -0.13242699675E+03  0.14293155887E+03  0.41800000000E+01 0. -1.
        -11    1    4    4    0    0  0.65615803156E+02  0.44288697912E+02 -0.10893855875E+03  0.13466451637E+03  0.00000000000E+00 0. -1.
         11    1    4    4    0    0  0.35197888019E+01 -0.29516842423E+02 -0.11771041319E+03  0.12140582471E+03  0.00000000000E+00 0.  1.
</event>
<event>
 7    1  0.6840084E-009  0.5322684E+02  0.7561462E-02  0.1428675E+00
          2   -1    0    0  501    0  0.00000000000E+00  0.00000000000E+00  0.36178105286E+03  0.36178105286E+03  0.00000000000E+00 0. -1.
         -2   -1    0    0    0  501 -0.00000000000E+00 -0.00000000000E+00 -0.40033174246E+02  0.40033174246E+02  0.00000000000E+00 0.  1.
         23    2    1    2    0    0 -0.27581081214E+02 -0.39139277940E+02  0.11745081300E+03  0.15742771370E+03  0.93253377679E+02 0.  0.
          5    1    1    2  502    0 -0.16018795447E+01 -0.40139078636E+01  0.19014806655E+03  0.19024309997E+03  0.41800000000E+01 0. -1.
         -5    1    1    2    0  502  0.29182960759E+02  0.43153185804E+02  0.14148999066E+02  0.54143413434E+02  0.41800000000E+01 0. -1.
        -11    1    3    3    0    0 -0.21927655643E+02 -0.26957541837E+02  0.13266128548E+03  0.13713696733E+03  0.00000000000E+00 0. -1.
         11    1    3    3    0    0 -0.56534255711E+01 -0.12181736104E+02 -0.15210472480E+02  0.20290746370E+02  0.00000000000E+00 0.  1.
</event>
<event>
 8    1  0.6840084E-009  0.1084607E+03  0.7561462E-02  0.1263447E+00
         -1   -1    0    0    0  501 -0.00000000000E+00  0.00000000000E+00  0.12628243458E+03  0.12628243458E+03  0.00000000000E+00 0.  1.
          1   -1    0    0  501    0  0.00000000000E+00 -0.00000000000E+00 -0.13697932278E+03  0.13697932278E+03  0.00000000000E+00 0. -1.
         25    2    1    2    0    0 -0.37043343912E+02 -0.50942190509E+02 -0.38017672124E+02  0.14511948809E+03  0.12508799434E+03 0.  0.
         23    2    1    2    0    0  0.37043343912E+02  0.50942190509E+02  0.27320783922E+02  0.11814226926E+03  0.96144965806E+02 0.  0.
          5    1    3    3  502    0 -0.49581322901E+02  0.66029686394E+01 -0.63389599217E+02  0.80855553082E+02  0.41800000000E+01 0. -1.
         -5    1    3    3    0  502  0.12537978989E+02 -0.57545159149E+02  0.25371927093E+02  0.64263935010E+02  0.41800000000E+01 0. -1.
        -11    1    4    4    0    0 -0.16668383601E+02 -0.15146390981E+02 -0.10632111487E+02  0.24905621178E+02  0.00000000000E+00 0. -1.
         11    1    4    4    0    0  0.53711727512E+02  0.66088581490E+02  0.37952895409E+02  0.93236648082E+02  0.00000000000E+00 0.  1.
</event>
<event>
 8    1  0.6840084E-009  0.9550084E+02  0.7561462E-02  0.1290052E+00
          1   -1    0    0  501    0  0.00000000000E+00  0.00000000000E+00  0.99038464969E+02  0.99038464969E+02  0.00000000000E+00 0. -1.
         -1   -1    0    0    0  501 -0.00000000000E+00 -0.00000000000E+00 -0.12256852810E+03  0.12256852810E+03  0.00000000000E+00 0.  1.
         25    2    1    2    0    0 -0.25646721607E+02 -0.31451474977E+02 -0.31951060170E+02  0.13532770731E+03  0.12508304647E+03 0.  0.
         23    2    1    2    0    0  0.25646721607E+02  0.31451474977E+02  0.84209970396E+01  0.86279285755E+02  0.75672005074E+02 0.  0.
          5    1    3    3  502    0 -0.35710658229E+02  0.29651936810E+02  0.23413869424E+02  0.52155250447E+02  0.41800000000E+01 0. -1.
         -5    1    3    3    0  502  0.10063936622E+02 -0.61103411787E+02 -0.55364929594E+02  0.83172456867E+02  0.41800000000E+01 0. -1.
        -11    1    4    4    0    0  0.25238238403E+02  0.54089623589E+02 -0.51034196623E+01  0.59905767251E+02  0.00000000000E+00 0.  1.
         11    1    4    4    0    0  0.40848320452E+00 -0.22638148613E+02  0.13524416702E+02  0.26373518504E+02  0.00000000000E+00 0. -1.
</event>
<event>
 8    1  0.6840084E-009  0.1818603E+03  0.7561462E-02  0.1166015E+00
         -1   -1    0    0    0  501 -0.00000000000E+00  0.00000000000E+00  0.10831334982E+03  0.10831334982E+03  0.00000000000E+00 0.  1.
          1   -1    0    0  501    0  0.00000000000E+00 -0.00000000000E+00 -0.53880712342E+03  0.53880712342E+03  0.00000000000E+00 0. -1.
         25    2    1    2    0    0 -0.35505728517E+02  0.16869092485E+03 -0.39582560804E+03  0.44949120777E+03  0.12508856459E+03 0.  0.
         23    2    1    2    0    0  0.35505728517E+02 -0.16869092485E+03 -0.34668165558E+02  0.19762926547E+03  0.90211750800E+02 0.  0.
          5    1    3    3  502    0 -0.40447357640E+02  0.32813941729E+02 -0.22569020359E+03  0.23165984526E+03  0.41800000000E+01 0.  1.
         -5    1    3    3    0  502  0.49416291229E+01  0.13587698312E+03 -0.17013540446E+03  0.21783136250E+03  0.41800000000E+01 0.  1.
        -11    1    4    4    0    0 -0.55967871092E+01 -0.38728180719E+02  0.27486616398E+02  0.47819557596E+02  0.00000000000E+00 0.  1.
         11    1    4    4    0    0  0.41102515626E+02 -0.12996274413E+03 -0.62154781956E+02  0.14980970787E+03  0.00000000000E+00 0. -1.
</event>
<event>
 8    1  0.6840084E-009  0.2836538E+03  0.7561462E-02  0.1093710E+00
         -2   -1    0    0    0  501 -0.00000000000E+00  0.00000000000E+00  0.41869461533E+02  0.41869461533E+02  0.00000000000E+00 0.  1.
          2   -1    0    0  501    0  0.00000000000E+00 -0.00000000000E+00 -0.20246577041E+04  0.20246577041E+04  0.00000000000E+00 0. -1.
         25    2    1    2    0    0 -0.87338309084E+02 -0.25350428584E+03 -0.90150419174E+03  0.94881388456E+03  0.12508227948E+03 0.  0.
         23    2    1    2    0    0  0.87338309084E+02  0.25350428584E+03 -0.10812840508E+04  0.11177132811E+04  0.90638716555E+02 0.  0.
          5    1    3    3  502    0 -0.25989049709E+01 -0.15320697528E+03 -0.35386410530E+03  0.38563766543E+03  0.41800000000E+01 0. -1.
         -5    1    3    3    0  502 -0.84739404113E+02 -0.10029731056E+03 -0.54764008644E+03  0.56317621913E+03  0.41800000000E+01 0. -1.
        -11    1    4    4    0    0 -0.97798379244E+01  0.10345486586E+03 -0.36997567915E+03  0.38429228155E+03  0.00000000000E+00 0.  1.
         11    1    4    4    0    0  0.97118147008E+02  0.15004941997E+03 -0.71130837169E+03  0.73342099953E+03  0.00000000000E+00 0. -1.
</event>
<event>
 8    1  0.6840084E-009  0.1074876E+03  0.7561462E-02  0.1265294E+00
          3   -1    0    0  501    0  0.00000000000E+00  0.00000000000E+00  0.60434261362E+03  0.60434261362E+03  0.00000000000E+00 0. -1.
         -3   -1    0    0    0  501 -0.00000000000E+00 -0.00000000000E+00 -0.26969103708E+02  0.26969103708E+02  0.00000000000E+00 0.  1.
         25    2    1    2    0    0 -0.44762152568E+02 -0.31399916955E+02  0.41972553040E+03  0.44137116924E+03  0.12509749429E+03 0.  0.
         23    2    1    2    0    0  0.44762152568E+02  0.31399916955E+02  0.15764797951E+03  0.18994054809E+03  0.90746467021E+02 0.  0.
          5    1    3    3  502    0 -0.19181955626E+02 -0.70115866939E+02  0.14010619944E+03  0.15789680725E+03  0.41800000000E+01 0.  1.
         -5    1    3    3    0  502 -0.25580196942E+02  0.38715949984E+02  0.27961933096E+03  0.28347436199E+03  0.41800000000E+01 0.  1.
        -11    1    4    4    0    0  0.23442912857E+02  0.57368098218E+02  0.13735665315E+03  0.15069014242E+03  0.00000000000E+00 0.  1.
         11    1    4    4    0    0  0.21319239711E+02 -0.25968181262E+02  0.20291326357E+02  0.39250405670E+02  0.00000000000E+00 0. -1.
</event>
<event>
 8    1  0.6840084E-009  0.9436914E+02  0.7561462E-02  0.1292603E+00
         -2   -1    0    0    0  501 -0.00000000000E+00  0.00000000000E+00  0.44830035333E+02  0.44830035333E+02  0.00000000000E+00 0.  1.
          2   -1    0    0  501    0  0.00000000000E+00 -0.00000000000E+00 -0.53027802243E+03  0.53027802243E+03  0.00000000000E+00 0. -1.
         25    2    1    2    0    0  0.49687099040E+02  0.20520018831E+02 -0.43945817423E+03  0.46006537239E+03  0.12508709363E+03 0.  0.
         23    2    1    2    0    0 -0.49687099040E+02 -0.20520018831E+02 -0.45989812865E+02  0.11504268537E+03  0.90718672750E+02 0.  0.
          5    1    3    3  502    0 -0.39094071325E+02  0.23919758362E+02 -0.17977894662E+03  0.18557597717E+03  0.41800000000E+01 0.  1.
         -5    1    3    3    0  502  0.88781170365E+02 -0.33997395313E+01 -0.25967922761E+03  0.27448939523E+03  0.41800000000E+01 0.  1.
        -11    1    4    4    0    0 -0.12564056575E+02 -0.46004371411E+01  0.27838567681E+02  0.30886977677E+02  0.00000000000E+00 0.  1.
         11    1    4    4    0    0 -0.37123042465E+02 -0.15919581689E+02 -0.73828380545E+02  0.84155707691E+02  0.00000000000E+00 0. -1.
</event>
<event>
 8    1  0.6840084E-009  0.1268422E+03  0.7561462E-02  0.1232218E+00
          2   -1    0    0  501    0  0.00000000000E+00  0.00000000000E+00  0.51610817746E+03  0.51610817746E+03  0.00000000000E+00 0. -1.
         -2   -1    0    0    0  501 -0.00000000000E+00 -0.00000000000E+00 -0.81038819668E+02  0.81038819668E+02  0.00000000000E+00 0.  1.
         25    2    1    2    0    0 -0.39619402733E+02  0.57893323432E+02  0.45774142777E+03  0.47968337188E+03  0.12509032170E+03 0.  0.
         23    2    1    2    0    0  0.39619402733E+02 -0.57893323432E+02 -0.22672069978E+02  0.11746362526E+03  0.91445866665E+02 0.  0.
          5    1    3    3  502    0 -0.83295225342E+02  0.32246131819E+02  0.24072095568E+03  0.25679166359E+03  0.41800000000E+01 0. -1.
         -5    1    3    3    0  502  0.43675822609E+02  0.25647191613E+02  0.21702047209E+03  0.22289170829E+03  0.41800000000E+01 0. -1.
        -11    1    4    4    0    0  0.27990836489E+02 -0.82019174566E+02 -0.25989174805E+02  0.90476898328E+02  0.00000000000E+00 0. -1.
         11    1    4    4    0    0  0.11628566244E+02  0.24125851134E+02  0.33171048275E+01  0.26986726928E+02  0.00000000000E+00 0.  1.
</event>
<event>
 8    1  0.6840084E-009  0.1257293E+03  0.7561462E-02  0.1233934E+00
          1   -1    0    0  501    0  0.00000000000E+00  0.00000000000E+00  0.72094046066E+03  0.72094046066E+03  0.00000000000E+00 0. -1.
         -1   -1    0    0    0  501 -0.00000000000E+00 -0.00000000000E+00 -0.39020377994E+02  0.39020377994E+02  0.00000000000E+00 0.  1.
         25    2    1    2    0    0 -0.10987315959E+03 -0.15036251488E+02  0.22626124870E+03  0.28131353949E+03  0.12507979366E+03 0.  0.
         23    2    1    2    0    0  0.10987315959E+03  0.15036251488E+02  0.45565883397E+03  0.47864729917E+03  0.95812650334E+02 0.  0.
          5    1    3    3  502    0 -0.11423215730E+03  0.94210218220E+01  0.22885553543E+03  0.25598841753E+03  0.41800000000E+01 0. -1.
         -5    1    3    3    0  502  0.43589977113E+01 -0.24457273310E+02 -0.25942867291E+01  0.25325121963E+02  0.41800000000E+01 0. -1.
        -11    1    4    4    0    0  0.78387113945E+02  0.16280235432E+02  0.43170462931E+03  0.43906545374E+03  0.00000000000E+00 0. -1.
         11    1    4    4    0    0  0.31486045647E+02 -0.12439839437E+01  0.23954204664E+02  0.39581845429E+02  0.00000000000E+00 0.  1.
</event>
<event>
 8    1  0.6840084E-009  0.1101152E+03  0.7561462E-02  0.1260357E+00
         -1   -1    0    0    0  501 -0.00000000000E+00  0.00000000000E+00  0.83133751826E+03  0.83133751826E+03  0.00000000000E+00 0.  1.
          1   -1    0    0  501    0  0.00000000000E+00 -0.00000000000E+00 -0.17353660280E+02  0.17353660280E+02  0.00000000000E+00 0. -1.
         25    2    1    2    0    0  0.31164392754E+02 -0.21906589863E+02  0.58425772240E+03  0.59871251765E+03  0.12509386299E+03 0.  0.
         23    2    1    2    0    0 -0.31164392754E+02  0.21906589863E+02  0.22972613558E+03  0.24997866089E+03  0.90907180544E+02 0.  0.
          5    1    3    3  502    0  0.12328128222E+02  0.50520418299E+02  0.31173510497E+03  0.31607047233E+03  0.41800000000E+01 0. -1.
         -5    1    3    3    0  502  0.18836264532E+02 -0.72427008162E+02  0.27252261743E+03  0.28264204532E+03  0.41800000000E+01 0. -1.
        -11    1    4    4    0    0  0.27128468750E+02  0.21818753053E+02  0.12885544782E+03  0.13347560914E+03  0.00000000000E+00 0.  1.
         11    1    4    4    0    0 -0.58292861504E+02  0.87836810140E-01  0.10087068776E+03  0.11650305175E+03  0.00000000000E+00 0. -1.
</event>
<event>
 8    1  0.6840084E-009  0.9476355E+02  0.7561462E-02  0.1291710E+00
          3   -1    0    0  501    0  0.00000000000E+00  0.00000000000E+00  0.15689002396E+03  0.15689002396E+03  0.00000000000E+00 0. -1.
         -3   -1    0    0    0  501 -0.00000000000E+00 -0.00000000000E+00 -0.94131441260E+02  0.94131441260E+02  0.00000000000E+00 0.  1.
         25    2    1    2    0    0 -0.30568522891E+02  0.44470004315E+02  0.41369929495E+02  0.14237546961E+03  0.12508911785E+03 0.  0.
         23    2    1    2    0    0  0.30568522891E+02 -0.44470004315E+02  0.21388653200E+02  0.10864599560E+03  0.91839327085E+02 0.  0.
          5    1    3    3  502    0  0.43670040734E+02 -0.78581076625E+01  0.67113476679E+01  0.45070355016E+02  0.41800000000E+01 0.  1.
         -5    1    3    3    0  502 -0.74238563625E+02  0.52328111978E+02  0.34658581827E+02  0.97305114596E+02  0.41800000000E+01 0.  1.
        -11    1    4    4    0    0  0.80277043356E+01 -0.95928817092E+01  0.54260199207E+02  0.55683360480E+02  0.00000000000E+00 0. -1.
         11    1    4    4    0    0  0.22540818555E+02 -0.34877122606E+02 -0.32871546006E+02  0.52962635124E+02  0.00000000000E+00 0.  1.
</event>
<event>
 8    1  0.6840084E-009  0.1289162E+03  0.7561462E-02  0.1229073E+00
          2   -1    0    0  501    0  0.00000000000E+00  0.00000000000E+00  0.10698422078E+04  0.10698422078E+04  0.00000000000E+00 0. -1.
         -2   -1    0    0    0  501 -0.00000000000E+00 -0.00000000000E+00 -0.36427994022E+02  0.36427994022E+02  0.00000000000E+00 0.  1.
         25    2    1    2    0    0  0.72612311489E+02 -0.53061692397E+02  0.93718074101E+03  0.94975984328E+03  0.12509167681E+03 0.  0.
         23    2    1    2    0    0 -0.72612311489E+02  0.53061692397E+02  0.96233472768E+02  0.15651035854E+03  0.84537092869E+02 0.  0.
          5    1    3    3  502    0  0.77418857245E+02 -0.87865914549E+02  0.65892676007E+03  0.66926530310E+03  0.41800000000E+01 0. -1.
         -5    1    3    3    0  502 -0.48065457564E+01  0.34804222152E+02  0.27825398095E+03  0.28049454019E+03  0.41800000000E+01 0. -1.
        -11    1    4    4    0    0 -0.78058430398E+02  0.33465949228E+02  0.10440964326E+03  0.13458997704E+03  0.00000000000E+00 0. -1.
         11    1    4    4    0    0  0.54461189091E+01  0.19595743170E+02 -0.81761704884E+01  0.21920381507E+02  0.00000000000E+00 0.  1.
</event>
<event>
 8    1  0.6840084E-009  0.1562490E+03  0.7561462E-02  0.1192998E+00
          2   -1    0    0  501    0  0.00000000000E+00  0.00000000000E+00  0.31569707373E+03  0.31569707373E+03  0.00000000000E+00 0. -1.
         -2   -1    0    0    0  501 -0.00000000000E+00 -0.00000000000E+00 -0.12084008418E+03  0.12084008418E+03  0.00000000000E+00 0.  1.
         25    2    1    2    0    0 -0.88623206636E+02  0.10664737454E+03  0.92810872858E+01  0.18697952626E+03  0.12508984535E+03 0.  0.
         23    2    1    2    0    0  0.88623206636E+02 -0.10664737454E+03  0.18557590225E+03  0.24955763165E+03  0.92805499664E+02 0.  0.
          5    1    3    3  502    0 -0.96627902304E+02  0.90771248193E+02  0.50472673708E+02  0.14192016838E+03  0.41800000000E+01 0. -1.
         -5    1    3    3    0  502  0.80046956672E+01  0.15876126343E+02 -0.41191586422E+02  0.45059357877E+02  0.41800000000E+01 0. -1.
        -11    1    4    4    0    0 -0.65621402148E+01 -0.50820747952E+02  0.31878455609E+02  0.60349366514E+02  0.00000000000E+00 0.  1.
         11    1    4    4    0    0  0.95185346851E+02 -0.55826626583E+02  0.15369744665E+03  0.18920826514E+03  0.00000000000E+00 0. -1.
</event>
<event>
 8    1  0.6840084E-009  0.1080170E+03  0.7561462E-02  0.1264287E+00
         -2   -1    0    0    0  501 -0.00000000000E+00  0.00000000000E+00  0.14550265766E+02  0.14550265766E+02  0.00000000000E+00 0.  1.
          2   -1    0    0  501    0  0.00000000000E+00 -0.00000000000E+00 -0.91051670732E+03  0.91051670732E+03  0.00000000000E+00 0. -1.
         25    2    1    2    0    0 -0.26599083846E+01 -0.30594938809E+02 -0.41468713820E+03  0.43422879585E+03  0.12508436816E+03 0.  0.
         23    2    1    2    0    0  0.26599083846E+01  0.30594938809E+02 -0.48127930335E+03  0.49083817724E+03  0.91374082804E+02 0.  0.
          5    1    3    3  502    0 -0.58382690675E+02 -0.25797842191E+02 -0.29767534520E+03  0.30447027896E+03  0.41800000000E+01 0. -1.
         -5    1    3    3    0  502  0.55722782291E+02 -0.47970966178E+01 -0.11701179300E+03  0.12975851689E+03  0.41800000000E+01 0. -1.
        -11    1    4    4    0    0  0.45898105614E+02  0.61336106055E+01 -0.25493140170E+03  0.25910283065E+03  0.00000000000E+00 0.  1.
         11    1    4    4    0    0 -0.43238197230E+02  0.24461328203E+02 -0.22634790165E+03  0.23173534659E+03  0.00000000000E+00 0. -1.
</event>
<event>
 8    1  0.6840084E-009  0.1613643E+03  0.7561462E-02  0.1187165E+00
         -1   -1    0    0    0  501 -0.00000000000E+00  0.00000000000E+00  0.32611552521E+03  0.32611552521E+03  0.00000000000E+00 0.  1.
          1   -1    0    0  501    0  0.00000000000E+00 -0.00000000000E+00 -0.85145987126E+02  0.85145987126E+02  0.00000000000E+00 0. -1.
         25    2    1    2    0    0 -0.90332998830E+02  0.82504502076E+02  0.16785906198E+03  0.24247198155E+03  0.12509577774E+03 0.  0.
         23    2    1    2    0    0  0.90332998830E+02 -0.82504502076E+02  0.73110476108E+02  0.16878953079E+03  0.90430749453E+02 0.  0.
          5    1    3    3  502    0  0.55751912724E+01  0.73906102942E+02  0.10023932489E+03  0.12473407500E+03  0.41800000000E+01 0.  1.
         -5    1    3    3    0  502 -0.95908190102E+02  0.85983991335E+01  0.67619737086E+02  0.11773790655E+03  0.41800000000E+01 0.  1.
        -11    1    4    4    0    0  0.16178939700E+02 -0.75965736214E+02  0.38789636986E+02  0.86816974756E+02  0.00000000000E+00 0. -1.
         11    1    4    4    0    0  0.74154059130E+02 -0.65387658624E+01  0.34320839122E+02  0.81972556032E+02  0.00000000000E+00 0.  1.
</event>
<event>
 8    1  0.6840084E-009  0.9176255E+02  0.7561462E-02  0.1298639E+00
          1   -1    0    0  501    0  0.00000000000E+00  0.00000000000E+00  0.17185787053E+03  0.17185787053E+03  0.00000000000E+00 0. -1.
         -1   -1    0    0    0  501 -0.00000000000E+00 -0.00000000000E+00 -0.68593998290E+02  0.68593998290E+02  0.00000000000E+00 0.  1.
         25    2    1    2    0    0 -0.52128072331E+01  0.11237888049E+01  0.45027909918E+02  0.13305242924E+03  0.12508796902E+03 0.  0.
         23    2    1    2    0    0  0.52128072331E+01 -0.11237888049E+01  0.58235962325E+02  0.10739943959E+03  0.90082051793E+02 0.  0.
          5    1    3    3  502    0  0.10083442962E+02  0.60493674186E+02  0.35155439502E+02  0.70813401027E+02  0.41800000000E+01 0. -1.
         -5    1    3    3    0  502 -0.15296250195E+02 -0.59369885381E+02  0.98724704155E+01  0.62239028208E+02  0.41800000000E+01 0. -1.
        -11    1    4    4    0    0  0.32821770512E+02 -0.28184057266E+01  0.69982014153E+02  0.77347878673E+02  0.00000000000E+00 0. -1.
         11    1    4    4    0    0 -0.27608963278E+02  0.16946169217E+01 -0.11746051828E+02  0.30051560914E+02  0.00000000000E+00 0.  1.
</event>
<event>
 8    1  0.6840084E-009  0.8428992E+02  0.7561462E-02  0.1317300E+00
         -1   -1    0    0    0  501 -0.00000000000E+00  0.00000000000E+00  0.98044593375E+02  0.98044593375E+02  0.00000000000E+00 0.  1.
          1   -1    0    0  501    0  0.00000000000E+00 -0.00000000000E+00 -0.13808704266E+03  0.13808704266E+03  0.00000000000E+00 0. -1.
         25    2    1    2    0    0 -0.19090098536E+02 -0.15310339685E+02  0.77027372685E+01  0.12769562421E+03  0.12509197383E+03 0.  0.
         23    2    1    2    0    0  0.19090098536E+02  0.15310339685E+02 -0.47745186553E+02  0.10843601182E+03  0.94233367009E+02 0.  0.
          5    1    3    3  502    0 -0.23121579596E+02  0.48486988701E+02 -0.20569757381E+02  0.57673068542E+02  0.41800000000E+01 0. -1.
         -5    1    3    3    0  502  0.40314810601E+01 -0.63797328386E+02  0.28272494650E+02  0.70022555669E+02  0.41800000000E+01 0. -1.
        -11    1    4    4    0    0  0.30174320050E+01 -0.15551906986E+02  0.23965851296E+02  0.28728535208E+02  0.00000000000E+00 0.  1.
         11    1    4    4    0    0  0.16072666531E+02  0.30862246671E+02 -0.71711037849E+02  0.79707476616E+02  0.00000000000E+00 0. -1.
</event>
<event>
 8    1  0.6840084E-009  0.1264374E+03  0.7561462E-02  0.1232840E+00
          2   -1    0    0  501    0  0.00000000000E+00  0.00000000000E+00  0.81968203683E+03  0.81968203683E+03  0.00000000000E+00 0. -1.
         -2   -1    0    0    0  501 -0.00000000000E+00 -0.00000000000E+00 -0.27926692809E+02  0.27926692809E+02  0.00000000000E+00 0.  1.
         25    2    1    2    0    0  0.96997672130E+02 -0.39113548733E+02  0.39750504338E+03  0.42964664712E+03  0.12509022256E+03 0.  0.
         23    2    1    2    0    0 -0.96997672130E+02  0.39113548733E+02  0.39425030065E+03  0.41796208252E+03  0.91217239439E+02 0.  0.
          5    1    3    3  502    0  0.13157138089E+02 -0.47264640435E+02  0.28400319134E+03  0.28824007634E+03  0.41800000000E+01 0.  1.
         -5    1    3    3    0  502  0.83840534041E+02  0.81510917019E+01  0.11350185204E+03  0.14140657078E+03  0.41800000000E+01 0.  1.
        -11    1    4    4    0    0 -0.35759139346E+02  0.45336659259E+02  0.29920441104E+03  0.30472513566E+03  0.00000000000E+00 0.  1.
         11    1    4    4    0    0 -0.61238532784E+02 -0.62231105258E+01  0.95045889608E+02  0.11323694686E+03  0.00000000000E+00 0. -1.
</event>
<event>
 8    1  0.6840084E-009  0.1182346E+03  0.7561462E-02  0.1246038E+00
          1   -1    0    0  501    0  0.00000000000E+00  0.00000000000E+00  0.25061353011E+03  0.25061353011E+03  0.00000000000E+00 0. -1.
         -1   -1    0    0    0  501 -0.00000000000E+00 -0.00000000000E+00 -0.92375122584E+02  0.92375122584E+02  0.00000000000E+00 0.  1.
         25    2    1    2    0    0 -0.57797009763E+02  0.75141094987E+02  0.14095926492E+03  0.21096290897E+03  0.12509658708E+03 0.  0.
         23    2    1    2    0    0  0.57797009763E+02 -0.75141094987E+02  0.17279142605E+02  0.13202574373E+03  0.90252699371E+02 0.  0.
          5    1    3    3  502    0 -0.29245354408E+02  0.99554366618E+02  0.13847004727E+03  0.17308318537E+03  0.41800000000E+01 0.  1.
         -5    1    3    3    0  502 -0.28551655355E+02 -0.24413271632E+02  0.24892176504E+01  0.37879723597E+02  0.41800000000E+01 0.  1.
        -11    1    4    4    0    0  0.27427720544E+02 -0.33771648668E+02  0.53687762053E+02  0.69102676521E+02  0.00000000000E+00 0. -1.
         11    1    4    4    0    0  0.30369289218E+02 -0.41369446318E+02 -0.36408619449E+02  0.62923067205E+02  0.00000000000E+00 0.  1.
</event>
<event>
 8    1  0.6840084E-009  0.9302468E+02  0.7561462E-02  0.1295688E+00
         -3   -1    0    0    0  501 -0.00000000000E+00  0.00000000000E+00  0.36557859868E+02  0.36557859868E+02  0.00000000000E+00 0.  1.
          3   -1    0    0  501    0  0.00000000000E+00 -0.00000000000E+00 -0.58616918946E+03  0.58616918946E+03  0.00000000000E+00 0. -1.
         25    2    1    2    0    0  0.66899765952E+02  0.10674468389E+02 -0.14720241058E+03  0.20471345398E+03  0.12509806394E+03 0.  0.
         23    2    1    2    0    0 -0.66899765952E+02 -0.10674468389E+02 -0.40240891901E+03  0.41801359534E+03  0.90625078401E+02 0.  0.
          5    1    3    3  502    0  0.24059465969E+02  0.23418188221E+02  0.14562859061E+02  0.36835020108E+02  0.41800000000E+01 0. -1.
         -5    1    3    3    0  502  0.42840299982E+02 -0.12743719832E+02 -0.16176526964E+03  0.16787843388E+03  0.41800000000E+01 0. -1.
        -11    1    4    4    0    0 -0.78965128838E+02  0.13683855241E+02 -0.34902116723E+03  0.35810405561E+03  0.00000000000E+00 0. -1.
         11    1    4    4    0    0  0.12065362886E+02 -0.24358323631E+02 -0.53387751774E+02  0.59909539734E+02  0.00000000000E+00 0.  1.
</event>
<event>
 8    1  0.6840084E-009  0.1028921E+03  0.7561462E-02  0.1274329E+00
         -1   -1    0    0    0  501 -0.00000000000E+00  0.00000000000E+00  0.36778703900E+03  0.36778703900E+03  0.00000000000E+00 0.  1.
          1   -1    0    0  501    0  0.00000000000E+00 -0.00000000000E+00 -0.36181019842E+02  0.36181019842E+02  0.00000000000E+00 0. -1.
         25    2    1    2    0    0  0.13723341963E+02 -0.29631593502E+02  0.22831685120E+03  0.26238084359E+03  0.12509500825E+03 0.  0.
         23    2    1    2    0    0 -0.13723341963E+02  0.29631593502E+02  0.10328916796E+03  0.14158721526E+03  0.91169763952E+02 0.  0.
          5    1    3    3  502    0 -0.51746408899E+02 -0.19725066751E+02  0.14876533805E+03  0.15879347373E+03  0.41800000000E+01 0.  1.
         -5    1    3    3    0  502  0.65469750862E+02 -0.99065267512E+01  0.79551513150E+02  0.10358736986E+03  0.41800000000E+01 0.  1.
        -11    1    4    4    0    0 -0.39709011518E+02  0.39590073150E+02  0.98510744557E+02  0.11335142823E+03  0.00000000000E+00 0.  1.
         11    1    4    4    0    0  0.25985669555E+02 -0.99584796481E+01  0.47784234013E+01  0.28235787032E+02  0.00000000000E+00 0. -1.
</event>
<event>
 8    1  0.6840084E-009  0.6987079E+02  0.7561462E-02  0.1360533E+00
         -3   -1    0    0    0  501 -0.00000000000E+00  0.00000000000E+00  0.49300961079E+02  0.49300961079E+02  0.00000000000E+00 0.  1.
          3   -1    0    0  501    0  0.00000000000E+00 -0.00000000000E+00 -0.26170419402E+03  0.26170419402E+03  0.00000000000E+00 0. -1.
         25    2    1    2    0    0 -0.73379341327E+01 -0.50600450990E+01 -0.16765318922E+03  0.20936682353E+03  0.12508967025E+03 0.  0.
         23    2    1    2    0    0  0.73379341327E+01  0.50600450990E+01 -0.44750043722E+02  0.10163833157E+03  0.90820342976E+02 0.  0.
          5    1    3    3  502    0  0.20308148787E+02  0.34865615154E+02 -0.15326894807E+03  0.15854612852E+03  0.41800000000E+01 0.  1.
         -5    1    3    3    0  502 -0.27646082919E+02 -0.39925660253E+02 -0.14384241155E+02  0.50820695007E+02  0.41800000000E+01 0.  1.
        -11    1    4    4    0    0  0.14379785726E+02  0.25246645538E+02  0.18787839016E+02  0.34599916811E+02  0.00000000000E+00 0.  1.
         11    1    4    4    0    0 -0.70418515930E+01 -0.20186600439E+02 -0.63537882737E+02  0.67038414763E+02  0.00000000000E+00 0. -1.
</event>
<event>
 8    1  0.6840084E-009  0.7836273E+02  0.7561462E-02  0.1333763E+00
         -2   -1    0    0    0  501 -0.00000000000E+00  0.00000000000E+00  0.13003773097E+02  0.13003773097E+02  0.00000000000E+00 0. -1.
          2   -1    0    0  501    0  0.00000000000E+00 -0.00000000000E+00 -0.11069305563E+04  0.11069305563E+04  0.00000000000E+00 0.  1.
         25    2    1    2    0    0  0.36406392788E+02 -0.34395212530E+02 -0.59884711395E+03  0.61381812767E+03  0.12508545838E+03 0.  0.
         23    2    1    2    0    0 -0.36406392788E+02  0.34395212530E+02 -0.49507966923E+03  0.50611620170E+03  0.92419016740E+02 0.  0.
          5    1    3    3  502    0  0.62277982544E+00  0.35440532965E+00  0.57542843881E+01  0.71482617935E+01  0.41800000000E+01 0.  1.
         -5    1    3    3    0  502  0.35783612963E+02 -0.34749617860E+02 -0.60460139833E+03  0.60666986588E+03  0.41800000000E+01 0.  1.
        -11    1    4    4    0    0  0.29262190021E+02  0.19284029360E+02 -0.11922776303E+03  0.12427151335E+03  0.00000000000E+00 0.  1.
         11    1    4    4    0    0 -0.65668582810E+02  0.15111183170E+02 -0.37585190620E+03  0.38184468835E+03  0.00000000000E+00 0. -1.
</event>
<event>
 8    1  0.6840084E-009  0.2235318E+03  0.7561462E-02  0.1131277E+00
         -2   -1    0    0    0  501 -0.00000000000E+00  0.00000000000E+00  0.71674151474E+02  0.71674151474E+02  0.00000000000E+00 0. -1.
          2   -1    0    0  501    0  0.00000000000E+00 -0.00000000000E+00 -0.74521386518E+03  0.74521386518E+03  0.00000000000E+00 0.  1.
         25    2    1    2    0    0  0.19295678656E+02  0.19687664560E+03 -0.26665805535E+03  0.35480477195E+03  0.12508865224E+03 0.  0.
         23    2    1    2    0    0 -0.19295678656E+02 -0.19687664560E+03 -0.40688165836E+03  0.46208324470E+03  0.93997363406E+02 0.  0.
          5    1    3    3  502    0 -0.20116285183E+02  0.18632458093E+03 -0.18471253607E+03  0.26316859191E+03  0.41800000000E+01 0.  1.
         -5    1    3    3    0  502  0.39411963839E+02  0.10552064672E+02 -0.81945519276E+02  0.91636180038E+02  0.41800000000E+01 0.  1.
        -11    1    4    4    0    0 -0.27416199371E+02 -0.66699060347E+01 -0.43478416747E+02  0.51831538249E+02  0.00000000000E+00 0.  1.
         11    1    4    4    0    0  0.81205207153E+01 -0.19020673957E+03 -0.36340324161E+03  0.41025170645E+03  0.00000000000E+00 0. -1.
</event>
<event>
 8    1  0.6840084E-009  0.1179036E+03  0.7561462E-02  0.1246596E+00
         -1   -1    0    0    0  501 -0.00000000000E+00  0.00000000000E+00  0.59781735744E+02  0.59781735744E+02  0.00000000000E+00 0.  1.
          1   -1    0    0  501    0  0.00000000000E+00 -0.00000000000E+00 -0.32209948806E+03  0.32209948806E+03  0.00000000000E+00 0. -1.
         25    2    1    2    0    0  0.54898547370E+02 -0.19766072607E+02 -0.23147629139E+03  0.26950536728E+03  0.12508925369E+03 0.  0.
         23    2    1    2    0    0 -0.54898547370E+02  0.19766072607E+02 -0.30841460927E+02  0.11237585652E+03  0.90953775552E+02 0.  0.
          5    1    3    3  502    0  0.35757525961E+02 -0.69112006349E+02 -0.17720657979E+03  0.19358386918E+03  0.41800000000E+01 0.  1.
         -5    1    3    3    0  502  0.19141021409E+02  0.49345933742E+02 -0.54269711594E+02  0.75921498102E+02  0.41800000000E+01 0.  1.
        -11    1    4    4    0    0 -0.67177381240E+02  0.42115336956E+02 -0.34767358621E+02  0.86575235389E+02  0.00000000000E+00 0. -1.
         11    1    4    4    0    0  0.12278833870E+02 -0.22349264349E+02  0.39258976933E+01  0.25800621133E+02  0.00000000000E+00 0.  1.
</event>
<event>
 7    1  0.6840084E-009  0.7360360E+02  0.7561462E-02  0.1348251E+00
         -1   -1    0    0    0  501 -0.00000000000E+00  0.00000000000E+00  0.90435717621E+02  0.90435717621E+02  0.00000000000E+00 0.  1.
          1   -1    0    0  501    0  0.00000000000E+00 -0.00000000000E+00 -0.21985845272E+03  0.21985845272E+03  0.00000000000E+00 0. -1.
         23    2    1    2    0    0  0.15607824810E+02  0.20815281017E+02  0.37916988640E+02  0.99955757167E+02  0.88750071799E+02 0.  0.
          5    1    1    2  502    0 -0.22939212498E+02 -0.32938540875E+02 -0.18382539615E+03  0.18820309141E+03  0.41800000000E+01 0.  1.
         -5    1    1    2    0  502  0.73313876887E+01  0.12123259857E+02  0.16485672409E+02  0.22135321769E+02  0.41800000000E+01 0.  1.
        -11    1    3    3    0    0 -0.34776305169E+01 -0.33927437872E+02  0.95710864558E+01  0.35422741996E+02  0.00000000000E+00 0.  1.
         11    1    3    3    0    0  0.19085455327E+02  0.54742718889E+02  0.28345902184E+02  0.64533015171E+02  0.00000000000E+00 0. -1.
</event>
<event>
 8    1  0.6840084E-009  0.7977654E+02  0.7561462E-02  0.1329687E+00
          2   -1    0    0  501    0  0.00000000000E+00  0.00000000000E+00  0.67824810752E+02  0.67824810752E+02  0.00000000000E+00 0. -1.
         -2   -1    0    0    0  501 -0.00000000000E+00 -0.00000000000E+00 -0.23285959260E+03  0.23285959260E+03  0.00000000000E+00 0.  1.
         25    2    1    2    0    0  0.56479440748E+02 -0.24071033563E+02 -0.73115386691E+02  0.15736253774E+03  0.12509103337E+03 0.  0.
         23    2    1    2    0    0 -0.56479440748E+02  0.24071033563E+02 -0.91919395154E+02  0.14332186561E+03  0.91228504715E+02 0.  0.
          5    1    3    3  502    0  0.50985490840E+02 -0.48168221518E+02  0.96134072983E+01  0.70919587142E+02  0.41800000000E+01 0. -1.
         -5    1    3    3    0  502  0.54939499075E+01  0.24097187955E+02 -0.82728793989E+02  0.86442950596E+02  0.41800000000E+01 0. -1.
        -11    1    4    4    0    0 -0.97192091392E+01  0.12889219120E+02 -0.93826863440E+02  0.95205437339E+02  0.00000000000E+00 0.  1.
         11    1    4    4    0    0 -0.46760231609E+02  0.11181814443E+02  0.19074682864E+01  0.48116428271E+02  0.00000000000E+00 0. -1.
</event>
<event>
 8    1  0.6840084E-009  0.1707315E+03  0.7561462E-02  0.1177087E+00
          4   -1    0    0  501    0  0.00000000000E+00  0.00000000000E+00  0.20342706551E+03  0.20342706551E+03  0.00000000000E+00 0. -1.
         -4   -1    0    0    0  501 -0.00000000000E+00 -0.00000000000E+00 -0.21632467075E+03  0.21632467075E+03  0.00000000000E+00 0.  1.
         25    2    1    2    0    0 -0.12472832897E+03  0.10526392990E+03  0.66076303747E+02  0.21598890107E+03  0.12508987361E+03 0.  0.
         23    2    1    2    0    0  0.12472832897E+03 -0.10526392990E+03 -0.78973908982E+02  0.20376283519E+03  0.92977221501E+02 0.  0.
          5    1    3    3  502    0 -0.62800742556E+02  0.96584115943E+02 -0.11960988661E+02  0.11590065732E+03  0.41800000000E+01 0. -1.
         -5    1    3    3    0  502 -0.61927586416E+02  0.86798139615E+01  0.78037292408E+02  0.10008824375E+03  0.41800000000E+01 0. -1.
        -11    1    4    4    0    0  0.76476893077E+02 -0.70753011110E+02 -0.96390613774E+02  0.14193609188E+03  0.00000000000E+00 0.  1.
         11    1    4    4    0    0  0.48251435895E+02 -0.34510918794E+02  0.17416704792E+02  0.61826743306E+02  0.00000000000E+00 0. -1.
</event>
<event>
 8    1  0.6840084E-009  0.6758427E+02  0.7561462E-02  0.1368506E+00
         -1   -1    0    0    0  501 -0.00000000000E+00  0.00000000000E+00  0.26364887532E+02  0.26364887532E+02  0.00000000000E+00 0.  1.
          1   -1    0    0  501    0  0.00000000000E+00 -0.00000000000E+00 -0.51523913647E+03  0.51523913647E+03  0.00000000000E+00 0. -1.
         25    2    1    2    0    0  0.16264762975E+02  0.12415007817E-02 -0.37777517812E+03  0.39827889507E+03  0.12508976991E+03 0.  0.
         23    2    1    2    0    0 -0.16264762975E+02 -0.12415007817E-02 -0.11109907083E+03  0.14332512894E+03  0.89076071598E+02 0.  0.
          5    1    3    3  502    0  0.39128867399E+02 -0.32306635386E+01 -0.37202975310E+03  0.37411911878E+03  0.41800000000E+01 0. -1.
         -5    1    3    3    0  502 -0.22864104425E+02  0.32319050393E+01 -0.57454250221E+01  0.24159776283E+02  0.41800000000E+01 0. -1.
        -11    1    4    4    0    0 -0.18524847239E+02 -0.33693364428E+02 -0.14668489008E+02  0.41153096378E+02  0.00000000000E+00 0.  1.
         11    1    4    4    0    0  0.22600842645E+01  0.33692122928E+02 -0.96430581818E+02  0.10217203256E+03  0.00000000000E+00 0. -1.
</event>
<event>
 8    1  0.6840084E-009  0.6032122E+02  0.7561462E-02  0.1396489E+00
         -2   -1    0    0    0  501 -0.00000000000E+00  0.00000000000E+00  0.16057641647E+03  0.16057641647E+03  0.00000000000E+00 0.  1.
          2   -1    0    0  501    0  0.00000000000E+00 -0.00000000000E+00 -0.86085685785E+02  0.86085685785E+02  0.00000000000E+00 0. -1.
         25    2    1    2    0    0 -0.43572677533E+02 -0.98698810715E+01  0.42351857722E+02  0.13941710969E+03  0.12508979912E+03 0.  0.
         23    2    1    2    0    0  0.43572677533E+02  0.98698810715E+01  0.32138872967E+02  0.10724499257E+03  0.92046664768E+02 0.  0.
          5    1    3    3  502    0 -0.17821627400E+02 -0.35153600631E+02  0.78643350570E+02  0.88066083309E+02  0.41800000000E+01 0.  1.
         -5    1    3    3    0  502 -0.25751050133E+02  0.25283719559E+02 -0.36291492848E+02  0.51351026385E+02  0.41800000000E+01 0.  1.
        -11    1    4    4    0    0  0.13324820801E+02  0.28173179471E+01 -0.32660610442E+02  0.35386489007E+02  0.00000000000E+00 0. -1.
         11    1    4    4    0    0  0.30247856733E+02  0.70525631244E+01  0.64799483409E+02  0.71858503558E+02  0.00000000000E+00 0.  1.
</event>
<event>
 8    1  0.6840084E-009  0.1014954E+03  0.7561462E-02  0.1277182E+00
         -1   -1    0    0    0  501 -0.00000000000E+00  0.00000000000E+00  0.24225980060E+02  0.24225980060E+02  0.00000000000E+00 0.  1.
          1   -1    0    0  501    0  0.00000000000E+00 -0.00000000000E+00 -0.75867329944E+03  0.75867329944E+03  0.00000000000E+00 0. -1.
         25    2    1    2    0    0 -0.75744883447E+02  0.20272887292E+02 -0.46596355433E+03  0.48879093251E+03  0.12508502872E+03 0.  0.
         23    2    1    2    0    0  0.75744883447E+02 -0.20272887292E+02 -0.26848376505E+03  0.29410834699E+03  0.90928050393E+02 0.  0.
          5    1    3    3  502    0  0.28689838417E+00  0.14860541761E+02 -0.34761531753E+03  0.34795804257E+03  0.41800000000E+01 0. -1.
         -5    1    3    3    0  502 -0.76031781831E+02  0.54123455310E+01 -0.11834823680E+03  0.14083288993E+03  0.41800000000E+01 0. -1.
        -11    1    4    4    0    0  0.90153529664E+02 -0.28586444854E+02 -0.17279753805E+03  0.19698688508E+03  0.00000000000E+00 0.  1.
         11    1    4    4    0    0 -0.14408646217E+02  0.83135575625E+01 -0.95686227006E+02  0.97121461912E+02  0.00000000000E+00 0. -1.
</event>
<event>
 8    1  0.6840084E-009  0.1079446E+03  0.7561462E-02  0.1264424E+00
         -1   -1    0    0    0  501 -0.00000000000E+00  0.00000000000E+00  0.15589981681E+03  0.15589981681E+03  0.00000000000E+00 0.  1.
          1   -1    0    0  501    0  0.00000000000E+00 -0.00000000000E+00 -0.11132814116E+03  0.11132814116E+03  0.00000000000E+00 0. -1.
         25    2    1    2    0    0  0.10801940092E+02  0.31128166327E+02 -0.43698440288E+02  0.13653700161E+03  0.12508858652E+03 0.  0.
         23    2    1    2    0    0 -0.10801940092E+02 -0.31128166327E+02  0.88270115943E+02  0.13069095636E+03  0.90569686188E+02 0.  0.
          5    1    3    3  502    0  0.15603628440E+02 -0.43361811500E+02 -0.40844752114E+02  0.61721034440E+02  0.41800000000E+01 0.  1.
         -5    1    3    3    0  502 -0.48016883479E+01  0.74489977827E+02 -0.28536881732E+01  0.74815967172E+02  0.41800000000E+01 0.  1.
        -11    1    4    4    0    0  0.37733240201E+02 -0.10353922149E+01  0.24077096132E+02  0.44772491680E+02  0.00000000000E+00 0.  1.
         11    1    4    4    0    0 -0.48535180293E+02 -0.30092774112E+02  0.64193019811E+02  0.85918464676E+02  0.00000000000E+00 0. -1.
</event>
<event>
 8    1  0.6840084E-009  0.1125342E+03  0.7561462E-02  0.1255948E+00
         -1   -1    0    0    0  501 -0.00000000000E+00  0.00000000000E+00  0.14358999702E+03  0.14358999702E+03  0.00000000000E+00 0. -1.
          1   -1    0    0  501    0  0.00000000000E+00 -0.00000000000E+00 -0.13147843268E+03  0.13147843268E+03  0.00000000000E+00 0.  1.
         25    2    1    2    0    0 -0.66606485434E+01  0.64407486770E+02 -0.46228075260E+02  0.14825498474E+03  0.12509922848E+03 0.  0.
         23    2    1    2    0    0  0.66606485434E+01 -0.64407486770E+02  0.58339639592E+02  0.12681344496E+03  0.92116489756E+02 0.  0.
          5    1    3    3  502    0 -0.53544610564E+01  0.10165582864E+03 -0.24047299280E+02  0.10468200778E+03  0.41800000000E+01 0. -1.
         -5    1    3    3    0  502 -0.13061874871E+01 -0.37248341871E+02 -0.22180775980E+02  0.43572976958E+02  0.41800000000E+01 0. -1.
        -11    1    4    4    0    0  0.24635554548E+02 -0.63006602680E+02  0.75880425202E+02  0.10165914350E+03  0.00000000000E+00 0. -1.
         11    1    4    4    0    0 -0.17974906005E+02 -0.14008840894E+01 -0.17540785610E+02  0.25154301460E+02  0.00000000000E+00 0.  1.
</event>
<event>
 8    1  0.6840084E-009  0.1142994E+03  0.7561462E-02  0.1252809E+00
          1   -1    0    0  501    0  0.00000000000E+00  0.00000000000E+00  0.23200747363E+03  0.23200747363E+03  0.00000000000E+00 0. -1.
         -1   -1    0    0    0  501 -0.00000000000E+00 -0.00000000000E+00 -0.84887015577E+02  0.84887015577E+02  0.00000000000E+00 0.  1.
         25    2    1    2    0    0  0.10615285789E+02  0.36863974201E+02  0.17098822400E+03  0.21526953257E+03  0.12502944461E+03 0.  0.
         23    2    1    2    0    0 -0.10615285789E+02 -0.36863974201E+02 -0.23867765944E+02  0.10162495664E+03  0.91029251753E+02 0.  0.
          5    1    3    3  502    0 -0.51467353260E+02  0.44262750797E+02  0.84592382507E+02  0.10854226429E+03  0.41800000000E+01 0.  1.
         -5    1    3    3    0  502  0.62082639049E+02 -0.73987765962E+01  0.86395841490E+02  0.10672726827E+03  0.41800000000E+01 0.  1.
        -11    1    4    4    0    0 -0.50409235252E+02 -0.15382115551E+02 -0.61723215106E+01  0.53064093607E+02  0.00000000000E+00 0.  1.
         11    1    4    4    0    0  0.39793949462E+02 -0.21481858650E+02 -0.17695444433E+02  0.48560863033E+02  0.00000000000E+00 0. -1.
</event>
<event>
 8    1  0.6840084E-009  0.1717013E+03  0.7561462E-02  0.1176085E+00
         -2   -1    0    0    0  501 -0.00000000000E+00  0.00000000000E+00  0.53976320082E+02  0.53976320082E+02  0.00000000000E+00 0.  1.
          2   -1    0    0  501    0  0.00000000000E+00 -0.00000000000E+00 -0.67666221551E+03  0.67666221551E+03  0.00000000000E+00 0. -1.
         25    2    1    2    0    0  0.81626151058E+02 -0.12642271035E+03 -0.24311941780E+03  0.31208960017E+03  0.12508931605E+03 0.  0.
         23    2    1    2    0    0 -0.81626151058E+02  0.12642271035E+03 -0.37956647762E+03  0.41854893542E+03  0.92016140866E+02 0.  0.
          5    1    3    3  502    0 -0.23464209759E+02  0.25420653114E+01 -0.10730793737E+02  0.26261256061E+02  0.41800000000E+01 0. -1.
         -5    1    3    3    0  502  0.10509036082E+03 -0.12896477566E+03 -0.23238862407E+03  0.28582834411E+03  0.41800000000E+01 0. -1.
        -11    1    4    4    0    0 -0.70088331614E+02  0.85783839652E+02 -0.15783664085E+03  0.19283061627E+03  0.00000000000E+00 0.  1.
         11    1    4    4    0    0 -0.11537819443E+02  0.40638870701E+02 -0.22172983677E+03  0.22571831915E+03  0.00000000000E+00 0. -1.
</event>
<event>
 8    1  0.6840084E-009  0.9787883E+02  0.7561462E-02  0.1284821E+00
          2   -1    0    0  501    0  0.00000000000E+00  0.00000000000E+00  0.38891130408E+03  0.38891130408E+03  0.00000000000E+00 0. -1.
         -2   -1    0    0    0  501 -0.00000000000E+00 -0.00000000000E+00 -0.31554406586E+02  0.31554406586E+02  0.00000000000E+00 0.  1.
         25    2    1    2    0    0 -0.72381541561E+01 -0.38473060339E+02  0.27414313757E+03  0.30386724437E+03  0.12509306567E+03 0.  0.
         23    2    1    2    0    0  0.72381541561E+01  0.38473060339E+02  0.83213759927E+02  0.11659846630E+03  0.71680577944E+02 0.  0.
          5    1    3    3  502    0 -0.50518469979E+02  0.18127785569E+02  0.16409074285E+03  0.17269619773E+03  0.41800000000E+01 0.  1.
         -5    1    3    3    0  502  0.43280315823E+02 -0.56600845908E+02  0.11005239471E+03  0.13117104664E+03  0.41800000000E+01 0.  1.
        -11    1    4    4    0    0 -0.70126959688E+01  0.51057149365E+02  0.28972907626E+02  0.59122244395E+02  0.00000000000E+00 0.  1.
         11    1    4    4    0    0  0.14250850125E+02 -0.12584089025E+02  0.54240852301E+02  0.57476221903E+02  0.00000000000E+00 0. -1.
</event>
<event>
 8    1  0.6840084E-009  0.2827904E+03  0.7561462E-02  0.1094175E+00
         -2   -1    0    0    0  501 -0.00000000000E+00  0.00000000000E+00  0.57266242466E+02  0.57266242466E+02  0.00000000000E+00 0.  1.
          2   -1    0    0  501    0  0.00000000000E+00 -0.00000000000E+00 -0.14676609059E+04  0.14676609059E+04  0.00000000000E+00 0. -1.
         25    2    1    2    0    0 -0.12425775682E+03  0.23707602888E+03 -0.74661155351E+03  0.80294573393E+03  0.12509199098E+03 0.  0.
         23    2    1    2    0    0  0.12425775682E+03 -0.23707602888E+03 -0.66378310989E+03  0.72198141440E+03  0.94890000347E+02 0.  0.
          5    1    3    3  502    0 -0.63171690276E+02  0.20716727172E+03 -0.64662902379E+03  0.68194978388E+03  0.41800000000E+01 0. -1.
         -5    1    3    3    0  502 -0.61086066540E+02  0.29908757157E+02 -0.99982529723E+02  0.12099595006E+03  0.41800000000E+01 0. -1.
        -11    1    4    4    0    0  0.29245583948E+02 -0.14702691359E+03 -0.40756267158E+03  0.43425746829E+03  0.00000000000E+00 0. -1.
         11    1    4    4    0    0  0.95012172868E+02 -0.90049115288E+02 -0.25622043831E+03  0.28772394611E+03  0.00000000000E+00 0.  1.
</event>
<event>
 8    1  0.6840084E-009  0.8708868E+02  0.7561462E-02  0.1310059E+00
          1   -1    0    0  501    0  0.00000000000E+00  0.00000000000E+00  0.93296826867E+02  0.93296826867E+02  0.00000000000E+00 0. -1.
         -1   -1    0    0    0  501 -0.00000000000E+00 -0.00000000000E+00 -0.15902435045E+03  0.15902435045E+03  0.00000000000E+00 0.  1.
         25    2    1    2    0    0  0.65525751687E+01  0.30410048318E+02  0.11098800642E+02  0.12938106238E+03  0.12509423906E+03 0.  0.
         23    2    1    2    0    0 -0.65525751687E+01 -0.30410048318E+02 -0.76826324228E+02  0.12294011494E+03  0.90798020280E+02 0.  0.
          5    1    3    3  502    0  0.39506395406E+02  0.16624707437E+02 -0.45291939660E+02  0.62497746948E+02  0.41800000000E+01 0. -1.
         -5    1    3    3    0  502 -0.32953820238E+02  0.13785340881E+02  0.56390740302E+02  0.66883315433E+02  0.41800000000E+01 0. -1.
        -11    1    4    4    0    0  0.17809182653E+02 -0.56625455794E+02 -0.39938553154E+02  0.71545071520E+02  0.00000000000E+00 0.  1.
         11    1    4    4    0    0 -0.24361757822E+02  0.26215407476E+02 -0.36887771073E+02  0.51395043420E+02  0.00000000000E+00 0. -1.
</event>
<event>
 8    1  0.6840084E-009  0.2689863E+03  0.7561462E-02  0.1101861E+00
         -1   -1    0    0    0  501 -0.00000000000E+00  0.00000000000E+00  0.29695625826E+03  0.29695625826E+03  0.00000000000E+00 0.  1.
          1   -1    0    0  501    0  0.00000000000E+00 -0.00000000000E+00 -0.32305859742E+03  0.32305859742E+03  0.00000000000E+00 0. -1.
         25    2    1    2    0    0 -0.25389513170E+03 -0.70995668361E+02 -0.13265922529E+03  0.32054497459E+03  0.12508991909E+03 0.  0.
         23    2    1    2    0    0  0.25389513170E+03  0.70995668361E+02  0.10655688613E+03  0.29946988109E+03  0.93939964199E+02 0.  0.
          5    1    3    3  502    0 -0.23567950780E+03 -0.41512230863E+02 -0.70936531043E+02  0.24963485242E+03  0.41800000000E+01 0. -1.
         -5    1    3    3    0  502 -0.18215623897E+02 -0.29483437498E+02 -0.61722694252E+02  0.70910122172E+02  0.41800000000E+01 0. -1.
        -11    1    4    4    0    0  0.78287652828E+02  0.25136188719E+02  0.82340485238E+02  0.11636468570E+03  0.00000000000E+00 0.  1.
         11    1    4    4    0    0  0.17560747887E+03  0.45859479642E+02  0.24216400896E+02  0.18310519539E+03  0.00000000000E+00 0. -1.
</event>
