<event>
 8    1  0.1273312E-005  0.1418006E+03  0.7546771E-02  0.1221504E+00
         -2   -1    0    0    0  501 -0.00000000000E+00  0.00000000000E+00  0.15037380848E+02  0.15037380848E+02  0.00000000000E+00 0. -1.
          2   -1    0    0  501    0  0.00000000000E+00 -0.00000000000E+00 -0.11847721582E+04  0.11847721582E+04  0.00000000000E+00 0.  1.
         23    2    1    2    0    0  0.66054913883E+02 -0.10898080482E+02 -0.35033986000E+03  0.36823546059E+03  0.91527684992E+02 0.  0.
         23    2    1    2    0    0 -0.66054913883E+02  0.10898080482E+02 -0.81939491734E+03  0.83157407845E+03  0.12500159033E+03 0.  0.
          5    1    4    4  502    0 -0.76654800082E+02  0.73020410413E+01 -0.81503056453E+03  0.81867343264E+03  0.47000000000E+01 0. -1.
         -5    1    4    4    0  502  0.10599886199E+02  0.35960394405E+01 -0.43643528074E+01  0.12900645818E+02  0.47000000000E+01 0. -1.
        -11    1    3    3    0    0  0.57631552459E+02  0.12979761951E+01 -0.34857393515E+03  0.35330846133E+03  0.00000000000E+00 0.  1.
         11    1    3    3    0    0  0.84233614235E+01 -0.12196056677E+02 -0.17659248498E+01  0.14926999253E+02  0.00000000000E+00 0. -1.
<mgrwt>
<rscale>  0 0.13409449E+03</rscale>
<asrwt>0</asrwt>
<pdfrwt beam="2">  1        2 0.18227267E+00 0.14180063E+03</pdfrwt>
<pdfrwt beam="1">  1       -2 0.23134428E-02 0.14180063E+03</pdfrwt>
<totfact> 0.12299647E+04</totfact>
</mgrwt>
</event>
<event>
 8    1  0.1273312E-005  0.1993695E+03  0.7546771E-02  0.1154570E+00
          1   -1    0    0  501    0  0.00000000000E+00  0.00000000000E+00  0.94926664575E+03  0.94926664575E+03  0.00000000000E+00 0. -1.
         -1   -1    0    0    0  501 -0.00000000000E+00 -0.00000000000E+00 -0.41414404677E+02  0.41414404677E+02  0.00000000000E+00 0.  1.
         23    2    1    2    0    0  0.30555642642E+02 -0.15228294337E+03  0.28939990960E+03  0.34088764550E+03  0.91259723003E+02 0.  0.
         23    2    1    2    0    0 -0.30555642642E+02  0.15228294337E+03  0.61845233148E+03  0.64979340493E+03  0.12499776253E+03 0.  0.
          5    1    4    4  502    0 -0.62557654718E+02  0.40154930610E+02  0.33648386074E+03  0.34462930397E+03  0.47000000000E+01 0.  1.
         -5    1    4    4    0  502  0.32002012076E+02  0.11212801276E+03  0.28196847074E+03  0.30516410096E+03  0.47000000000E+01 0.  1.
        -11    1    3    3    0    0 -0.24305789070E+02 -0.10142912195E+03  0.15022887857E+03  0.18288617804E+03  0.00000000000E+00 0.  1.
         11    1    3    3    0    0  0.54861431712E+02 -0.50853821417E+02  0.13917103103E+03  0.15800146746E+03  0.00000000000E+00 0. -1.
<mgrwt>
<rscale>  0 0.19437898E+03</rscale>
<asrwt>0</asrwt>
<pdfrwt beam="1">  1        1 0.14604101E+00 0.19936946E+03</pdfrwt>
<pdfrwt beam="2">  1       -1 0.63714476E-02 0.19936946E+03</pdfrwt>
<totfact> 0.21232424E+03</totfact>
</mgrwt>
</event>
<event>
 8    1  0.1273312E-005  0.1579537E+03  0.7546771E-02  0.1198324E+00
         -2   -1    0    0    0  501 -0.00000000000E+00  0.00000000000E+00  0.14372718178E+02  0.14372718178E+02  0.00000000000E+00 0.  1.
          2   -1    0    0  501    0  0.00000000000E+00 -0.00000000000E+00 -0.17004995783E+04  0.17004995783E+04  0.00000000000E+00 0. -1.
         23    2    1    2    0    0  0.73125316498E+02  0.63072468174E+02 -0.48245454320E+03  0.50088036270E+03  0.93772615057E+02 0.  0.
         23    2    1    2    0    0 -0.73125316498E+02 -0.63072468174E+02 -0.12036723169E+04  0.12139919338E+04  0.12499568227E+03 0.  0.
          5    1    4    4  502    0  0.24237600503E+01  0.32145527793E+02 -0.16212714766E+03  0.16536780696E+03  0.47000000000E+01 0. -1.
         -5    1    4    4    0  502 -0.75549076548E+02 -0.95217995967E+02 -0.10415451693E+04  0.10486241268E+04  0.47000000000E+01 0. -1.
        -11    1    3    3    0    0  0.72621872884E+02  0.22874590241E+02 -0.41828439733E+03  0.42515764176E+03  0.00000000000E+00 0. -1.
         11    1    3    3    0    0  0.50344361389E+00  0.40197877934E+02 -0.64170145868E+02  0.75722720940E+02  0.00000000000E+00 0.  1.
<mgrwt>
<rscale>  0 0.15176211E+03</rscale>
<asrwt>0</asrwt>
<pdfrwt beam="2">  1        2 0.26161530E+00 0.15795369E+03</pdfrwt>
<pdfrwt beam="1">  1       -2 0.22111876E-02 0.15795369E+03</pdfrwt>
<totfact> 0.70304781E+03</totfact>
</mgrwt>
</event>
<event>
 8    1  0.1273312E-005  0.1297649E+03  0.7546771E-02  0.1242777E+00
         -1   -1    0    0    0  501 -0.00000000000E+00  0.00000000000E+00  0.67186583667E+02  0.67186583667E+02  0.00000000000E+00 0.  1.
          1   -1    0    0  501    0  0.00000000000E+00 -0.00000000000E+00 -0.22914282712E+03  0.22914282712E+03  0.00000000000E+00 0. -1.
         23    2    1    2    0    0  0.27163826701E+02  0.21830571135E+02 -0.92872032058E+01  0.95962805371E+02  0.88927839028E+02 0.  0.
         23    2    1    2    0    0 -0.27163826701E+02 -0.21830571135E+02 -0.15266904024E+03  0.20036660541E+03  0.12499797358E+03 0.  0.
          5    1    4    4  502    0 -0.51686764123E+01 -0.51327772455E+02 -0.15477442111E+03  0.16321294946E+03  0.47000000000E+01 0. -1.
         -5    1    4    4    0  502 -0.21995150288E+02  0.29497201319E+02  0.21053808706E+01  0.37153655950E+02  0.47000000000E+01 0. -1.
        -11    1    3    3    0    0  0.10004877928E+02  0.51715576771E+02  0.13838215919E+02  0.54461864483E+02  0.00000000000E+00 0.  1.
         11    1    3    3    0    0  0.17158948773E+02 -0.29885005636E+02 -0.23125419125E+02  0.41500940888E+02  0.00000000000E+00 0. -1.
<mgrwt>
<rscale>  0 0.12019403E+03</rscale>
<asrwt>0</asrwt>
<pdfrwt beam="2">  1        1 0.35252743E-01 0.12976494E+03</pdfrwt>
<pdfrwt beam="1">  1       -1 0.10336397E-01 0.12976494E+03</pdfrwt>
<totfact> 0.67701627E+03</totfact>
</mgrwt>
</event>
<event>
 8    1  0.1273312E-005  0.1922512E+03  0.7546771E-02  0.1160423E+00
         -1   -1    0    0    0  501 -0.00000000000E+00  0.00000000000E+00  0.33944934627E+02  0.33944934627E+02  0.00000000000E+00 0.  1.
          1   -1    0    0  501    0  0.00000000000E+00 -0.00000000000E+00 -0.20776302922E+04  0.20776302922E+04  0.00000000000E+00 0. -1.
         23    2    1    2    0    0 -0.13124157045E+03  0.72121177996E+02 -0.23722685187E+03  0.29491541717E+03  0.90954438639E+02 0.  0.
         23    2    1    2    0    0  0.13124157045E+03 -0.72121177996E+02 -0.18064585057E+04  0.18166598097E+04  0.12056001433E+03 0.  0.
          5    1    4    4  502    0  0.11089292801E+03 -0.83077476309E+02 -0.96884717205E+03  0.97871652757E+03  0.47000000000E+01 0. -1.
         -5    1    4    4    0  502  0.20348642437E+02  0.10956298313E+02 -0.83761133368E+03  0.83794328211E+03  0.47000000000E+01 0.  1.
        -11    1    3    3    0    0 -0.23094441856E+02  0.25275672995E+02 -0.51440523953E+01  0.34621874083E+02  0.00000000000E+00 0.  1.
         11    1    3    3    0    0 -0.10814712860E+03  0.46845505001E+02 -0.23208279947E+03  0.26029354309E+03  0.00000000000E+00 0. -1.
<mgrwt>
<rscale>  0 0.18784149E+03</rscale>
<asrwt>0</asrwt>
<pdfrwt beam="2">  1        1 0.31963555E+00 0.19225122E+03</pdfrwt>
<pdfrwt beam="1">  1       -1 0.52222957E-02 0.19225122E+03</pdfrwt>
<totfact> 0.50191685E+02</totfact>
</mgrwt>
</event>
<event>
 8    1  0.1273312E-005  0.1447392E+03  0.7546771E-02  0.1217437E+00
          2   -1    0    0  501    0  0.00000000000E+00  0.00000000000E+00  0.52124748833E+03  0.52124748833E+03  0.00000000000E+00 0. -1.
         -2   -1    0    0    0  501 -0.00000000000E+00 -0.00000000000E+00 -0.42411037126E+02  0.42411037126E+02  0.00000000000E+00 0.  1.
         23    2    1    2    0    0 -0.34506436032E+02  0.64257305073E+02  0.84592477399E+02  0.14368502683E+03  0.90386969858E+02 0.  0.
         23    2    1    2    0    0  0.34506436032E+02 -0.64257305073E+02  0.39424397381E+03  0.41997349863E+03  0.12501893170E+03 0.  0.
          5    1    4    4  502    0  0.14829321820E+02  0.37033023636E+02  0.86833381383E+02  0.95673819552E+02  0.47000000000E+01 0. -1.
         -5    1    4    4    0  502  0.19677114212E+02 -0.10129032871E+03  0.30741059242E+03  0.32429967908E+03  0.47000000000E+01 0. -1.
        -11    1    3    3    0    0 -0.25352493903E+02 -0.41373085669E+01  0.68033479051E+02  0.72721527356E+02  0.00000000000E+00 0. -1.
         11    1    3    3    0    0 -0.91539421296E+01  0.68394613640E+02  0.16558998348E+02  0.70963499475E+02  0.00000000000E+00 0.  1.
<mgrwt>
<rscale>  0 0.13699006E+03</rscale>
<asrwt>0</asrwt>
<pdfrwt beam="1">  1        2 0.80191917E-01 0.14473917E+03</pdfrwt>
<pdfrwt beam="2">  1       -2 0.65247753E-02 0.14473917E+03</pdfrwt>
<totfact> 0.74222727E+03</totfact>
</mgrwt>
</event>
<event>
 8    1  0.1273312E-005  0.1272829E+03  0.7546771E-02  0.1246252E+00
          1   -1    0    0  501    0  0.00000000000E+00  0.00000000000E+00  0.64317475410E+02  0.64317475410E+02  0.00000000000E+00 0. -1.
         -1   -1    0    0    0  501 -0.00000000000E+00 -0.00000000000E+00 -0.19796947179E+03  0.19796947179E+03  0.00000000000E+00 0.  1.
         23    2    1    2    0    0  0.83787978707E+01  0.22470354380E+02 -0.81675411595E+02  0.12480056598E+03  0.91264381493E+02 0.  0.
         23    2    1    2    0    0 -0.83787978707E+01 -0.22470354380E+02 -0.51976584784E+02  0.13748638122E+03  0.12500327426E+03 0.  0.
          5    1    4    4  502    0  0.44123583194E+02 -0.21725441907E+02  0.15571097014E+02  0.51801877207E+02  0.47000000000E+01 0. -1.
         -5    1    4    4    0  502 -0.52502381064E+02 -0.74491247316E+00 -0.67547681798E+02  0.85684504015E+02  0.47000000000E+01 0. -1.
        -11    1    3    3    0    0  0.29677667447E+02 -0.25811061462E+02 -0.48598870516E+02  0.62520597041E+02  0.00000000000E+00 0.  1.
         11    1    3    3    0    0 -0.21298869577E+02  0.48281415842E+02 -0.33076541079E+02  0.62279968936E+02  0.00000000000E+00 0. -1.
<mgrwt>
<rscale>  0 0.11810753E+03</rscale>
<asrwt>0</asrwt>
<pdfrwt beam="1">  1        1 0.98949962E-02 0.12728291E+03</pdfrwt>
<pdfrwt beam="2">  1       -1 0.30456842E-01 0.12728291E+03</pdfrwt>
<totfact> 0.61244867E+03</totfact>
</mgrwt>
</event>
<event>
 8    1  0.1273312E-005  0.1277845E+03  0.7546771E-02  0.1244822E+00
          2   -1    0    0  501    0  0.00000000000E+00  0.00000000000E+00  0.66567533581E+02  0.66567533581E+02  0.00000000000E+00 0.  1.
         -2   -1    0    0    0  501 -0.00000000000E+00 -0.00000000000E+00 -0.18808549439E+03  0.18808549439E+03  0.00000000000E+00 0. -1.
         23    2    1    2    0    0 -0.25450096499E+02 -0.74765968762E+01 -0.54017520400E+02  0.11013593271E+03  0.92241120171E+02 0.  0.
         23    2    1    2    0    0  0.25450096499E+02  0.74765968762E+01 -0.67500440405E+02  0.14451709526E+03  0.12500109782E+03 0.  0.
          5    1    4    4  502    0 -0.39615679835E+02 -0.22579467657E+02 -0.55021476087E+02  0.71614853761E+02  0.47000000000E+01 0. -1.
         -5    1    4    4    0  502  0.65065776334E+02  0.30056064533E+02 -0.12478964318E+02  0.72902241499E+02  0.47000000000E+01 0. -1.
        -11    1    3    3    0    0 -0.17476913094E+02 -0.46511990796E+02 -0.98500948079E+01  0.50654043736E+02  0.00000000000E+00 0.  1.
         11    1    3    3    0    0 -0.79731834048E+01  0.39035393920E+02 -0.44167425592E+02  0.59481888970E+02  0.00000000000E+00 0. -1.
<mgrwt>
<rscale>  0 0.11896058E+03</rscale>
<asrwt>0</asrwt>
<pdfrwt beam="1">  1        2 0.10241159E-01 0.12778451E+03</pdfrwt>
<pdfrwt beam="2">  1       -2 0.28936229E-01 0.12778451E+03</pdfrwt>
<totfact> 0.64011118E+03</totfact>
</mgrwt>
</event>
<event>
 8    1  0.1273312E-005  0.1293871E+03  0.7546771E-02  0.1242849E+00
          1   -1    0    0  501    0  0.00000000000E+00  0.00000000000E+00  0.58975198488E+03  0.58975198488E+03  0.00000000000E+00 0. -1.
         -1   -1    0    0    0  501 -0.00000000000E+00 -0.00000000000E+00 -0.44424449323E+02  0.44424449323E+02  0.00000000000E+00 0.  1.
         23    2    1    2    0    0 -0.26732437659E+02  0.20048664331E+02  0.26979297745E+02  0.99923772921E+02  0.90223642818E+02 0.  0.
         23    2    1    2    0    0  0.26732437659E+02 -0.20048664331E+02  0.51834823781E+03  0.53425266128E+03  0.12499775310E+03 0.  0.
          5    1    4    4  502    0  0.49727683236E+02 -0.59915941915E+02  0.39235935715E+03  0.40003839530E+03  0.47000000000E+01 0.  1.
         -5    1    4    4    0  502 -0.22995245577E+02  0.39867277584E+02  0.12598888066E+03  0.13421426597E+03  0.47000000000E+01 0.  1.
        -11    1    3    3    0    0 -0.53707040699E+02  0.35691405041E+02  0.13148170126E+02  0.65811830184E+02  0.00000000000E+00 0.  1.
         11    1    3    3    0    0  0.26974603040E+02 -0.15642740710E+02  0.13831127619E+02  0.34111942737E+02  0.00000000000E+00 0. -1.
<mgrwt>
<rscale>  0 0.12015067E+03</rscale>
<asrwt>0</asrwt>
<pdfrwt beam="1">  1        1 0.90731069E-01 0.12938706E+03</pdfrwt>
<pdfrwt beam="2">  1       -1 0.68345311E-02 0.12938706E+03</pdfrwt>
<totfact> 0.38279721E+03</totfact>
</mgrwt>
</event>
<event>
 8    1  0.1439795E-005  0.1602916E+03  0.7546771E-02  0.1198905E+00
         -2   -1    0    0    0  501 -0.00000000000E+00  0.00000000000E+00  0.59937944550E+02  0.59937944550E+02  0.00000000000E+00 0. -1.
          2   -1    0    0  501    0  0.00000000000E+00 -0.00000000000E+00 -0.34518358755E+03  0.34518358755E+03  0.00000000000E+00 0.  1.
         23    2    1    2    0    0 -0.80081062999E+02  0.60465020061E+02 -0.11864783772E+03  0.17393278596E+03  0.78142877686E+02 0.  0.
         23    2    1    2    0    0  0.80081062999E+02 -0.60465020061E+02 -0.16659780528E+03  0.23118874615E+03  0.12499764925E+03 0.  0.
          5    1    4    4  502    0  0.90056432565E+02  0.62266123026E+01 -0.75658804020E+02  0.11787822688E+03  0.47000000000E+01 0. -1.
         -5    1    4    4    0  502 -0.99753695655E+01 -0.66691632364E+02 -0.90939001262E+02  0.11331051926E+03  0.47000000000E+01 0. -1.
        -11    1    3    3    0    0 -0.61811827613E+02  0.45202495289E+02 -0.12733861672E+03  0.14859034599E+03  0.00000000000E+00 0.  1.
         11    1    3    3    0    0 -0.18269235386E+02  0.15262524773E+02  0.86907789968E+01  0.25342439970E+02  0.00000000000E+00 0. -1.
<mgrwt>
<rscale>  0 0.15128285E+03</rscale>
<asrwt>0</asrwt>
<pdfrwt beam="2">  1        2 0.53105169E-01 0.16029163E+03</pdfrwt>
<pdfrwt beam="1">  1       -2 0.92212219E-02 0.16029163E+03</pdfrwt>
<totfact> 0.68343300E+03</totfact>
</mgrwt>
</event>
<event>
 6    1  0.1962397E-005  0.3146506E+03  0.7546771E-02  0.1175466E+00
          2   -1    0    0  501    0  0.00000000000E+00  0.00000000000E+00  0.17922740802E+04  0.17922740802E+04  0.00000000000E+00 0. -1.
         -2   -1    0    0    0  501 -0.00000000000E+00 -0.00000000000E+00 -0.51774048992E+02  0.51774048992E+02  0.00000000000E+00 0.  1.
          5    1    1    2  502    0  0.14419187851E+03  0.41233530629E+02  0.10636152041E+04  0.10741465888E+04  0.47000000000E+01 0. -1.
         -5    1    1    2    0  502 -0.14683988398E+03 -0.55463857830E+02  0.70953054829E+03  0.72670068117E+03  0.47000000000E+01 0.  1.
        -11    1    1    2    0    0  0.11976741900E+02  0.85273669434E+01 -0.92335010014E+01  0.17361332733E+02  0.00000000000E+00 0. -1.
         11    1    1    2    0    0 -0.93287364364E+01  0.57029602583E+01 -0.23412220134E+02  0.25839526520E+02  0.00000000000E+00 0.  1.
<mgrwt>
<rscale>  0 0.17230444E+03</rscale>
<asrwt>0</asrwt>
<pdfrwt beam="1">  1        2 0.27573443E+00 0.31465065E+03</pdfrwt>
<pdfrwt beam="2">  1       -2 0.79652397E-02 0.31465065E+03</pdfrwt>
<totfact> 0.90614068E+02</totfact>
</mgrwt>
</event>
<event>
 8    1  0.1273312E-005  0.1581188E+03  0.7546771E-02  0.1198789E+00
          2   -1    0    0  501    0  0.00000000000E+00  0.00000000000E+00  0.13994597059E+03  0.13994597059E+03  0.00000000000E+00 0. -1.
         -2   -1    0    0    0  501 -0.00000000000E+00 -0.00000000000E+00 -0.15129965224E+03  0.15129965224E+03  0.00000000000E+00 0.  1.
         23    2    1    2    0    0 -0.77939493429E+02 -0.57482352398E+02 -0.83804033619E+01  0.13309885051E+03  0.90919125451E+02 0.  0.
         23    2    1    2    0    0  0.77939493429E+02  0.57482352398E+02 -0.29732782911E+01  0.15814677233E+03  0.12499110265E+03 0.  0.
          5    1    4    4  502    0 -0.92057121713E+01  0.27980717053E+02  0.45225336676E+02  0.54176440829E+02  0.47000000000E+01 0.  1.
         -5    1    4    4    0  502  0.87145205600E+02  0.29501635346E+02 -0.48198614968E+02  0.10397033150E+03  0.47000000000E+01 0.  1.
        -11    1    3    3    0    0 -0.65347675991E+02  0.81724362384E+01 -0.70644084080E+01  0.66234532819E+02  0.00000000000E+00 0. -1.
         11    1    3    3    0    0 -0.12591817437E+02 -0.65654788637E+02 -0.13159949539E+01  0.66864317689E+02  0.00000000000E+00 0.  1.
<mgrwt>
<rscale>  0 0.15137899E+03</rscale>
<asrwt>0</asrwt>
<pdfrwt beam="1">  1        2 0.21530149E-01 0.15811882E+03</pdfrwt>
<pdfrwt beam="2">  1       -2 0.23276870E-01 0.15811882E+03</pdfrwt>
<totfact> 0.39794025E+03</totfact>
</mgrwt>
</event>
<event>
 8    1  0.1273312E-005  0.1425848E+03  0.7546771E-02  0.1220597E+00
          1   -1    0    0  501    0  0.00000000000E+00  0.00000000000E+00  0.82682483200E+02  0.82682483200E+02  0.00000000000E+00 0. -1.
         -1   -1    0    0    0  501 -0.00000000000E+00 -0.00000000000E+00 -0.20118612568E+03  0.20118612568E+03  0.00000000000E+00 0.  1.
         23    2    1    2    0    0  0.40249646181E+02 -0.55546757095E+02 -0.36544538644E+02  0.11940666042E+03  0.90647509657E+02 0.  0.
         23    2    1    2    0    0 -0.40249646181E+02  0.55546757095E+02 -0.81959103834E+02  0.16446194846E+03  0.12499984619E+03 0.  0.
          5    1    4    4  502    0  0.10119740900E+02  0.81676880553E+02 -0.31068666186E+02  0.88095822780E+02  0.47000000000E+01 0.  1.
         -5    1    4    4    0  502 -0.50369387081E+02 -0.26130123458E+02 -0.50890437648E+02  0.76366125676E+02  0.47000000000E+01 0.  1.
        -11    1    3    3    0    0  0.52657498716E+01 -0.69802093566E+02 -0.49779152254E+01  0.70177204474E+02  0.00000000000E+00 0. -1.
         11    1    3    3    0    0  0.34983896309E+02  0.14255336470E+02 -0.31566623418E+02  0.49229455948E+02  0.00000000000E+00 0.  1.
<mgrwt>
<rscale>  0 0.13473273E+03</rscale>
<asrwt>0</asrwt>
<pdfrwt beam="1">  1        1 0.12720382E-01 0.14258484E+03</pdfrwt>
<pdfrwt beam="2">  1       -1 0.30951711E-01 0.14258484E+03</pdfrwt>
<totfact> 0.43139424E+03</totfact>
</mgrwt>
</event>
<event>
 8    1  0.1273312E-005  0.1522193E+03  0.7546771E-02  0.1206335E+00
         -1   -1    0    0    0  501 -0.00000000000E+00  0.00000000000E+00  0.41887790666E+03  0.41887790666E+03  0.00000000000E+00 0.  1.
          1   -1    0    0  501    0  0.00000000000E+00 -0.00000000000E+00 -0.48837517184E+02  0.48837517184E+02  0.00000000000E+00 0. -1.
         23    2    1    2    0    0 -0.36840671355E+02  0.78704998274E+02  0.22131767483E+03  0.25490289776E+03  0.91881784242E+02 0.  0.
         23    2    1    2    0    0  0.36840671355E+02 -0.78704998274E+02  0.14872271465E+03  0.21281252608E+03  0.12497605205E+03 0.  0.
          5    1    4    4  502    0  0.41453943645E+02  0.24371424517E+02  0.38697058321E+02  0.61902730953E+02  0.47000000000E+01 0.  1.
         -5    1    4    4    0  502 -0.46132722907E+01 -0.10307642279E+03  0.11002565632E+03  0.15090979513E+03  0.47000000000E+01 0.  1.
        -11    1    3    3    0    0 -0.21219490331E+02  0.70671178597E+02  0.22514211123E+03  0.23692541548E+03  0.00000000000E+00 0. -1.
         11    1    3    3    0    0 -0.15621181023E+02  0.80338196774E+01 -0.38244363998E+01  0.17977482275E+02  0.00000000000E+00 0.  1.
<mgrwt>
<rscale>  0 0.14532720E+03</rscale>
<asrwt>0</asrwt>
<pdfrwt beam="2">  1        1 0.75134645E-02 0.15221933E+03</pdfrwt>
<pdfrwt beam="1">  1       -1 0.64442752E-01 0.15221933E+03</pdfrwt>
<totfact> 0.23332156E+03</totfact>
</mgrwt>
</event>
<event>
 8    1  0.1273312E-005  0.1575773E+03  0.7546771E-02  0.1199043E+00
         -2   -1    0    0    0  501 -0.00000000000E+00  0.00000000000E+00  0.24136167779E+03  0.24136167779E+03  0.00000000000E+00 0.  1.
          2   -1    0    0  501    0  0.00000000000E+00 -0.00000000000E+00 -0.10668726774E+03  0.10668726774E+03  0.00000000000E+00 0. -1.
         23    2    1    2    0    0  0.66850281535E+02  0.69711871298E+02  0.13588201380E+03  0.19046705085E+03  0.92114443184E+02 0.  0.
         23    2    1    2    0    0 -0.66850281535E+02 -0.69711871298E+02 -0.12076037454E+01  0.15758189468E+03  0.12450658651E+03 0.  0.
          5    1    4    4  502    0 -0.10077047885E+03 -0.42819425225E+02 -0.17719241256E+02  0.11101465711E+03  0.47000000000E+01 0.  1.
         -5    1    4    4    0  502  0.33920197311E+02 -0.26892446073E+02  0.16511637510E+02  0.46567237568E+02  0.47000000000E+01 0.  1.
        -11    1    3    3    0    0  0.72115534585E+02  0.13339509387E+02  0.54698025406E+02  0.91490255341E+02  0.00000000000E+00 0.  1.
         11    1    3    3    0    0 -0.52652530499E+01  0.56372361911E+02  0.81183988394E+02  0.98976795506E+02  0.00000000000E+00 0. -1.
<mgrwt>
<rscale>  0 0.15116967E+03</rscale>
<asrwt>0</asrwt>
<pdfrwt beam="2">  1        2 0.16413426E-01 0.15757727E+03</pdfrwt>
<pdfrwt beam="1">  1       -2 0.37132566E-01 0.15757727E+03</pdfrwt>
<totfact> 0.23421551E+03</totfact>
</mgrwt>
</event>
<event>
 8    1  0.1273312E-005  0.2135777E+03  0.7546771E-02  0.1142505E+00
         -3   -1    0    0    0  501 -0.00000000000E+00  0.00000000000E+00  0.15148069041E+03  0.15148069041E+03  0.00000000000E+00 0.  1.
          3   -1    0    0  501    0  0.00000000000E+00 -0.00000000000E+00 -0.29036808759E+03  0.29036808759E+03  0.00000000000E+00 0. -1.
         23    2    1    2    0    0 -0.16916228296E+03 -0.37058792144E+02 -0.16920763933E+02  0.19589897281E+03  0.90004795662E+02 0.  0.
         23    2    1    2    0    0  0.16916228296E+03  0.37058792144E+02 -0.12196663325E+03  0.24594980519E+03  0.12500485988E+03 0.  0.
          5    1    4    4  502    0  0.10762197728E+03  0.60524713293E+02 -0.21038643921E+02  0.12534131582E+03  0.47000000000E+01 0. -1.
         -5    1    4    4    0  502  0.61540305683E+02 -0.23465921150E+02 -0.10092798933E+03  0.12060848937E+03  0.47000000000E+01 0. -1.
        -11    1    3    3    0    0 -0.11774139633E+03  0.92122088312E+01  0.16194714620E+02  0.11920641754E+03  0.00000000000E+00 0.  1.
         11    1    3    3    0    0 -0.51420886630E+02 -0.46271000975E+02 -0.33115478552E+02  0.76692555263E+02  0.00000000000E+00 0. -1.
<mgrwt>
<rscale>  0 0.20881827E+03</rscale>
<asrwt>0</asrwt>
<pdfrwt beam="2">  1        3 0.44672013E-01 0.21357773E+03</pdfrwt>
<pdfrwt beam="1">  1       -3 0.23304722E-01 0.21357773E+03</pdfrwt>
<totfact> 0.20990880E+02</totfact>
</mgrwt>
</event>
<event>
 8    1  0.1273312E-005  0.1346622E+03  0.7546771E-02  0.1232273E+00
          2   -1    0    0  501    0  0.00000000000E+00  0.00000000000E+00  0.16143411107E+03  0.16143411107E+03  0.00000000000E+00 0. -1.
         -2   -1    0    0    0  501 -0.00000000000E+00 -0.00000000000E+00 -0.10056925033E+03  0.10056925033E+03  0.00000000000E+00 0.  1.
         23    2    1    2    0    0 -0.12517865926E+02  0.48495250976E+02 -0.15786688173E+02  0.10705381125E+03  0.93288866670E+02 0.  0.
         23    2    1    2    0    0  0.12517865926E+02 -0.48495250976E+02  0.76651548910E+02  0.15494955015E+03  0.12500166722E+03 0.  0.
          5    1    4    4  502    0  0.59130881826E+02 -0.62047978602E+02  0.46803862341E+02  0.97770672310E+02  0.47000000000E+01 0. -1.
         -5    1    4    4    0  502 -0.46613015899E+02  0.13552727626E+02  0.29847686570E+02  0.57178877839E+02  0.47000000000E+01 0. -1.
        -11    1    3    3    0    0 -0.31625976410E+02  0.59718272018E+02 -0.36428460284E+02  0.76769180765E+02  0.00000000000E+00 0.  1.
         11    1    3    3    0    0  0.19108110483E+02 -0.11223021042E+02  0.20641772111E+02  0.30284630482E+02  0.00000000000E+00 0. -1.
<mgrwt>
<rscale>  0 0.12680642E+03</rscale>
<asrwt>0</asrwt>
<pdfrwt beam="1">  1        2 0.24836017E-01 0.13466218E+03</pdfrwt>
<pdfrwt beam="2">  1       -2 0.15472192E-01 0.13466218E+03</pdfrwt>
<totfact> 0.66844919E+03</totfact>
</mgrwt>
</event>
<event>
 8    1  0.1273312E-005  0.1124736E+03  0.7546771E-02  0.1265469E+00
          1   -1    0    0  501    0  0.00000000000E+00  0.00000000000E+00  0.76773953305E+03  0.76773953305E+03  0.00000000000E+00 0. -1.
         -1   -1    0    0    0  501 -0.00000000000E+00 -0.00000000000E+00 -0.18189092605E+02  0.18189092605E+02  0.00000000000E+00 0.  1.
         23    2    1    2    0    0  0.86619167951E+01 -0.13489395692E+01  0.15646348567E+03  0.18227105940E+03  0.93086348653E+02 0.  0.
         23    2    1    2    0    0 -0.86619167951E+01  0.13489395692E+01  0.59308695478E+03  0.60365756626E+03  0.11213149840E+03 0.  0.
          5    1    4    4  502    0 -0.33981868290E+02 -0.44162381708E+02  0.22350687088E+03  0.23039638595E+03  0.47000000000E+01 0. -1.
         -5    1    4    4    0  502  0.25319951495E+02  0.45511321277E+02  0.36958008390E+03  0.37326118031E+03  0.47000000000E+01 0.  1.
        -11    1    3    3    0    0  0.10377152734E+02  0.45211457921E+02  0.68470653652E+02  0.82704241958E+02  0.00000000000E+00 0.  1.
         11    1    3    3    0    0 -0.17152359391E+01 -0.46560397490E+02  0.87992832018E+02  0.99566817441E+02  0.00000000000E+00 0. -1.
<mgrwt>
<rscale>  0 0.10739620E+03</rscale>
<asrwt>0</asrwt>
<pdfrwt beam="1">  1        1 0.11811375E+00 0.11247365E+03</pdfrwt>
<pdfrwt beam="2">  1       -1 0.27983225E-02 0.11247365E+03</pdfrwt>
<totfact> 0.97326348E+03</totfact>
</mgrwt>
</event>
<event>
 8    1  0.1273312E-005  0.1310563E+03  0.7546771E-02  0.1239551E+00
          3   -1    0    0  501    0  0.00000000000E+00  0.00000000000E+00  0.40895778378E+03  0.40895778378E+03  0.00000000000E+00 0. -1.
         -3   -1    0    0    0  501 -0.00000000000E+00 -0.00000000000E+00 -0.32752229679E+02  0.32752229679E+02  0.00000000000E+00 0.  1.
         23    2    1    2    0    0  0.26038203686E+02 -0.29534518528E+02  0.13793761044E+03  0.16977738029E+03  0.90814638959E+02 0.  0.
         23    2    1    2    0    0 -0.26038203686E+02  0.29534518528E+02  0.23826794366E+03  0.27193263317E+03  0.12500187266E+03 0.  0.
          5    1    4    4  502    0  0.35496785465E+01  0.71174427385E+02  0.18342607017E+03  0.19683905240E+03  0.47000000000E+01 0. -1.
         -5    1    4    4    0  502 -0.29587882232E+02 -0.41639908857E+02  0.54841873497E+02  0.75093580773E+02  0.47000000000E+01 0. -1.
        -11    1    3    3    0    0 -0.26700237689E+02 -0.28567527377E+02  0.91485410089E+02  0.99491640716E+02  0.00000000000E+00 0. -1.
         11    1    3    3    0    0  0.52738441375E+02 -0.96699115091E+00  0.46452200351E+02  0.70285739578E+02  0.00000000000E+00 0.  1.
<mgrwt>
<rscale>  0 0.12217523E+03</rscale>
<asrwt>0</asrwt>
<pdfrwt beam="1">  1        3 0.62916579E-01 0.13105626E+03</pdfrwt>
<pdfrwt beam="2">  1       -3 0.50388048E-02 0.13105626E+03</pdfrwt>
<totfact> 0.12861236E+03</totfact>
</mgrwt>
</event>
<event>
 8    1  0.1273312E-005  0.1250434E+03  0.7546771E-02  0.1246031E+00
         -4   -1    0    0    0  501 -0.00000000000E+00  0.00000000000E+00  0.65085723005E+02  0.65085723005E+02  0.00000000000E+00 0. -1.
          4   -1    0    0  501    0  0.00000000000E+00 -0.00000000000E+00 -0.22815216594E+03  0.22815216594E+03  0.00000000000E+00 0.  1.
         23    2    1    2    0    0  0.29158152681E+01 -0.44856326158E+00 -0.17756693552E+02  0.10153296831E+03  0.99924673127E+02 0.  0.
         23    2    1    2    0    0 -0.29158152681E+01  0.44856326158E+00 -0.14530974938E+03  0.19170492064E+03  0.12500860028E+03 0.  0.
          5    1    4    4  502    0 -0.59854269771E+02  0.11466868904E+02 -0.45596921941E+02  0.76257406085E+02  0.47000000000E+01 0. -1.
         -5    1    4    4    0  502  0.56938454503E+02 -0.11018305643E+02 -0.99712827444E+02  0.11544751456E+03  0.47000000000E+01 0. -1.
        -11    1    3    3    0    0  0.23555773379E+02 -0.18513327123E+02 -0.50561850501E+02  0.58771748883E+02  0.00000000000E+00 0.  1.
         11    1    3    3    0    0 -0.20639958111E+02  0.18064763861E+02  0.32805156949E+02  0.42761219424E+02  0.00000000000E+00 0. -1.
<mgrwt>
<rscale>  0 0.11823909E+03</rscale>
<asrwt>0</asrwt>
<pdfrwt beam="2">  1        4 0.35100333E-01 0.12504341E+03</pdfrwt>
<pdfrwt beam="1">  1       -4 0.10013188E-01 0.12504341E+03</pdfrwt>
<totfact> 0.96579983E+02</totfact>
</mgrwt>
</event>
<event>
 8    1  0.1273312E-005  0.2968671E+03  0.7546771E-02  0.1088386E+00
         -2   -1    0    0    0  501 -0.00000000000E+00  0.00000000000E+00  0.66474197176E+02  0.66474197176E+02  0.00000000000E+00 0.  1.
          2   -1    0    0  501    0  0.00000000000E+00 -0.00000000000E+00 -0.21169708931E+04  0.21169708931E+04  0.00000000000E+00 0. -1.
         23    2    1    2    0    0 -0.24375101489E+03  0.11441553090E+03 -0.32287520681E+03  0.43050296340E+03  0.92622520783E+02 0.  0.
         23    2    1    2    0    0  0.24375101489E+03 -0.11441553090E+03 -0.17276214891E+04  0.17529421269E+04  0.12499847817E+03 0.  0.
          5    1    4    4  502    0  0.37590064833E+02  0.13711501473E+02 -0.49516327245E+03  0.49679953164E+03  0.47000000000E+01 0.  1.
         -5    1    4    4    0  502  0.20616095005E+03 -0.12812703237E+03 -0.12324582167E+04  0.12561425952E+04  0.47000000000E+01 0.  1.
        -11    1    3    3    0    0 -0.80985279414E+02 -0.65962771497E+01 -0.10610745971E+03  0.13364475059E+03  0.00000000000E+00 0.  1.
         11    1    3    3    0    0 -0.16276573547E+03  0.12101180805E+03 -0.21676774709E+03  0.29685821281E+03  0.00000000000E+00 0. -1.
<mgrwt>
<rscale>  0 0.29379117E+03</rscale>
<asrwt>0</asrwt>
<pdfrwt beam="2">  1        2 0.32568781E+00 0.29686713E+03</pdfrwt>
<pdfrwt beam="1">  1       -2 0.10226800E-01 0.29686713E+03</pdfrwt>
<totfact> 0.41138001E+02</totfact>
</mgrwt>
</event>
<event>
 8    1  0.1273312E-005  0.1620530E+03  0.7546771E-02  0.1191495E+00
          1   -1    0    0  501    0  0.00000000000E+00  0.00000000000E+00  0.23154278576E+03  0.23154278576E+03  0.00000000000E+00 0. -1.
         -1   -1    0    0    0  501 -0.00000000000E+00 -0.00000000000E+00 -0.10423875262E+03  0.10423875262E+03  0.00000000000E+00 0.  1.
         23    2    1    2    0    0  0.10244624170E+03 -0.11942074818E+02  0.86621745151E+02  0.16870005541E+03  0.10158019676E+03 0.  0.
         23    2    1    2    0    0 -0.10244624170E+03  0.11942074818E+02  0.40682287987E+02  0.16708148297E+03  0.12499331105E+03 0.  0.
          5    1    4    4  502    0  0.13648165304E+02 -0.11981484477E+02  0.44605478513E+02  0.48389741680E+02  0.47000000000E+01 0. -1.
         -5    1    4    4    0  502 -0.11609440700E+03  0.23923559295E+02 -0.39231905265E+01  0.11869174129E+03  0.47000000000E+01 0. -1.
        -11    1    3    3    0    0  0.48778609890E+02 -0.31121253678E+02  0.94862070660E+02  0.11111569495E+03  0.00000000000E+00 0. -1.
         11    1    3    3    0    0  0.53667631810E+02  0.19179178859E+02 -0.82403255086E+01  0.57584360466E+02  0.00000000000E+00 0.  1.
<mgrwt>
<rscale>  0 0.15754598E+03</rscale>
<asrwt>0</asrwt>
<pdfrwt beam="1">  1        1 0.35621967E-01 0.16205300E+03</pdfrwt>
<pdfrwt beam="2">  1       -1 0.16036731E-01 0.16205300E+03</pdfrwt>
<totfact> 0.34213319E+03</totfact>
</mgrwt>
</event>
<event>
 8    1  0.1273312E-005  0.1308864E+03  0.7546771E-02  0.1239493E+00
         -1   -1    0    0    0  501 -0.00000000000E+00  0.00000000000E+00  0.58394865640E+02  0.58394865640E+02  0.00000000000E+00 0.  1.
          1   -1    0    0  501    0  0.00000000000E+00 -0.00000000000E+00 -0.23142114539E+03  0.23142114539E+03  0.00000000000E+00 0. -1.
         23    2    1    2    0    0  0.38449878593E+02  0.52771175097E+01 -0.55561871895E+02  0.11394919278E+03  0.91602706263E+02 0.  0.
         23    2    1    2    0    0 -0.38449878593E+02 -0.52771175097E+01 -0.11746440785E+03  0.17586681824E+03  0.12500003805E+03 0.  0.
          5    1    4    4  502    0 -0.47363541671E+02 -0.15226614350E+02 -0.14033502246E+03  0.14896698759E+03  0.47000000000E+01 0. -1.
         -5    1    4    4    0  502  0.89136630778E+01  0.99494968403E+01  0.22870614603E+02  0.26899830653E+02  0.47000000000E+01 0. -1.
        -11    1    3    3    0    0  0.28825951578E+02  0.47681310037E+02 -0.35464844267E+02  0.66046937780E+02  0.00000000000E+00 0.  1.
         11    1    3    3    0    0  0.96239270151E+01 -0.42404192527E+02 -0.20097027628E+02  0.47902255005E+02  0.00000000000E+00 0. -1.
<mgrwt>
<rscale>  0 0.12221105E+03</rscale>
<asrwt>0</asrwt>
<pdfrwt beam="2">  1        1 0.35603253E-01 0.13088640E+03</pdfrwt>
<pdfrwt beam="1">  1       -1 0.89838255E-02 0.13088640E+03</pdfrwt>
<totfact> 0.82838314E+03</totfact>
</mgrwt>
</event>
<event>
 8    1  0.1273312E-005  0.1263461E+03  0.7546771E-02  0.1248215E+00
          2   -1    0    0  501    0  0.00000000000E+00  0.00000000000E+00  0.42936713810E+03  0.42936713810E+03  0.00000000000E+00 0. -1.
         -2   -1    0    0    0  501 -0.00000000000E+00 -0.00000000000E+00 -0.33500480642E+02  0.33500480642E+02  0.00000000000E+00 0.  1.
         23    2    1    2    0    0 -0.79956218776E+01  0.16578057094E+02  0.79334586519E+02  0.12205110894E+03  0.90905085824E+02 0.  0.
         23    2    1    2    0    0  0.79956218776E+01 -0.16578057094E+02  0.31653207093E+03  0.34081650980E+03  0.12499831789E+03 0.  0.
          5    1    4    4  502    0  0.55794476539E+02  0.21357542237E+02  0.10828169858E+03  0.12375857332E+03  0.47000000000E+01 0. -1.
         -5    1    4    4    0  502 -0.47798854661E+02 -0.37935599331E+02  0.20825037235E+03  0.21705793648E+03  0.47000000000E+01 0. -1.
        -11    1    3    3    0    0  0.54202015943E+01  0.41596423149E+02  0.83417208357E+02  0.93370614512E+02  0.00000000000E+00 0. -1.
         11    1    3    3    0    0 -0.13415823472E+02 -0.25018366055E+02 -0.40826218383E+01  0.28680494427E+02  0.00000000000E+00 0.  1.
<mgrwt>
<rscale>  0 0.11694980E+03</rscale>
<asrwt>0</asrwt>
<pdfrwt beam="1">  1        2 0.66056479E-01 0.12634612E+03</pdfrwt>
<pdfrwt beam="2">  1       -2 0.51539204E-02 0.12634612E+03</pdfrwt>
<totfact> 0.12977912E+04</totfact>
</mgrwt>
</event>
<event>
 8    1  0.1273312E-005  0.1776543E+03  0.7546771E-02  0.1176011E+00
          1   -1    0    0  501    0  0.00000000000E+00  0.00000000000E+00  0.97140235442E+02  0.97140235442E+02  0.00000000000E+00 0. -1.
         -1   -1    0    0    0  501 -0.00000000000E+00 -0.00000000000E+00 -0.32102506017E+03  0.32102506017E+03  0.00000000000E+00 0.  1.
         23    2    1    2    0    0 -0.56920668693E+02 -0.11267607331E+03 -0.17490123380E+03  0.23388171649E+03  0.90412143541E+02 0.  0.
         23    2    1    2    0    0  0.56920668693E+02  0.11267607331E+03 -0.48983590926E+02  0.18428357913E+03  0.12500074134E+03 0.  0.
          5    1    4    4  502    0  0.95688886029E+02  0.87980223739E+02 -0.25874860326E+02  0.13262157093E+03  0.47000000000E+01 0. -1.
         -5    1    4    4    0  502 -0.38768217335E+02  0.24695849570E+02 -0.23108730600E+02  0.51662008200E+02  0.47000000000E+01 0. -1.
        -11    1    3    3    0    0 -0.22531027146E+02 -0.63913070425E+02 -0.15791394640E+03  0.17184103766E+03  0.00000000000E+00 0. -1.
         11    1    3    3    0    0 -0.34389641548E+02 -0.48763002884E+02 -0.16987287401E+02  0.62040678827E+02  0.00000000000E+00 0.  1.
<mgrwt>
<rscale>  0 0.17177379E+03</rscale>
<asrwt>0</asrwt>
<pdfrwt beam="1">  1        1 0.14944652E-01 0.17765429E+03</pdfrwt>
<pdfrwt beam="2">  1       -1 0.49388470E-01 0.17765429E+03</pdfrwt>
<totfact> 0.15536922E+03</totfact>
</mgrwt>
</event>
<event>
 8    1  0.1273312E-005  0.1496507E+03  0.7546771E-02  0.1210524E+00
          2   -1    0    0  501    0  0.00000000000E+00  0.00000000000E+00  0.15630179339E+04  0.15630179339E+04  0.00000000000E+00 0. -1.
         -2   -1    0    0    0  501 -0.00000000000E+00 -0.00000000000E+00 -0.28647182910E+02  0.28647182910E+02  0.00000000000E+00 0.  1.
         23    2    1    2    0    0 -0.74620204858E+02  0.34664811289E+02  0.12525076982E+03  0.17462085489E+03  0.89637400154E+02 0.  0.
         23    2    1    2    0    0  0.74620204858E+02 -0.34664811289E+02  0.14091199812E+04  0.14170442619E+04  0.12500197918E+03 0.  0.
          5    1    4    4  502    0  0.87552015411E+02 -0.65369942148E+02  0.86522188618E+03  0.87210640811E+03  0.47000000000E+01 0.  1.
         -5    1    4    4    0  502 -0.12931810553E+02  0.30705130859E+02  0.54389809499E+03  0.54493785382E+03  0.47000000000E+01 0.  1.
        -11    1    3    3    0    0 -0.31032369505E+02 -0.25541808080E+02  0.17776210655E+02  0.43947532153E+02  0.00000000000E+00 0. -1.
         11    1    3    3    0    0 -0.43587835353E+02  0.60206619369E+02  0.10747455917E+03  0.13067332274E+03  0.00000000000E+00 0.  1.
<mgrwt>
<rscale>  0 0.14210484E+03</rscale>
<asrwt>0</asrwt>
<pdfrwt beam="1">  1        2 0.24046423E+00 0.14965066E+03</pdfrwt>
<pdfrwt beam="2">  1       -2 0.44072601E-02 0.14965066E+03</pdfrwt>
<totfact> 0.29869621E+03</totfact>
</mgrwt>
</event>
<event>
 8    1  0.1273312E-005  0.1485421E+03  0.7546771E-02  0.1212119E+00
          2   -1    0    0  501    0  0.00000000000E+00  0.00000000000E+00  0.30996671373E+03  0.30996671373E+03  0.00000000000E+00 0. -1.
         -2   -1    0    0    0  501 -0.00000000000E+00 -0.00000000000E+00 -0.66285598139E+02  0.66285598139E+02  0.00000000000E+00 0.  1.
         23    2    1    2    0    0  0.49286917526E+02 -0.63335854975E+02  0.45502999647E+02  0.12858455661E+03  0.89570276638E+02 0.  0.
         23    2    1    2    0    0 -0.49286917526E+02  0.63335854975E+02  0.19817811594E+03  0.24766775526E+03  0.12499648232E+03 0.  0.
          5    1    4    4  502    0  0.33004615035E+02  0.41372889125E+02  0.12292374487E+03  0.13391548686E+03  0.47000000000E+01 0.  1.
         -5    1    4    4    0  502 -0.82291532561E+02  0.21962965850E+02  0.75254371073E+02  0.11375226840E+03  0.47000000000E+01 0.  1.
        -11    1    3    3    0    0  0.48154817230E+01  0.16966657838E+02 -0.11007683581E+02  0.20790032233E+02  0.00000000000E+00 0.  1.
         11    1    3    3    0    0  0.44471435803E+02 -0.80302512814E+02  0.56510683229E+02  0.10779452438E+03  0.00000000000E+00 0. -1.
<mgrwt>
<rscale>  0 0.14090331E+03</rscale>
<asrwt>0</asrwt>
<pdfrwt beam="1">  1        2 0.47687186E-01 0.14854209E+03</pdfrwt>
<pdfrwt beam="2">  1       -2 0.10197785E-01 0.14854209E+03</pdfrwt>
<totfact> 0.65117126E+03</totfact>
</mgrwt>
</event>
<event>
 8    1  0.1273312E-005  0.1144530E+03  0.7546771E-02  0.1263190E+00
         -3   -1    0    0    0  501 -0.00000000000E+00  0.00000000000E+00  0.14003452541E+03  0.14003452541E+03  0.00000000000E+00 0.  1.
          3   -1    0    0  501    0  0.00000000000E+00 -0.00000000000E+00 -0.79677849979E+02  0.79677849979E+02  0.00000000000E+00 0. -1.
         23    2    1    2    0    0  0.11934192459E+01  0.14668224150E+02  0.48408230369E+02  0.10463741028E+03  0.91591756254E+02 0.  0.
         23    2    1    2    0    0 -0.11934192459E+01 -0.14668224150E+02  0.11948445058E+02  0.11507496510E+03  0.11350286871E+03 0.  0.
          5    1    4    4  502    0 -0.45547617956E+02  0.26995512329E+02  0.94553360387E+01  0.53989226398E+02  0.47000000000E+01 0. -1.
         -5    1    4    4    0  502  0.44354198710E+02 -0.41663736479E+02  0.24931090191E+01  0.61085738706E+02  0.47000000000E+01 0.  1.
        -11    1    3    3    0    0  0.22307626625E+02 -0.24848932726E+02 -0.62391090791E+01  0.33970960324E+02  0.00000000000E+00 0.  1.
         11    1    3    3    0    0 -0.21114207379E+02  0.39517156876E+02  0.54647339448E+02  0.70666449957E+02  0.00000000000E+00 0. -1.
<mgrwt>
<rscale>  0 0.10859708E+03</rscale>
<asrwt>0</asrwt>
<pdfrwt beam="2">  1        3 0.12258131E-01 0.11445297E+03</pdfrwt>
<pdfrwt beam="1">  1       -3 0.21543773E-01 0.11445297E+03</pdfrwt>
<totfact> 0.22858853E+03</totfact>
</mgrwt>
</event>
<event>
 8    1  0.1273312E-005  0.1439383E+03  0.7546771E-02  0.1217066E+00
         -1   -1    0    0    0  501 -0.00000000000E+00  0.00000000000E+00  0.98285273658E+02  0.98285273658E+02  0.00000000000E+00 0.  1.
          1   -1    0    0  501    0  0.00000000000E+00 -0.00000000000E+00 -0.22192150855E+03  0.22192150855E+03  0.00000000000E+00 0. -1.
         23    2    1    2    0    0 -0.70012269650E+02  0.30880690522E+02  0.15484294239E+02  0.12002494894E+03  0.91164083115E+02 0.  0.
         23    2    1    2    0    0  0.70012269650E+02 -0.30880690522E+02 -0.13912052913E+03  0.20018183327E+03  0.12191353411E+03 0.  0.
          5    1    4    4  502    0  0.73558111963E+02 -0.46604815896E+02 -0.33793347008E+02  0.93524782824E+02  0.47000000000E+01 0. -1.
         -5    1    4    4    0  502 -0.35458423136E+01  0.15724125373E+02 -0.10532718212E+03  0.10665705045E+03  0.47000000000E+01 0.  1.
        -11    1    3    3    0    0 -0.38457451681E+02 -0.10871246243E+02 -0.30566776628E+02  0.50313888918E+02  0.00000000000E+00 0. -1.
         11    1    3    3    0    0 -0.31554817969E+02  0.41751936765E+02  0.46051070867E+02  0.69711060017E+02  0.00000000000E+00 0.  1.
<mgrwt>
<rscale>  0 0.13725846E+03</rscale>
<asrwt>0</asrwt>
<pdfrwt beam="2">  1        1 0.34141770E-01 0.14393834E+03</pdfrwt>
<pdfrwt beam="1">  1       -1 0.15120811E-01 0.14393834E+03</pdfrwt>
<totfact> 0.39338128E+03</totfact>
</mgrwt>
</event>
<event>
 8    1  0.1273312E-005  0.2036849E+03  0.7546771E-02  0.1150814E+00
         -2   -1    0    0    0  501 -0.00000000000E+00  0.00000000000E+00  0.14015597971E+03  0.14015597971E+03  0.00000000000E+00 0.  1.
          2   -1    0    0  501    0  0.00000000000E+00 -0.00000000000E+00 -0.53117419994E+03  0.53117419994E+03  0.00000000000E+00 0. -1.
         23    2    1    2    0    0 -0.14379320684E+03  0.72020556299E+02  0.45082271218E+02  0.19000786836E+03  0.90593222691E+02 0.  0.
         23    2    1    2    0    0  0.14379320684E+03 -0.72020556299E+02 -0.43610049145E+03  0.48132231128E+03  0.12499632728E+03 0.  0.
          5    1    4    4  502    0  0.47774306072E+02 -0.19759629556E+02 -0.31021563500E+03  0.31452926331E+03  0.47000000000E+01 0. -1.
         -5    1    4    4    0  502  0.96018900769E+02 -0.52260926743E+02 -0.12588485645E+03  0.16679304797E+03  0.47000000000E+01 0. -1.
        -11    1    3    3    0    0 -0.76207205356E+02 -0.11023253380E+01  0.48566029305E+02  0.90373737733E+02  0.00000000000E+00 0.  1.
         11    1    3    3    0    0 -0.67586001486E+02  0.73122881637E+02 -0.34837580873E+01  0.99634130628E+02  0.00000000000E+00 0. -1.
<mgrwt>
<rscale>  0 0.19873142E+03</rscale>
<asrwt>0</asrwt>
<pdfrwt beam="2">  1        2 0.81719108E-01 0.20368488E+03</pdfrwt>
<pdfrwt beam="1">  1       -2 0.21562458E-01 0.20368488E+03</pdfrwt>
<totfact> 0.10714386E+03</totfact>
</mgrwt>
</event>
<event>
 8    1  0.1273312E-005  0.1563521E+03  0.7546771E-02  0.1200232E+00
          1   -1    0    0  501    0  0.00000000000E+00  0.00000000000E+00  0.11477115199E+04  0.11477115199E+04  0.00000000000E+00 0. -1.
         -1   -1    0    0    0  501 -0.00000000000E+00 -0.00000000000E+00 -0.18488897020E+02  0.18488897020E+02  0.00000000000E+00 0.  1.
         23    2    1    2    0    0 -0.43248151439E+01 -0.93828998207E+02  0.45461098182E+03  0.47370721435E+03  0.94365222418E+02 0.  0.
         23    2    1    2    0    0  0.43248151439E+01  0.93828998207E+02  0.67461164103E+03  0.69249320254E+03  0.12499353753E+03 0.  0.
          5    1    4    4  502    0 -0.48649938474E+02  0.18849578937E+02  0.12965747132E+03  0.13984016951E+03  0.47000000000E+01 0. -1.
         -5    1    4    4    0  502  0.52974753618E+02  0.74979419270E+02  0.54495416971E+03  0.55265303303E+03  0.47000000000E+01 0. -1.
        -11    1    3    3    0    0  0.35460468367E+02 -0.73848785712E+02  0.21672796978E+03  0.23169398105E+03  0.00000000000E+00 0.  1.
         11    1    3    3    0    0 -0.39785283511E+02 -0.19980212495E+02  0.23788301204E+03  0.24201323330E+03  0.00000000000E+00 0. -1.
<mgrwt>
<rscale>  0 0.15019597E+03</rscale>
<asrwt>0</asrwt>
<pdfrwt beam="1">  1        1 0.17657095E+00 0.15635207E+03</pdfrwt>
<pdfrwt beam="2">  1       -1 0.28444466E-02 0.15635207E+03</pdfrwt>
<totfact> 0.50054238E+03</totfact>
</mgrwt>
</event>
<event>
 8    1  0.1273312E-005  0.2307202E+03  0.7546771E-02  0.1129051E+00
         -2   -1    0    0    0  501 -0.00000000000E+00  0.00000000000E+00  0.28277501083E+03  0.28277501083E+03  0.00000000000E+00 0.  1.
          2   -1    0    0  501    0  0.00000000000E+00 -0.00000000000E+00 -0.22068120725E+03  0.22068120725E+03  0.00000000000E+00 0. -1.
         23    2    1    2    0    0 -0.18827101197E+03  0.47529242758E+02  0.14412379797E+03  0.25858737464E+03  0.91601082496E+02 0.  0.
         23    2    1    2    0    0  0.18827101197E+03 -0.47529242758E+02 -0.82029994376E+02  0.24486884345E+03  0.12460669182E+03 0.  0.
          5    1    4    4  502    0  0.15662389686E+03 -0.83679785710E+02 -0.84118271544E+02  0.19654853144E+03  0.47000000000E+01 0. -1.
         -5    1    4    4    0  502  0.31647115116E+02  0.36150542952E+02  0.20882771679E+01  0.48320312007E+02  0.47000000000E+01 0. -1.
        -11    1    3    3    0    0 -0.12573957989E+03 -0.81332402491E+01  0.11306949418E+03  0.16929649158E+03  0.00000000000E+00 0.  1.
         11    1    3    3    0    0 -0.62531432085E+02  0.55662483007E+02  0.31054303785E+02  0.89290883054E+02  0.00000000000E+00 0. -1.
<mgrwt>
<rscale>  0 0.22660626E+03</rscale>
<asrwt>0</asrwt>
<pdfrwt beam="2">  1        2 0.33950955E-01 0.23072024E+03</pdfrwt>
<pdfrwt beam="1">  1       -2 0.43503848E-01 0.23072024E+03</pdfrwt>
<totfact> 0.77436637E+02</totfact>
</mgrwt>
</event>
<event>
 8    1  0.1273312E-005  0.1259738E+03  0.7546771E-02  0.1251853E+00
          1   -1    0    0  501    0  0.00000000000E+00  0.00000000000E+00  0.81628720680E+02  0.81628720680E+02  0.00000000000E+00 0. -1.
         -1   -1    0    0    0  501 -0.00000000000E+00 -0.00000000000E+00 -0.13999778168E+03  0.13999778168E+03  0.00000000000E+00 0.  1.
         23    2    1    2    0    0  0.14417427205E+02 -0.60293084740E+01 -0.33374985314E+02  0.93197149995E+02  0.85601427292E+02 0.  0.
         23    2    1    2    0    0 -0.14417427205E+02  0.60293084740E+01 -0.24994075689E+02  0.12842935237E+03  0.12500071985E+03 0.  0.
          5    1    4    4  502    0 -0.39591102940E+01 -0.23397001313E+02 -0.69651815079E+02  0.73733029021E+02  0.47000000000E+01 0. -1.
         -5    1    4    4    0  502 -0.10458316911E+02  0.29426309787E+02  0.44657739390E+02  0.54696323347E+02  0.47000000000E+01 0. -1.
        -11    1    3    3    0    0 -0.26500198307E+02  0.24159177991E+02 -0.17679452706E+02  0.39981113535E+02  0.00000000000E+00 0.  1.
         11    1    3    3    0    0  0.40917625513E+02 -0.30188486465E+02 -0.15695532608E+02  0.53216036460E+02  0.00000000000E+00 0. -1.
<mgrwt>
<rscale>  0 0.11484449E+03</rscale>
<asrwt>0</asrwt>
<pdfrwt beam="1">  1        1 0.12558265E-01 0.12597379E+03</pdfrwt>
<pdfrwt beam="2">  1       -1 0.21538120E-01 0.12597379E+03</pdfrwt>
<totfact> 0.79100801E+03</totfact>
</mgrwt>
</event>
<event>
 8    1  0.1273312E-005  0.2477820E+03  0.7546771E-02  0.1116660E+00
          2   -1    0    0  501    0  0.00000000000E+00  0.00000000000E+00  0.81599062687E+03  0.81599062687E+03  0.00000000000E+00 0. -1.
         -2   -1    0    0    0  501 -0.00000000000E+00 -0.00000000000E+00 -0.10510116878E+03  0.10510116878E+03  0.00000000000E+00 0.  1.
         23    2    1    2    0    0  0.16973701559E+03 -0.13023176207E+03  0.89867201125E+02  0.25246291914E+03  0.99450718401E+02 0.  0.
         23    2    1    2    0    0 -0.16973701559E+03  0.13023176207E+03  0.62102225697E+03  0.66862887652E+03  0.12499985821E+03 0.  0.
          5    1    4    4  502    0  0.12014697201E+02  0.36855207485E+02  0.60520436753E+02  0.72024110771E+02  0.47000000000E+01 0. -1.
         -5    1    4    4    0  502 -0.18175171279E+03  0.93376554587E+02  0.56050182021E+03  0.59660476575E+03  0.47000000000E+01 0. -1.
        -11    1    3    3    0    0  0.10130806184E+03 -0.13186849844E+03  0.51964740033E+02  0.17422100471E+03  0.00000000000E+00 0. -1.
         11    1    3    3    0    0  0.68428953746E+02  0.16367363732E+01  0.37902461092E+02  0.78241914429E+02  0.00000000000E+00 0.  1.
<mgrwt>
<rscale>  0 0.24476348E+03</rscale>
<asrwt>0</asrwt>
<pdfrwt beam="1">  1        2 0.12553702E+00 0.24778202E+03</pdfrwt>
<pdfrwt beam="2">  1       -2 0.16169411E-01 0.24778202E+03</pdfrwt>
<totfact> 0.10461010E+03</totfact>
</mgrwt>
</event>
<event>
 8    1  0.1273312E-005  0.1487777E+03  0.7546771E-02  0.1206082E+00
          2   -1    0    0  501    0  0.00000000000E+00  0.00000000000E+00  0.83309854584E+02  0.83309854584E+02  0.00000000000E+00 0. -1.
         -2   -1    0    0    0  501 -0.00000000000E+00 -0.00000000000E+00 -0.24953735326E+03  0.24953735326E+03  0.00000000000E+00 0.  1.
         23    2    1    2    0    0  0.40246943807E+02 -0.69936440395E+02 -0.10498915216E+03  0.17195925694E+03  0.10971026294E+03 0.  0.
         23    2    1    2    0    0 -0.40246943807E+02  0.69936440395E+02 -0.61238346511E+02  0.16088795090E+03  0.12499550184E+03 0.  0.
          5    1    4    4  502    0 -0.64567632040E+02 -0.63320552427E+01 -0.10223424173E+02  0.65845899134E+02  0.47000000000E+01 0.  1.
         -5    1    4    4    0  502  0.24320688234E+02  0.76268495638E+02 -0.51014922338E+02  0.95042051767E+02  0.47000000000E+01 0.  1.
        -11    1    3    3    0    0 -0.22568295961E+02 -0.19716766636E+02  0.10039442026E+02  0.31604893060E+02  0.00000000000E+00 0. -1.
         11    1    3    3    0    0  0.62815239767E+02 -0.50219673759E+02 -0.11502859419E+03  0.14035436388E+03  0.00000000000E+00 0.  1.
<mgrwt>
<rscale>  0 0.14552524E+03</rscale>
<asrwt>0</asrwt>
<pdfrwt beam="1">  1        2 0.12816901E-01 0.14877768E+03</pdfrwt>
<pdfrwt beam="2">  1       -2 0.38390362E-01 0.14877768E+03</pdfrwt>
<totfact> 0.29367953E+03</totfact>
</mgrwt>
</event>
<event>
 8    1  0.1273312E-005  0.1268162E+03  0.7546771E-02  0.1247391E+00
         -3   -1    0    0    0  501 -0.00000000000E+00  0.00000000000E+00  0.29016208820E+02  0.29016208820E+02  0.00000000000E+00 0.  1.
          3   -1    0    0  501    0  0.00000000000E+00 -0.00000000000E+00 -0.55962059123E+03  0.55962059123E+03  0.00000000000E+00 0. -1.
         23    2    1    2    0    0  0.17894036087E+02  0.11590055008E+02 -0.87982358299E+02  0.12820592318E+03  0.90781812406E+02 0.  0.
         23    2    1    2    0    0 -0.17894036087E+02 -0.11590055008E+02 -0.44262202411E+03  0.46043087687E+03  0.12501124048E+03 0.  0.
          5    1    4    4  502    0  0.38315827875E+02 -0.13607383576E+02 -0.34690800207E+03  0.34931435049E+03  0.47000000000E+01 0. -1.
         -5    1    4    4    0  502 -0.56209863962E+02  0.20173285685E+01 -0.95714022039E+02  0.11111652639E+03  0.47000000000E+01 0. -1.
        -11    1    3    3    0    0 -0.25160862911E+02 -0.19804276513E+02 -0.96028165504E+01  0.33428916769E+02  0.00000000000E+00 0.  1.
         11    1    3    3    0    0  0.43054898998E+02  0.31394331521E+02 -0.78379541749E+02  0.94777006411E+02  0.00000000000E+00 0. -1.
<mgrwt>
<rscale>  0 0.11743431E+03</rscale>
<asrwt>0</asrwt>
<pdfrwt beam="2">  1        3 0.86095476E-01 0.12681615E+03</pdfrwt>
<pdfrwt beam="1">  1       -3 0.44640321E-02 0.12681615E+03</pdfrwt>
<totfact> 0.79302604E+02</totfact>
</mgrwt>
</event>
<event>
 8    1  0.1273312E-005  0.1311419E+03  0.7546771E-02  0.1239477E+00
         -1   -1    0    0    0  501 -0.00000000000E+00  0.00000000000E+00  0.30670133585E+02  0.30670133585E+02  0.00000000000E+00 0.  1.
          1   -1    0    0  501    0  0.00000000000E+00 -0.00000000000E+00 -0.47745384580E+03  0.47745384580E+03  0.00000000000E+00 0. -1.
         23    2    1    2    0    0 -0.19877318006E+02  0.34328203499E+02 -0.11701290776E+03  0.15323387711E+03  0.90637007811E+02 0.  0.
         23    2    1    2    0    0  0.19877318006E+02 -0.34328203499E+02 -0.32977080446E+03  0.35489010228E+03  0.12499867157E+03 0.  0.
          5    1    4    4  502    0  0.37014572008E+02 -0.34848716452E+01 -0.18867854252E+02  0.41956034076E+02  0.47000000000E+01 0.  1.
         -5    1    4    4    0  502 -0.17137254002E+02 -0.30843331853E+02 -0.31090295020E+03  0.31293406820E+03  0.47000000000E+01 0.  1.
        -11    1    3    3    0    0 -0.84485045791E+01 -0.24758559641E+02 -0.58210837519E+01  0.26800158977E+02  0.00000000000E+00 0. -1.
         11    1    3    3    0    0 -0.11428813426E+02  0.59086763140E+02 -0.11119182401E+03  0.12643371813E+03  0.00000000000E+00 0.  1.
<mgrwt>
<rscale>  0 0.12222111E+03</rscale>
<asrwt>0</asrwt>
<pdfrwt beam="2">  1        1 0.73454429E-01 0.13114191E+03</pdfrwt>
<pdfrwt beam="1">  1       -1 0.47184827E-02 0.13114191E+03</pdfrwt>
<totfact> 0.87759149E+03</totfact>
</mgrwt>
</event>
<event>
 8    1  0.1273312E-005  0.1384384E+03  0.7546771E-02  0.1228277E+00
         -2   -1    0    0    0  501 -0.00000000000E+00  0.00000000000E+00  0.51490590758E+02  0.51490590758E+02  0.00000000000E+00 0.  1.
          2   -1    0    0  501    0  0.00000000000E+00 -0.00000000000E+00 -0.28979784654E+03  0.28979784654E+03  0.00000000000E+00 0. -1.
         23    2    1    2    0    0 -0.21776381886E+02  0.61896253444E+02 -0.10019164265E+03  0.14573505599E+03  0.83036042118E+02 0.  0.
         23    2    1    2    0    0  0.21776381886E+02 -0.61896253444E+02 -0.13811561313E+03  0.19555338131E+03  0.12190096534E+03 0.  0.
          5    1    4    4  502    0  0.53063804786E+02 -0.83699275877E+02 -0.10864235840E+03  0.14712779547E+03  0.47000000000E+01 0. -1.
         -5    1    4    4    0  502 -0.31287422900E+02  0.21803022434E+02 -0.29473254733E+02  0.48425585836E+02  0.47000000000E+01 0.  1.
        -11    1    3    3    0    0  0.10816518126E+02 -0.12623722497E+02 -0.43563715038E+02  0.46627810392E+02  0.00000000000E+00 0. -1.
         11    1    3    3    0    0 -0.32592900012E+02  0.74519975940E+02 -0.56627927610E+02  0.99107245602E+02  0.00000000000E+00 0.  1.
<mgrwt>
<rscale>  0 0.12944833E+03</rscale>
<asrwt>0</asrwt>
<pdfrwt beam="2">  1        2 0.44584285E-01 0.13843844E+03</pdfrwt>
<pdfrwt beam="1">  1       -2 0.79216292E-02 0.13843844E+03</pdfrwt>
<totfact> 0.10321819E+04</totfact>
</mgrwt>
</event>
<event>
 8    1  0.1273312E-005  0.1339134E+03  0.7546771E-02  0.1236257E+00
         -2   -1    0    0    0  501 -0.00000000000E+00  0.00000000000E+00  0.38509937935E+02  0.38509937935E+02  0.00000000000E+00 0. -1.
          2   -1    0    0  501    0  0.00000000000E+00 -0.00000000000E+00 -0.38413985665E+03  0.38413985665E+03  0.00000000000E+00 0.  1.
         23    2    1    2    0    0 -0.88960364832E+01  0.47239720571E+02 -0.89496536661E+02  0.13362191324E+03  0.86801238236E+02 0.  0.
         23    2    1    2    0    0  0.88960364832E+01 -0.47239720571E+02 -0.25613338205E+03  0.28902788134E+03  0.12498830396E+03 0.  0.
          5    1    4    4  502    0 -0.33014234776E+02 -0.28315593161E+02 -0.23349477646E+03  0.23755759964E+03  0.47000000000E+01 0.  1.
         -5    1    4    4    0  502  0.41910271259E+02 -0.18924127410E+02 -0.22638605594E+02  0.51470281702E+02  0.47000000000E+01 0.  1.
        -11    1    3    3    0    0 -0.17320149049E+02 -0.22410830725E+02 -0.18632009610E+02  0.33902576288E+02  0.00000000000E+00 0.  1.
         11    1    3    3    0    0  0.84241125654E+01  0.69650551295E+02 -0.70864527051E+02  0.99719336954E+02  0.00000000000E+00 0. -1.
<mgrwt>
<rscale>  0 0.12424276E+03</rscale>
<asrwt>0</asrwt>
<pdfrwt beam="2">  1        2 0.59098441E-01 0.13391343E+03</pdfrwt>
<pdfrwt beam="1">  1       -2 0.59246057E-02 0.13391343E+03</pdfrwt>
<totfact> 0.11901812E+04</totfact>
</mgrwt>
</event>
<event>
 8    1  0.1273312E-005  0.1517561E+03  0.7546771E-02  0.1202507E+00
          1   -1    0    0  501    0  0.00000000000E+00  0.00000000000E+00  0.28869135273E+03  0.28869135273E+03  0.00000000000E+00 0. -1.
         -1   -1    0    0    0  501 -0.00000000000E+00 -0.00000000000E+00 -0.74101213418E+02  0.74101213418E+02  0.00000000000E+00 0.  1.
         23    2    1    2    0    0  0.71396115451E+02  0.75384860474E+02  0.80540202267E+02  0.16030969159E+03  0.91826959794E+02 0.  0.
         23    2    1    2    0    0 -0.71396115451E+02 -0.75384860474E+02  0.13404993704E+03  0.20248287456E+03  0.11067812060E+03 0.  0.
          5    1    4    4  502    0 -0.80025622640E+02 -0.81330720990E+02  0.14636470299E+03  0.18564348289E+03  0.47000000000E+01 0. -1.
         -5    1    4    4    0  502  0.86295071895E+01  0.59458605158E+01 -0.12314765950E+02  0.16839391676E+02  0.47000000000E+01 0.  1.
        -11    1    3    3    0    0  0.17040298428E+02  0.81978694846E+02  0.51993018496E+02  0.98560398495E+02  0.00000000000E+00 0. -1.
         11    1    3    3    0    0  0.54355817023E+02 -0.65938343725E+01  0.28547183772E+02  0.61749293091E+02  0.00000000000E+00 0.  1.
<mgrwt>
<rscale>  0 0.14835686E+03</rscale>
<asrwt>0</asrwt>
<pdfrwt beam="1">  1        1 0.44414054E-01 0.15175615E+03</pdfrwt>
<pdfrwt beam="2">  1       -1 0.11400187E-01 0.15175615E+03</pdfrwt>
<totfact> 0.44178151E+03</totfact>
</mgrwt>
</event>
<event>
 8    1  0.1273312E-005  0.1285675E+03  0.7546771E-02  0.1250566E+00
         -1   -1    0    0    0  501 -0.00000000000E+00  0.00000000000E+00  0.52727215743E+02  0.52727215743E+02  0.00000000000E+00 0.  1.
          1   -1    0    0  501    0  0.00000000000E+00 -0.00000000000E+00 -0.21457850835E+03  0.21457850835E+03  0.00000000000E+00 0. -1.
         23    2    1    2    0    0 -0.21030773821E+02  0.21134709147E+02 -0.58519441674E+02  0.10236004780E+03  0.78511686732E+02 0.  0.
         23    2    1    2    0    0  0.21030773821E+02 -0.21134709147E+02 -0.10333185093E+03  0.16494567629E+03  0.12506252569E+03 0.  0.
          5    1    4    4  502    0  0.65619564089E+02 -0.67966829286E+01 -0.19756540804E+02  0.69025596662E+02  0.47000000000E+01 0.  1.
         -5    1    4    4    0  502 -0.44588790268E+02 -0.14338026218E+02 -0.83575310124E+02  0.95920079627E+02  0.47000000000E+01 0.  1.
        -11    1    3    3    0    0  0.14585868953E+02  0.40584226838E+02 -0.26002264169E+02  0.50358165009E+02  0.00000000000E+00 0. -1.
         11    1    3    3    0    0 -0.35616642774E+02 -0.19449517691E+02 -0.32517177505E+02  0.52001882791E+02  0.00000000000E+00 0.  1.
<mgrwt>
<rscale>  0 0.11558343E+03</rscale>
<asrwt>0</asrwt>
<pdfrwt beam="2">  1        1 0.33012078E-01 0.12856751E+03</pdfrwt>
<pdfrwt beam="1">  1       -1 0.81118794E-02 0.12856751E+03</pdfrwt>
<totfact> 0.10598483E+04</totfact>
</mgrwt>
</event>
<event>
 8    1  0.1273312E-005  0.1463952E+03  0.7546771E-02  0.1214553E+00
          3   -1    0    0  501    0  0.00000000000E+00  0.00000000000E+00  0.19504951582E+03  0.19504951582E+03  0.00000000000E+00 0. -1.
         -3   -1    0    0    0  501 -0.00000000000E+00 -0.00000000000E+00 -0.91423142930E+02  0.91423142930E+02  0.00000000000E+00 0.  1.
         23    2    1    2    0    0  0.75933457138E+02 -0.61692720421E+01  0.32151970796E+02  0.12356120418E+03  0.91813245900E+02 0.  0.
         23    2    1    2    0    0 -0.75933457138E+02  0.61692720421E+01  0.71474402089E+02  0.16291145456E+03  0.12501040774E+03 0.  0.
          5    1    4    4  502    0 -0.52187563829E+02 -0.25165390068E+02  0.98919289599E+02  0.11473427792E+03  0.47000000000E+01 0. -1.
         -5    1    4    4    0  502 -0.23745893309E+02  0.31334662110E+02 -0.27444887509E+02  0.48177176640E+02  0.47000000000E+01 0. -1.
        -11    1    3    3    0    0  0.50931778401E+01 -0.14110843183E+02  0.48210567383E+02  0.50490743342E+02  0.00000000000E+00 0. -1.
         11    1    3    3    0    0  0.70840279298E+02  0.79415711412E+01 -0.16058596587E+02  0.73070460842E+02  0.00000000000E+00 0.  1.
<mgrwt>
<rscale>  0 0.13909436E+03</rscale>
<asrwt>0</asrwt>
<pdfrwt beam="1">  1        3 0.30007618E-01 0.14639519E+03</pdfrwt>
<pdfrwt beam="2">  1       -3 0.14065099E-01 0.14639519E+03</pdfrwt>
<totfact> 0.10379826E+03</totfact>
</mgrwt>
</event>
<event>
 8    1  0.1273312E-005  0.1236139E+03  0.7546771E-02  0.1240435E+00
         -2   -1    0    0    0  501 -0.00000000000E+00  0.00000000000E+00  0.22076710791E+03  0.22076710791E+03  0.00000000000E+00 0.  1.
          2   -1    0    0  501    0  0.00000000000E+00 -0.00000000000E+00 -0.70013901432E+02  0.70013901432E+02  0.00000000000E+00 0. -1.
         23    2    1    2    0    0 -0.29624338263E+01  0.53690344142E+02  0.11222614681E+03  0.16130228766E+03  0.10262695020E+03 0.  0.
         23    2    1    2    0    0  0.29624338263E+01 -0.53690344142E+02  0.38527059672E+02  0.12947872169E+03  0.11130577691E+03 0.  0.
          5    1    4    4  502    0  0.41298089559E+02 -0.50987887899E+02 -0.10913846662E+02  0.66682073773E+02  0.47000000000E+01 0. -1.
         -5    1    4    4    0  502 -0.38335655733E+02 -0.27024562426E+01  0.49440906333E+02  0.62796647914E+02  0.47000000000E+01 0.  1.
        -11    1    3    3    0    0  0.46682357247E+02  0.35585707039E+02  0.80630253735E+02  0.99733759785E+02  0.00000000000E+00 0. -1.
         11    1    3    3    0    0 -0.49644791073E+02  0.18104637103E+02  0.31595893074E+02  0.61568527873E+02  0.00000000000E+00 0.  1.
<mgrwt>
<rscale>  0 0.12162831E+03</rscale>
<asrwt>0</asrwt>
<pdfrwt beam="2">  1        2 0.10771370E-01 0.12361394E+03</pdfrwt>
<pdfrwt beam="1">  1       -2 0.33964170E-01 0.12361394E+03</pdfrwt>
<totfact> 0.44941736E+03</totfact>
</mgrwt>
</event>
<event>
 8    1  0.1273312E-005  0.1418942E+03  0.7546771E-02  0.1220836E+00
         -1   -1    0    0    0  501 -0.00000000000E+00  0.00000000000E+00  0.13299076867E+03  0.13299076867E+03  0.00000000000E+00 0.  1.
          1   -1    0    0  501    0  0.00000000000E+00 -0.00000000000E+00 -0.12663248533E+03  0.12663248533E+03  0.00000000000E+00 0. -1.
         23    2    1    2    0    0  0.66708875136E+02  0.54150311423E+01 -0.16333598770E+02  0.11592605590E+03  0.93234475406E+02 0.  0.
         23    2    1    2    0    0 -0.66708875136E+02 -0.54150311423E+01  0.22691882114E+02  0.14369719810E+03  0.12511821068E+03 0.  0.
          5    1    4    4  502    0  0.13720228720E+02 -0.47822029048E+02  0.15711620791E+02  0.52384503112E+02  0.47000000000E+01 0. -1.
         -5    1    4    4    0  502 -0.80429103856E+02  0.42406997906E+02  0.69802613229E+01  0.91312694991E+02  0.47000000000E+01 0. -1.
        -11    1    3    3    0    0  0.29034753703E+02  0.19131497160E+02 -0.51806066064E+02  0.62393105286E+02  0.00000000000E+00 0.  1.
         11    1    3    3    0    0  0.37674121433E+02 -0.13716466018E+02  0.35472467294E+02  0.53532950616E+02  0.00000000000E+00 0. -1.
<mgrwt>
<rscale>  0 0.13456441E+03</rscale>
<asrwt>0</asrwt>
<pdfrwt beam="2">  1        1 0.19481921E-01 0.14189420E+03</pdfrwt>
<pdfrwt beam="1">  1       -1 0.20460118E-01 0.14189420E+03</pdfrwt>
<totfact> 0.49165673E+03</totfact>
</mgrwt>
</event>
<event>
 8    1  0.1273312E-005  0.1310288E+03  0.7546771E-02  0.1239573E+00
          1   -1    0    0  501    0  0.00000000000E+00  0.00000000000E+00  0.33893975681E+03  0.33893975681E+03  0.00000000000E+00 0. -1.
         -1   -1    0    0    0  501 -0.00000000000E+00 -0.00000000000E+00 -0.42459020552E+02  0.42459020552E+02  0.00000000000E+00 0.  1.
         23    2    1    2    0    0 -0.39054009055E+02 -0.42172470568E+01  0.75551431746E+02  0.12453635143E+03  0.90875096658E+02 0.  0.
         23    2    1    2    0    0  0.39054009055E+02  0.42172470568E+01  0.22092930452E+03  0.25686242594E+03  0.12500218985E+03 0.  0.
          5    1    4    4  502    0  0.55404789964E+02 -0.13439108641E+02  0.30436103654E+02  0.64797737597E+02  0.47000000000E+01 0. -1.
         -5    1    4    4    0  502 -0.16350780909E+02  0.17656355698E+02  0.19049320086E+03  0.19206468834E+03  0.47000000000E+01 0. -1.
        -11    1    3    3    0    0  0.56408790477E+01  0.15387806268E+02  0.73907678856E+02  0.75703032252E+02  0.00000000000E+00 0. -1.
         11    1    3    3    0    0 -0.44694888103E+02 -0.19605053325E+02  0.16437528900E+01  0.48833319178E+02  0.00000000000E+00 0.  1.
<mgrwt>
<rscale>  0 0.12216181E+03</rscale>
<asrwt>0</asrwt>
<pdfrwt beam="1">  1        1 0.52144576E-01 0.13102881E+03</pdfrwt>
<pdfrwt beam="2">  1       -1 0.65321572E-02 0.13102881E+03</pdfrwt>
<totfact> 0.83474578E+03</totfact>
</mgrwt>
</event>
<event>
 7    1  0.1273312E-005  0.1572337E+03  0.7546771E-02  0.1211138E+00
          2   -1    0    0  501    0  0.00000000000E+00  0.00000000000E+00  0.21584648842E+04  0.21584648842E+04  0.00000000000E+00 0. -1.
         -2   -1    0    0    0  501 -0.00000000000E+00 -0.00000000000E+00 -0.10466433005E+02  0.10466433005E+02  0.00000000000E+00 0.  1.
         23    2    1    2    0    0  0.44735436114E+02 -0.40645832683E+01  0.37679219020E+03  0.39075976883E+03  0.93290204526E+02 0.  0.
          5    1    1    2  502    0  0.82041903864E+01  0.71077373046E+02  0.80707162806E+03  0.81025058131E+03  0.47000000000E+01 0. -1.
         -5    1    1    2    0  502 -0.52939626500E+02 -0.67012789777E+02  0.96413463292E+03  0.96792096704E+03  0.47000000000E+01 0.  1.
        -11    1    3    3    0    0  0.66553968627E+02  0.17678548743E+02  0.30430774880E+03  0.31200187147E+03  0.00000000000E+00 0. -1.
         11    1    3    3    0    0 -0.21818532514E+02 -0.21743132011E+02  0.72484441406E+02  0.78757897360E+02  0.00000000000E+00 0.  1.
<mgrwt>
<rscale>  0 0.14164063E+03</rscale>
<asrwt>0</asrwt>
<pdfrwt beam="1">  1        2 0.33207117E+00 0.15723370E+03</pdfrwt>
<pdfrwt beam="2">  1       -2 0.16102222E-02 0.15723370E+03</pdfrwt>
<totfact> 0.64771523E+03</totfact>
</mgrwt>
</event>
<event>
 8    1  0.1273312E-005  0.1387949E+03  0.7546771E-02  0.1225391E+00
          2   -1    0    0  501    0  0.00000000000E+00  0.00000000000E+00  0.12679964675E+03  0.12679964675E+03  0.00000000000E+00 0. -1.
         -2   -1    0    0    0  501 -0.00000000000E+00 -0.00000000000E+00 -0.20527809641E+03  0.20527809641E+03  0.00000000000E+00 0.  1.
         23    2    1    2    0    0 -0.64585861715E+01  0.59973401898E+02 -0.14107616466E+03  0.17981972016E+03  0.93776997460E+02 0.  0.
         23    2    1    2    0    0  0.64585861715E+01 -0.59973401898E+02  0.62597714991E+02  0.15225802300E+03  0.12500203749E+03 0.  0.
          5    1    4    4  502    0  0.35984153627E+02  0.20748933815E+02  0.50140234832E+02  0.65280247516E+02  0.47000000000E+01 0.  1.
         -5    1    4    4    0  502 -0.29525567455E+02 -0.80722335714E+02  0.12457480159E+02  0.86977775486E+02  0.47000000000E+01 0.  1.
        -11    1    3    3    0    0  0.14930390116E+02 -0.19669847075E+02 -0.56665145573E+02  0.61812281594E+02  0.00000000000E+00 0.  1.
         11    1    3    3    0    0 -0.21388976287E+02  0.79643248974E+02 -0.84411019084E+02  0.11800743856E+03  0.00000000000E+00 0. -1.
<mgrwt>
<rscale>  0 0.13140160E+03</rscale>
<asrwt>0</asrwt>
<pdfrwt beam="1">  1        2 0.19507638E-01 0.13879493E+03</pdfrwt>
<pdfrwt beam="2">  1       -2 0.31581245E-01 0.13879493E+03</pdfrwt>
<totfact> 0.25726222E+03</totfact>
</mgrwt>
</event>
<event>
 8    1  0.1273312E-005  0.1676999E+03  0.7546771E-02  0.1186499E+00
         -1   -1    0    0    0  501 -0.00000000000E+00  0.00000000000E+00  0.93190685501E+02  0.93190685501E+02  0.00000000000E+00 0.  1.
          1   -1    0    0  501    0  0.00000000000E+00 -0.00000000000E+00 -0.27997957847E+03  0.27997957847E+03  0.00000000000E+00 0. -1.
         23    2    1    2    0    0  0.69910139351E+02  0.87255679266E+02 -0.42567991442E+02  0.15198497981E+03  0.93735900510E+02 0.  0.
         23    2    1    2    0    0 -0.69910139351E+02 -0.87255679266E+02 -0.14422090153E+03  0.22118528416E+03  0.12498912090E+03 0.  0.
          5    1    4    4  502    0  0.23976235873E+02 -0.16753921788E+02  0.62425765356E+01  0.30275626232E+02  0.47000000000E+01 0.  1.
         -5    1    4    4    0  502 -0.93886375224E+02 -0.70501757479E+02 -0.15046347807E+03  0.19090965793E+03  0.47000000000E+01 0.  1.
        -11    1    3    3    0    0  0.48447146813E+02  0.36607865920E+02  0.24294879565E+02  0.65402622689E+02  0.00000000000E+00 0.  1.
         11    1    3    3    0    0  0.21462992537E+02  0.50647813346E+02 -0.66862871007E+02  0.86582357121E+02  0.00000000000E+00 0. -1.
<mgrwt>
<rscale>  0 0.16196268E+03</rscale>
<asrwt>0</asrwt>
<pdfrwt beam="2">  1        1 0.43073781E-01 0.16769992E+03</pdfrwt>
<pdfrwt beam="1">  1       -1 0.14337029E-01 0.16769992E+03</pdfrwt>
<totfact> 0.32278785E+03</totfact>
</mgrwt>
</event>
<event>
 8    1  0.1273312E-005  0.1296115E+03  0.7546771E-02  0.1241896E+00
          2   -1    0    0  501    0  0.00000000000E+00  0.00000000000E+00  0.27702803507E+03  0.27702803507E+03  0.00000000000E+00 0. -1.
         -2   -1    0    0    0  501 -0.00000000000E+00 -0.00000000000E+00 -0.46582126763E+02  0.46582126763E+02  0.00000000000E+00 0.  1.
         23    2    1    2    0    0 -0.70595140289E+01 -0.33506306730E+02  0.10041371214E+03  0.14001409207E+03  0.91370252613E+02 0.  0.
         23    2    1    2    0    0  0.70595140289E+01  0.33506306730E+02  0.13003219617E+03  0.18359606977E+03  0.12500654169E+03 0.  0.
          5    1    4    4  502    0 -0.14703005108E+02  0.69931651327E+02  0.11999558494E+03  0.13974134900E+03  0.47000000000E+01 0. -1.
         -5    1    4    4    0  502  0.21762519137E+02 -0.36425344597E+02  0.10036611227E+02  0.43854720762E+02  0.47000000000E+01 0. -1.
        -11    1    3    3    0    0 -0.17547019004E+02  0.10071969419E+02 -0.87222585040E+01  0.22032254477E+02  0.00000000000E+00 0.  1.
         11    1    3    3    0    0  0.10487504976E+02 -0.43578276149E+02  0.10913597064E+03  0.11798183759E+03  0.00000000000E+00 0. -1.
<mgrwt>
<rscale>  0 0.12073083E+03</rscale>
<asrwt>0</asrwt>
<pdfrwt beam="1">  1        2 0.42619697E-01 0.12961151E+03</pdfrwt>
<pdfrwt beam="2">  1       -2 0.71664812E-02 0.12961151E+03</pdfrwt>
<totfact> 0.12564419E+04</totfact>
</mgrwt>
</event>
<event>
 8    1  0.1273312E-005  0.1302739E+03  0.7546771E-02  0.1240698E+00
          2   -1    0    0  501    0  0.00000000000E+00  0.00000000000E+00  0.10681587329E+04  0.10681587329E+04  0.00000000000E+00 0. -1.
         -2   -1    0    0    0  501 -0.00000000000E+00 -0.00000000000E+00 -0.13825538892E+02  0.13825538892E+02  0.00000000000E+00 0.  1.
         23    2    1    2    0    0 -0.33698834744E+02 -0.14286578133E+02  0.28086772130E+03  0.29762458743E+03  0.91400220997E+02 0.  0.
         23    2    1    2    0    0  0.33698834744E+02  0.14286578133E+02  0.77346547273E+03  0.78435968438E+03  0.12502623404E+03 0.  0.
          5    1    4    4  502    0 -0.36106450558E+02 -0.71967143539E+01  0.95556485129E+02  0.10251146433E+03  0.47000000000E+01 0. -1.
         -5    1    4    4    0  502  0.69805285303E+02  0.21483292487E+02  0.67790898760E+03  0.68184822005E+03  0.47000000000E+01 0. -1.
        -11    1    3    3    0    0 -0.23577943593E+02  0.30305007173E+02  0.20861007018E+03  0.21211429528E+03  0.00000000000E+00 0. -1.
         11    1    3    3    0    0 -0.10120891151E+02 -0.44591585306E+02  0.72257651120E+02  0.85510292148E+02  0.00000000000E+00 0.  1.
<mgrwt>
<rscale>  0 0.12146586E+03</rscale>
<asrwt>0</asrwt>
<pdfrwt beam="1">  1        2 0.16433205E+00 0.13027385E+03</pdfrwt>
<pdfrwt beam="2">  1       -2 0.21270068E-02 0.13027385E+03</pdfrwt>
<totfact> 0.16104191E+04</totfact>
</mgrwt>
</event>
<event>
 8    1  0.1273312E-005  0.1425792E+03  0.7546771E-02  0.1220062E+00
         -3   -1    0    0    0  501 -0.00000000000E+00  0.00000000000E+00  0.58411609235E+02  0.58411609235E+02  0.00000000000E+00 0.  1.
          3   -1    0    0  501    0  0.00000000000E+00 -0.00000000000E+00 -0.35553169764E+03  0.35553169764E+03  0.00000000000E+00 0. -1.
         23    2    1    2    0    0  0.56337846300E+02 -0.39118696443E+02 -0.43375716650E+02  0.12288481919E+03  0.92276761190E+02 0.  0.
         23    2    1    2    0    0 -0.56337846300E+02  0.39118696443E+02 -0.25374437175E+03  0.29105848768E+03  0.12499844686E+03 0.  0.
          5    1    4    4  502    0  0.14628429960E+02  0.41614246058E+02 -0.19131597680E+03  0.19639152074E+03  0.47000000000E+01 0.  1.
         -5    1    4    4    0  502 -0.70966276261E+02 -0.24955496143E+01 -0.62428394953E+02  0.94666966945E+02  0.47000000000E+01 0.  1.
        -11    1    3    3    0    0  0.21015303380E+02  0.21372873130E+02  0.13287227587E+02  0.32787087381E+02  0.00000000000E+00 0.  1.
         11    1    3    3    0    0  0.35322542920E+02 -0.60491569573E+02 -0.56662944238E+02  0.90097731811E+02  0.00000000000E+00 0. -1.
<mgrwt>
<rscale>  0 0.13511170E+03</rscale>
<asrwt>0</asrwt>
<pdfrwt beam="2">  1        3 0.54697183E-01 0.14257923E+03</pdfrwt>
<pdfrwt beam="1">  1       -3 0.89864016E-02 0.14257923E+03</pdfrwt>
<totfact> 0.68416021E+02</totfact>
</mgrwt>
</event>
<event>
 8    1  0.1273312E-005  0.1362332E+03  0.7546771E-02  0.1231511E+00
          2   -1    0    0  501    0  0.00000000000E+00  0.00000000000E+00  0.10770193112E+03  0.10770193112E+03  0.00000000000E+00 0. -1.
         -2   -1    0    0    0  501 -0.00000000000E+00 -0.00000000000E+00 -0.14889196313E+03  0.14889196313E+03  0.00000000000E+00 0.  1.
         23    2    1    2    0    0 -0.21413870909E+02  0.49742636271E+02 -0.58575582256E+02  0.11925583468E+03  0.88645200309E+02 0.  0.
         23    2    1    2    0    0  0.21413870909E+02 -0.49742636271E+02  0.17385550241E+02  0.13733805957E+03  0.12500640592E+03 0.  0.
          5    1    4    4  502    0  0.19949585174E+02  0.27732904303E+02  0.43428248565E+02  0.55454510214E+02  0.47000000000E+01 0. -1.
         -5    1    4    4    0  502  0.14642857350E+01 -0.77475540573E+02 -0.26042698325E+02  0.81883549360E+02  0.47000000000E+01 0. -1.
        -11    1    3    3    0    0 -0.52396677921E+02  0.27289131423E+02 -0.55185046317E+02  0.80842426288E+02  0.00000000000E+00 0.  1.
         11    1    3    3    0    0  0.30982807012E+02  0.22453504847E+02 -0.33905359383E+01  0.38413408391E+02  0.00000000000E+00 0. -1.
<mgrwt>
<rscale>  0 0.12730463E+03</rscale>
<asrwt>0</asrwt>
<pdfrwt beam="1">  1        2 0.16569528E-01 0.13623320E+03</pdfrwt>
<pdfrwt beam="2">  1       -2 0.22906456E-01 0.13623320E+03</pdfrwt>
<totfact> 0.54661865E+03</totfact>
</mgrwt>
</event>
<event>
 7    1  0.1273312E-005  0.1437095E+03  0.7546771E-02  0.1224556E+00
          2   -1    0    0  501    0  0.00000000000E+00  0.00000000000E+00  0.33352311130E+03  0.33352311130E+03  0.00000000000E+00 0. -1.
         -2   -1    0    0    0  501 -0.00000000000E+00 -0.00000000000E+00 -0.45834351584E+02  0.45834351584E+02  0.00000000000E+00 0.  1.
         23    2    1    2    0    0  0.36445959028E+02  0.28187941211E+02  0.10025493336E+03  0.14317136310E+03  0.91236613213E+02 0.  0.
          5    1    1    2  502    0  0.47776290161E+02 -0.34783293202E+01  0.10576951542E+03  0.11620651044E+03  0.47000000000E+01 0. -1.
         -5    1    1    2    0  502 -0.84222249189E+02 -0.24709611890E+02  0.81664310940E+02  0.11997958935E+03  0.47000000000E+01 0.  1.
        -11    1    3    3    0    0 -0.28267061946E+02  0.51988304258E+01  0.11516328394E+02  0.30962565277E+02  0.00000000000E+00 0.  1.
         11    1    3    3    0    0  0.64713020974E+02  0.22989110785E+02  0.88738604967E+02  0.11220879783E+03  0.00000000000E+00 0. -1.
<mgrwt>
<rscale>  0 0.13197392E+03</rscale>
<asrwt>0</asrwt>
<pdfrwt beam="1">  1        2 0.51311246E-01 0.14370955E+03</pdfrwt>
<pdfrwt beam="2">  1       -2 0.70514389E-02 0.14370955E+03</pdfrwt>
<totfact> 0.10664806E+04</totfact>
</mgrwt>
</event>
<event>
 8    1  0.1273312E-005  0.1564381E+03  0.7546771E-02  0.1200703E+00
         -2   -1    0    0    0  501 -0.00000000000E+00  0.00000000000E+00  0.86584486151E+02  0.86584486151E+02  0.00000000000E+00 0.  1.
          2   -1    0    0  501    0  0.00000000000E+00 -0.00000000000E+00 -0.24281715885E+03  0.24281715885E+03  0.00000000000E+00 0. -1.
         23    2    1    2    0    0  0.32375290631E+02 -0.88345976615E+02 -0.52317435960E+02  0.14159519467E+03  0.91972354658E+02 0.  0.
         23    2    1    2    0    0 -0.32375290631E+02  0.88345976615E+02 -0.10391523674E+03  0.18780645033E+03  0.12497885954E+03 0.  0.
          5    1    4    4  502    0 -0.14016944074E+02  0.42816931299E+02  0.23607645952E+02  0.51080086868E+02  0.47000000000E+01 0.  1.
         -5    1    4    4    0  502 -0.18358346557E+02  0.45529045316E+02 -0.12752288269E+03  0.13672636347E+03  0.47000000000E+01 0.  1.
        -11    1    3    3    0    0 -0.24201459743E+02 -0.44525377257E+02  0.35588182285E+01  0.50802411958E+02  0.00000000000E+00 0.  1.
         11    1    3    3    0    0  0.56576750373E+02 -0.43820599358E+02 -0.55876254188E+02  0.90792782714E+02  0.00000000000E+00 0. -1.
<mgrwt>
<rscale>  0 0.14981339E+03</rscale>
<asrwt>0</asrwt>
<pdfrwt beam="2">  1        2 0.37356485E-01 0.15643812E+03</pdfrwt>
<pdfrwt beam="1">  1       -2 0.13320690E-01 0.15643812E+03</pdfrwt>
<totfact> 0.55302694E+03</totfact>
</mgrwt>
</event>
<event>
 8    1  0.1273312E-005  0.1339871E+03  0.7546771E-02  0.1235698E+00
         -2   -1    0    0    0  501 -0.00000000000E+00  0.00000000000E+00  0.31845605664E+02  0.31845605664E+02  0.00000000000E+00 0.  1.
          2   -1    0    0  501    0  0.00000000000E+00 -0.00000000000E+00 -0.43204998738E+03  0.43204998738E+03  0.00000000000E+00 0. -1.
         23    2    1    2    0    0  0.44463346659E+02  0.18704827672E+02 -0.15777559664E+03  0.18690413590E+03  0.87824582808E+02 0.  0.
         23    2    1    2    0    0 -0.44463346659E+02 -0.18704827672E+02 -0.24242878507E+03  0.27699145714E+03  0.12500276687E+03 0.  0.
          5    1    4    4  502    0 -0.14737263530E+02  0.46607859600E+02 -0.16114984746E+03  0.16846614749E+03  0.47000000000E+01 0.  1.
         -5    1    4    4    0  502 -0.29726083129E+02 -0.65312687273E+02 -0.81278937613E+02  0.10852530966E+03  0.47000000000E+01 0.  1.
        -11    1    3    3    0    0  0.18471647529E+02 -0.35106473527E+02 -0.51858748629E+02  0.65291623164E+02  0.00000000000E+00 0.  1.
         11    1    3    3    0    0  0.25991699130E+02  0.53811301199E+02 -0.10591684801E+03  0.12161251273E+03  0.00000000000E+00 0. -1.
<mgrwt>
<rscale>  0 0.12459888E+03</rscale>
<asrwt>0</asrwt>
<pdfrwt beam="2">  1        2 0.66469221E-01 0.13398713E+03</pdfrwt>
<pdfrwt beam="1">  1       -2 0.48993245E-02 0.13398713E+03</pdfrwt>
<totfact> 0.13974973E+04</totfact>
</mgrwt>
</event>
<event>
 8    1  0.1273312E-005  0.1514538E+03  0.7546771E-02  0.1207102E+00
          2   -1    0    0  501    0  0.00000000000E+00  0.00000000000E+00  0.84074263154E+02  0.84074263154E+02  0.00000000000E+00 0. -1.
         -2   -1    0    0    0  501 -0.00000000000E+00 -0.00000000000E+00 -0.24157518459E+03  0.24157518459E+03  0.00000000000E+00 0.  1.
         23    2    1    2    0    0 -0.63957029922E+02 -0.56763839001E+02 -0.10839174153E+03  0.16643277053E+03  0.92943328860E+02 0.  0.
         23    2    1    2    0    0  0.63957029922E+02  0.56763839001E+02 -0.49109179907E+02  0.15921667722E+03  0.12500241461E+03 0.  0.
          5    1    4    4  502    0 -0.11780157499E+02  0.54135340852E+02  0.17418657373E+02  0.58265829305E+02  0.47000000000E+01 0.  1.
         -5    1    4    4    0  502  0.75737187422E+02  0.26284981494E+01 -0.66527837280E+02  0.10095084791E+03  0.47000000000E+01 0.  1.
        -11    1    3    3    0    0 -0.14228202397E+02  0.10235460620E+01 -0.85713731384E+02  0.86892652956E+02  0.00000000000E+00 0.  1.
         11    1    3    3    0    0 -0.49728827526E+02 -0.57787385063E+02 -0.22678010149E+02  0.79540117575E+02  0.00000000000E+00 0. -1.
<mgrwt>
<rscale>  0 0.14473009E+03</rscale>
<asrwt>0</asrwt>
<pdfrwt beam="1">  1        2 0.12934502E-01 0.15145375E+03</pdfrwt>
<pdfrwt beam="2">  1       -2 0.37165412E-01 0.15145375E+03</pdfrwt>
<totfact> 0.30901400E+03</totfact>
</mgrwt>
</event>
<event>
 8    1  0.1273312E-005  0.1926517E+03  0.7546771E-02  0.1160941E+00
         -1   -1    0    0    0  501 -0.00000000000E+00  0.00000000000E+00  0.13373519203E+03  0.13373519203E+03  0.00000000000E+00 0.  1.
          1   -1    0    0  501    0  0.00000000000E+00 -0.00000000000E+00 -0.29458805535E+03  0.29458805535E+03  0.00000000000E+00 0. -1.
         23    2    1    2    0    0  0.10394080101E+03 -0.10337252361E+03  0.78991411085E+01  0.17221403889E+03  0.90031716682E+02 0.  0.
         23    2    1    2    0    0 -0.10394080101E+03  0.10337252361E+03 -0.16875200442E+03  0.25610920849E+03  0.12500047569E+03 0.  0.
          5    1    4    4  502    0 -0.62379754425E+02  0.14457292094E+02 -0.13953171720E+03  0.15359504276E+03  0.47000000000E+01 0.  1.
         -5    1    4    4    0  502 -0.41561046585E+02  0.88915231516E+02 -0.29220287224E+02  0.10251416572E+03  0.47000000000E+01 0.  1.
        -11    1    3    3    0    0  0.40177738997E+02 -0.82294078181E+02 -0.28392429950E+02  0.95878548659E+02  0.00000000000E+00 0. -1.
         11    1    3    3    0    0  0.63763062014E+02 -0.21078445429E+02  0.36291571058E+02  0.76335490232E+02  0.00000000000E+00 0.  1.
<mgrwt>
<rscale>  0 0.18727615E+03</rscale>
<asrwt>0</asrwt>
<pdfrwt beam="2">  1        1 0.45321239E-01 0.19265173E+03</pdfrwt>
<pdfrwt beam="1">  1       -1 0.20574645E-01 0.19265173E+03</pdfrwt>
<totfact> 0.17103197E+03</totfact>
</mgrwt>
</event>
<event>
 8    1  0.1273312E-005  0.1252948E+03  0.7546771E-02  0.1249920E+00
         -1   -1    0    0    0  501 -0.00000000000E+00  0.00000000000E+00  0.34394291536E+02  0.34394291536E+02  0.00000000000E+00 0.  1.
          1   -1    0    0  501    0  0.00000000000E+00 -0.00000000000E+00 -0.35623340908E+03  0.35623340908E+03  0.00000000000E+00 0. -1.
         23    2    1    2    0    0 -0.57719145814E+01 -0.63059464044E+01 -0.17441928245E+03  0.19715573564E+03  0.91516217395E+02 0.  0.
         23    2    1    2    0    0  0.57719145814E+01  0.63059464044E+01 -0.14741983510E+03  0.19347196498E+03  0.12500285395E+03 0.  0.
          5    1    4    4  502    0 -0.47143911094E+02 -0.89799921251E+01 -0.15847333868E+02  0.50758414106E+02  0.47000000000E+01 0.  1.
         -5    1    4    4    0  502  0.52915825676E+02  0.15285938529E+02 -0.13157250123E+03  0.14271355087E+03  0.47000000000E+01 0.  1.
        -11    1    3    3    0    0  0.37723188355E+02 -0.22022582986E+02 -0.10520065775E+03  0.11390878584E+03  0.00000000000E+00 0.  1.
         11    1    3    3    0    0 -0.43495102936E+02  0.15716636581E+02 -0.69218624705E+02  0.83246949800E+02  0.00000000000E+00 0. -1.
<mgrwt>
<rscale>  0 0.11595674E+03</rscale>
<asrwt>0</asrwt>
<pdfrwt beam="2">  1        1 0.54805138E-01 0.12529483E+03</pdfrwt>
<pdfrwt beam="1">  1       -1 0.52914296E-02 0.12529483E+03</pdfrwt>
<totfact> 0.10694442E+04</totfact>
</mgrwt>
</event>
<event>
 8    1  0.1273312E-005  0.1417121E+03  0.7546771E-02  0.1221216E+00
          1   -1    0    0  501    0  0.00000000000E+00  0.00000000000E+00  0.22561955085E+03  0.22561955085E+03  0.00000000000E+00 0. -1.
         -1   -1    0    0    0  501 -0.00000000000E+00 -0.00000000000E+00 -0.94565221309E+02  0.94565221309E+02  0.00000000000E+00 0.  1.
         23    2    1    2    0    0 -0.61312913359E+02 -0.26429229863E+02 -0.16636497517E+02  0.11550231928E+03  0.92769796673E+02 0.  0.
         23    2    1    2    0    0  0.61312913359E+02  0.26429229863E+02  0.14769082706E+03  0.20468245287E+03  0.12499819432E+03 0.  0.
          5    1    4    4  502    0  0.29455389722E+02  0.50881697370E+02  0.15293104220E+03  0.16391022171E+03  0.47000000000E+01 0. -1.
         -5    1    4    4    0  502  0.31857523637E+02 -0.24452467507E+02 -0.52402151471E+01  0.40772231166E+02  0.47000000000E+01 0. -1.
        -11    1    3    3    0    0 -0.13249299190E+02  0.23660191732E+02  0.23005649866E+02  0.35561334728E+02  0.00000000000E+00 0. -1.
         11    1    3    3    0    0 -0.48063614169E+02 -0.50089421595E+02 -0.39642147383E+02  0.79940984557E+02  0.00000000000E+00 0.  1.
<mgrwt>
<rscale>  0 0.13429654E+03</rscale>
<asrwt>0</asrwt>
<pdfrwt beam="1">  1        1 0.34710700E-01 0.14171212E+03</pdfrwt>
<pdfrwt beam="2">  1       -1 0.14548496E-01 0.14171212E+03</pdfrwt>
<totfact> 0.40909598E+03</totfact>
</mgrwt>
</event>
<event>
 8    1  0.1273312E-005  0.2722477E+03  0.7546771E-02  0.1101842E+00
         -1   -1    0    0    0  501 -0.00000000000E+00  0.00000000000E+00  0.76858433288E+02  0.76858433288E+02  0.00000000000E+00 0.  1.
          1   -1    0    0  501    0  0.00000000000E+00 -0.00000000000E+00 -0.11574529880E+04  0.11574529880E+04  0.00000000000E+00 0. -1.
         23    2    1    2    0    0  0.23728676232E+03  0.46782953180E+02 -0.25055834590E+03  0.36076752764E+03  0.94234134031E+02 0.  0.
         23    2    1    2    0    0 -0.23728676232E+03 -0.46782953180E+02 -0.83003620880E+03  0.87354389364E+03  0.12500069567E+03 0.  0.
          5    1    4    4  502    0 -0.89274746162E+02  0.70321283799E+01 -0.14394260042E+03  0.16959066409E+03  0.47000000000E+01 0.  1.
         -5    1    4    4    0  502 -0.14801201616E+03 -0.53815081560E+02 -0.68609360838E+03  0.70395322955E+03  0.47000000000E+01 0.  1.
        -11    1    3    3    0    0  0.10777656327E+03  0.24376104716E+02 -0.18099588528E+03  0.21206011544E+03  0.00000000000E+00 0. -1.
         11    1    3    3    0    0  0.12951019905E+03  0.22406848465E+02 -0.69562460624E+02  0.14870741220E+03  0.00000000000E+00 0.  1.
<mgrwt>
<rscale>  0 0.26901997E+03</rscale>
<asrwt>0</asrwt>
<pdfrwt beam="2">  1        1 0.17806969E+00 0.27224773E+03</pdfrwt>
<pdfrwt beam="1">  1       -1 0.11824374E-01 0.27224773E+03</pdfrwt>
<totfact> 0.57717642E+02</totfact>
</mgrwt>
</event>
<event>
 8    1  0.1273312E-005  0.1545176E+03  0.7546771E-02  0.1203433E+00
          2   -1    0    0  501    0  0.00000000000E+00  0.00000000000E+00  0.35653894976E+03  0.35653894976E+03  0.00000000000E+00 0. -1.
         -2   -1    0    0    0  501 -0.00000000000E+00 -0.00000000000E+00 -0.57332266680E+02  0.57332266680E+02  0.00000000000E+00 0.  1.
         23    2    1    2    0    0  0.24280258683E+02 -0.87535491076E+02  0.10787475450E+03  0.16793707222E+03  0.91180614215E+02 0.  0.
         23    2    1    2    0    0 -0.24280258683E+02  0.87535491076E+02  0.19133192858E+03  0.24593414422E+03  0.12499481284E+03 0.  0.
          5    1    4    4  502    0 -0.36487596255E+02  0.11668838383E+03  0.15680453793E+03  0.19889011217E+03  0.47000000000E+01 0.  1.
         -5    1    4    4    0  502  0.12207337571E+02 -0.29152892755E+02  0.34527390646E+02  0.47044032049E+02  0.47000000000E+01 0.  1.
        -11    1    3    3    0    0  0.36853569987E+01 -0.45901186468E+02 -0.45709853811E+01  0.46275205918E+02  0.00000000000E+00 0.  1.
         11    1    3    3    0    0  0.20594901685E+02 -0.41634304608E+02  0.11244573988E+03  0.12166186630E+03  0.00000000000E+00 0. -1.
<mgrwt>
<rscale>  0 0.14761666E+03</rscale>
<asrwt>0</asrwt>
<pdfrwt beam="1">  1        2 0.54852145E-01 0.15451762E+03</pdfrwt>
<pdfrwt beam="2">  1       -2 0.88203489E-02 0.15451762E+03</pdfrwt>
<totfact> 0.70613578E+03</totfact>
</mgrwt>
</event>
<event>
 8    1  0.1273312E-005  0.1262160E+03  0.7546771E-02  0.1249202E+00
          2   -1    0    0  501    0  0.00000000000E+00  0.00000000000E+00  0.35719226881E+02  0.35719226881E+02  0.00000000000E+00 0. -1.
         -2   -1    0    0    0  501 -0.00000000000E+00 -0.00000000000E+00 -0.33721271081E+03  0.33721271081E+03  0.00000000000E+00 0.  1.
         23    2    1    2    0    0 -0.12981954284E+02  0.11752843947E+02 -0.15213671992E+03  0.17738674746E+03  0.89519920403E+02 0.  0.
         23    2    1    2    0    0  0.12981954284E+02 -0.11752843947E+02 -0.14935676401E+03  0.19554519023E+03  0.12499527187E+03 0.  0.
          5    1    4    4  502    0 -0.20237785175E+02 -0.60704381991E+02 -0.97600477107E+02  0.11680125459E+03  0.47000000000E+01 0. -1.
         -5    1    4    4    0  502  0.33219739460E+02  0.48951538044E+02 -0.51756286905E+02  0.78743935644E+02  0.47000000000E+01 0. -1.
        -11    1    3    3    0    0 -0.33612413550E+02 -0.74103885245E+01 -0.14402980826E+03  0.14808542761E+03  0.00000000000E+00 0.  1.
         11    1    3    3    0    0  0.20630459265E+02  0.19163232472E+02 -0.81069116562E+01  0.29301319849E+02  0.00000000000E+00 0. -1.
<mgrwt>
<rscale>  0 0.11637356E+03</rscale>
<asrwt>0</asrwt>
<pdfrwt beam="1">  1        2 0.54952655E-02 0.12621600E+03</pdfrwt>
<pdfrwt beam="2">  1       -2 0.51878881E-01 0.12621600E+03</pdfrwt>
<totfact> 0.46697570E+03</totfact>
</mgrwt>
</event>
<event>
 8    1  0.1273312E-005  0.1533260E+03  0.7546771E-02  0.1205716E+00
         -2   -1    0    0    0  501 -0.00000000000E+00  0.00000000000E+00  0.39334722390E+03  0.39334722390E+03  0.00000000000E+00 0.  1.
          2   -1    0    0  501    0  0.00000000000E+00 -0.00000000000E+00 -0.67178826374E+02  0.67178826374E+02  0.00000000000E+00 0. -1.
         23    2    1    2    0    0  0.86689013098E+02 -0.19206164948E+02  0.26916569146E+03  0.29694678053E+03  0.88562741874E+02 0.  0.
         23    2    1    2    0    0 -0.86689013098E+02  0.19206164948E+02  0.57002706069E+02  0.16357926974E+03  0.12500002890E+03 0.  0.
          5    1    4    4  502    0 -0.96857087695E+02 -0.20904381434E+02  0.83685924838E+01  0.99551051928E+02  0.47000000000E+01 0.  1.
         -5    1    4    4    0  502  0.10168074597E+02  0.40110546381E+02  0.48634113585E+02  0.64028217813E+02  0.47000000000E+01 0.  1.
        -11    1    3    3    0    0  0.10427264765E+03 -0.24216475974E+02  0.23345560856E+03  0.25682823817E+03  0.00000000000E+00 0. -1.
         11    1    3    3    0    0 -0.17583634549E+02  0.50103110262E+01  0.35710082901E+02  0.40118542363E+02  0.00000000000E+00 0.  1.
<mgrwt>
<rscale>  0 0.14581204E+03</rscale>
<asrwt>0</asrwt>
<pdfrwt beam="2">  1        2 0.10335204E-01 0.15332602E+03</pdfrwt>
<pdfrwt beam="1">  1       -2 0.60514956E-01 0.15332602E+03</pdfrwt>
<totfact> 0.15584932E+03</totfact>
</mgrwt>
</event>
<event>
 8    1  0.1273312E-005  0.1517859E+03  0.7546771E-02  0.1207095E+00
          1   -1    0    0  501    0  0.00000000000E+00  0.00000000000E+00  0.69309837653E+03  0.69309837653E+03  0.00000000000E+00 0. -1.
         -1   -1    0    0    0  501 -0.00000000000E+00 -0.00000000000E+00 -0.50719967709E+02  0.50719967709E+02  0.00000000000E+00 0.  1.
         23    2    1    2    0    0  0.23513104647E+02 -0.82833359791E+02  0.54768521879E+02  0.13692104882E+03  0.91288285316E+02 0.  0.
         23    2    1    2    0    0 -0.23513104647E+02  0.82833359791E+02  0.58760988694E+03  0.60689729542E+03  0.12499886549E+03 0.  0.
          5    1    4    4  502    0 -0.18636325629E+02 -0.31681410853E+02  0.13978291248E+03  0.14461112353E+03  0.47000000000E+01 0.  1.
         -5    1    4    4    0  502 -0.48767790181E+01  0.11451477064E+03  0.44782697446E+03  0.46228617190E+03  0.47000000000E+01 0.  1.
        -11    1    3    3    0    0 -0.11145255768E+02 -0.85188648594E+02  0.20933382910E+02  0.88428101277E+02  0.00000000000E+00 0.  1.
         11    1    3    3    0    0  0.34658360415E+02  0.23552888033E+01  0.33835138969E+02  0.48492947540E+02  0.00000000000E+00 0. -1.
<mgrwt>
<rscale>  0 0.14473578E+03</rscale>
<asrwt>0</asrwt>
<pdfrwt beam="1">  1        1 0.10663051E+00 0.15178586E+03</pdfrwt>
<pdfrwt beam="2">  1       -1 0.78030725E-02 0.15178586E+03</pdfrwt>
<totfact> 0.25202826E+03</totfact>
</mgrwt>
</event>
<event>
 8    1  0.1273312E-005  0.1317986E+03  0.7546771E-02  0.1239775E+00
         -3   -1    0    0    0  501 -0.00000000000E+00  0.00000000000E+00  0.10591029757E+02  0.10591029757E+02  0.00000000000E+00 0.  1.
          3   -1    0    0  501    0  0.00000000000E+00 -0.00000000000E+00 -0.12586028085E+04  0.12586028085E+04  0.00000000000E+00 0. -1.
         23    2    1    2    0    0 -0.29761051359E+02  0.29351682649E+02 -0.44350917400E+03  0.45396668250E+03  0.87396338301E+02 0.  0.
         23    2    1    2    0    0  0.29761051359E+02 -0.29351682649E+02 -0.80450260472E+03  0.81522715573E+03  0.12499453182E+03 0.  0.
          5    1    4    4  502    0  0.59247677760E+02  0.27346988890E+02 -0.48200718338E+03  0.48642693177E+03  0.47000000000E+01 0. -1.
         -5    1    4    4    0  502 -0.29486626401E+02 -0.56698671539E+02 -0.32249542133E+03  0.32880022395E+03  0.47000000000E+01 0. -1.
        -11    1    3    3    0    0 -0.26241797008E+02  0.59863105771E+02 -0.27318831526E+03  0.28089869871E+03  0.00000000000E+00 0.  1.
         11    1    3    3    0    0 -0.35192543513E+01 -0.30511423122E+02 -0.17032085873E+03  0.17306798379E+03  0.00000000000E+00 0. -1.
<mgrwt>
<rscale>  0 0.12203643E+03</rscale>
<asrwt>0</asrwt>
<pdfrwt beam="2">  1        3 0.19363110E+00 0.13179861E+03</pdfrwt>
<pdfrwt beam="1">  1       -3 0.16293900E-02 0.13179861E+03</pdfrwt>
<totfact> 0.53361271E+02</totfact>
</mgrwt>
</event>
<event>
 8    1  0.1273312E-005  0.1502937E+03  0.7546771E-02  0.1204291E+00
          1   -1    0    0  501    0  0.00000000000E+00  0.00000000000E+00  0.29781468485E+03  0.29781468485E+03  0.00000000000E+00 0. -1.
         -1   -1    0    0    0  501 -0.00000000000E+00 -0.00000000000E+00 -0.70720819645E+02  0.70720819645E+02  0.00000000000E+00 0.  1.
         23    2    1    2    0    0 -0.28150205016E+02  0.78555503179E+02  0.83658794951E+02  0.16078127342E+03  0.10903404417E+03 0.  0.
         23    2    1    2    0    0  0.28150205016E+02 -0.78555503179E+02  0.14343507025E+03  0.20775423108E+03  0.12499920012E+03 0.  0.
          5    1    4    4  502    0  0.58421212613E+02 -0.13050951930E+02  0.11560747256E+03  0.13027103723E+03  0.47000000000E+01 0. -1.
         -5    1    4    4    0  502 -0.30271007597E+02 -0.65504551249E+02  0.27827597693E+02  0.77483193846E+02  0.47000000000E+01 0. -1.
        -11    1    3    3    0    0 -0.22211135291E+02 -0.21610408757E+02  0.13821515709E+01  0.31020229537E+02  0.00000000000E+00 0.  1.
         11    1    3    3    0    0 -0.59390697251E+01  0.10016591194E+03  0.82276643380E+02  0.12976104388E+03  0.00000000000E+00 0. -1.
<mgrwt>
<rscale>  0 0.14693484E+03</rscale>
<asrwt>0</asrwt>
<pdfrwt beam="1">  1        1 0.45817643E-01 0.15029372E+03</pdfrwt>
<pdfrwt beam="2">  1       -1 0.10880126E-01 0.15029372E+03</pdfrwt>
<totfact> 0.45649770E+03</totfact>
</mgrwt>
</event>
<event>
 8    1  0.1273312E-005  0.1688676E+03  0.7546771E-02  0.1185327E+00
         -2   -1    0    0    0  501 -0.00000000000E+00  0.00000000000E+00  0.23953859400E+02  0.23953859400E+02  0.00000000000E+00 0.  1.
          2   -1    0    0  501    0  0.00000000000E+00 -0.00000000000E+00 -0.10699334173E+04  0.10699334173E+04  0.00000000000E+00 0. -1.
         23    2    1    2    0    0  0.79705610014E+02 -0.80857672472E+02 -0.39466040600E+03  0.42103298239E+03  0.92849279630E+02 0.  0.
         23    2    1    2    0    0 -0.79705610014E+02  0.80857672472E+02 -0.65131915185E+03  0.67285429426E+03  0.12500126510E+03 0.  0.
          5    1    4    4  502    0 -0.56543977495E+02  0.73947712740E+02 -0.63816892916E+03  0.64493965436E+03  0.47000000000E+01 0. -1.
         -5    1    4    4    0  502 -0.23161632520E+02  0.69099597316E+01 -0.13150222686E+02  0.27914639908E+02  0.47000000000E+01 0. -1.
        -11    1    3    3    0    0  0.14645468680E+02 -0.60013883447E+02 -0.92400474373E+02  0.11114856555E+03  0.00000000000E+00 0. -1.
         11    1    3    3    0    0  0.65060141334E+02 -0.20843789024E+02 -0.30225993163E+03  0.30988441684E+03  0.00000000000E+00 0.  1.
<mgrwt>
<rscale>  0 0.16302142E+03</rscale>
<asrwt>0</asrwt>
<pdfrwt beam="2">  1        2 0.16460515E+00 0.16886759E+03</pdfrwt>
<pdfrwt beam="1">  1       -2 0.36852090E-02 0.16886759E+03</pdfrwt>
<totfact> 0.72616440E+03</totfact>
</mgrwt>
</event>
<event>
 7    1  0.1273312E-005  0.2627767E+03  0.7546771E-02  0.1147385E+00
          1   -1    0    0  501    0  0.00000000000E+00  0.00000000000E+00  0.16671310870E+03  0.16671310870E+03  0.00000000000E+00 0. -1.
         -1   -1    0    0    0  501 -0.00000000000E+00 -0.00000000000E+00 -0.20015247450E+03  0.20015247450E+03  0.00000000000E+00 0.  1.
         23    2    1    2    0    0  0.17702988072E+02  0.24664208177E+00 -0.45613041613E+02  0.10380709134E+03  0.91552749978E+02 0.  0.
          5    1    1    2  502    0  0.91535232050E+02  0.82972977482E+02  0.20844210497E+02  0.12537856599E+03  0.47000000000E+01 0. -1.
         -5    1    1    2    0  502 -0.10923822012E+03 -0.83219619563E+02 -0.86705346896E+01  0.13767992587E+03  0.47000000000E+01 0.  1.
        -11    1    3    3    0    0  0.30562638237E+02  0.35704164459E+02 -0.32859391538E+01  0.47113263652E+02  0.00000000000E+00 0. -1.
         11    1    3    3    0    0 -0.12859650165E+02 -0.35457522378E+02 -0.42327102459E+02  0.56693827690E+02  0.00000000000E+00 0.  1.
<mgrwt>
<rscale>  0 0.20281546E+03</rscale>
<asrwt>0</asrwt>
<pdfrwt beam="1">  1        1 0.25648171E-01 0.26277666E+03</pdfrwt>
<pdfrwt beam="2">  1       -1 0.30792688E-01 0.26277666E+03</pdfrwt>
<totfact> 0.18031867E+03</totfact>
</mgrwt>
</event>
<event>
 8    1  0.1273312E-005  0.1393249E+03  0.7546771E-02  0.1224214E+00
          2   -1    0    0  501    0  0.00000000000E+00  0.00000000000E+00  0.23817563622E+03  0.23817563622E+03  0.00000000000E+00 0. -1.
         -2   -1    0    0    0  501 -0.00000000000E+00 -0.00000000000E+00 -0.70436853649E+02  0.70436853649E+02  0.00000000000E+00 0.  1.
         23    2    1    2    0    0  0.16949577153E+02 -0.59162907959E+02  0.40735000161E+02  0.12008823706E+03  0.94732816904E+02 0.  0.
         23    2    1    2    0    0 -0.16949577153E+02  0.59162907959E+02  0.12700378241E+03  0.18852425281E+03  0.12499558115E+03 0.  0.
          5    1    4    4  502    0 -0.27550456777E+02  0.42996088276E+02 -0.81403597735E+01  0.51923469962E+02  0.47000000000E+01 0. -1.
         -5    1    4    4    0  502  0.10600879624E+02  0.16166819683E+02  0.13514414219E+03  0.13660078285E+03  0.47000000000E+01 0. -1.
        -11    1    3    3    0    0 -0.33708643826E+02 -0.22785323431E+02  0.40942788435E+02  0.57721361360E+02  0.00000000000E+00 0. -1.
         11    1    3    3    0    0  0.50658220978E+02 -0.36377584529E+02 -0.20778827426E+00  0.62366875702E+02  0.00000000000E+00 0.  1.
<mgrwt>
<rscale>  0 0.13220893E+03</rscale>
<asrwt>0</asrwt>
<pdfrwt beam="1">  1        2 0.36642405E-01 0.13932492E+03</pdfrwt>
<pdfrwt beam="2">  1       -2 0.10836439E-01 0.13932492E+03</pdfrwt>
<totfact> 0.77971902E+03</totfact>
</mgrwt>
</event>
<event>
 7    1  0.1273312E-005  0.3137034E+03  0.7546771E-02  0.1087605E+00
         -1   -1    0    0    0  501 -0.00000000000E+00  0.00000000000E+00  0.15011409359E+03  0.15011409359E+03  0.00000000000E+00 0.  1.
          1   -1    0    0  501    0  0.00000000000E+00 -0.00000000000E+00 -0.17496578772E+04  0.17496578772E+04  0.00000000000E+00 0. -1.
         23    2    1    2    0    0 -0.11047029176E+03 -0.20083918129E+03  0.22750278291E+02  0.24742580027E+03  0.90343175580E+02 0.  0.
          5    1    1    2  502    0  0.14647471763E+03  0.11283329090E+03 -0.13745868843E+04  0.13869741840E+04  0.47000000000E+01 0. -1.
         -5    1    1    2    0  502 -0.36004425866E+02  0.88005890386E+02 -0.24770717757E+03  0.26537198654E+03  0.47000000000E+01 0.  1.
        -11    1    3    3    0    0 -0.12370439669E+03 -0.18224208394E+03  0.83131172258E+01  0.22041792766E+03  0.00000000000E+00 0.  1.
         11    1    3    3    0    0  0.13234104924E+02 -0.18597097347E+02  0.14437161065E+02  0.27007872602E+02  0.00000000000E+00 0. -1.
<mgrwt>
<rscale>  0 0.29531791E+03</rscale>
<asrwt>0</asrwt>
<pdfrwt beam="2">  1        1 0.26917815E+00 0.31370343E+03</pdfrwt>
<pdfrwt beam="1">  1       -1 0.23094474E-01 0.31370343E+03</pdfrwt>
<totfact> 0.77809167E+01</totfact>
</mgrwt>
</event>
<event>
 8    1  0.1273312E-005  0.1756665E+03  0.7546771E-02  0.1177909E+00
          1   -1    0    0  501    0  0.00000000000E+00  0.00000000000E+00  0.16766756040E+03  0.16766756040E+03  0.00000000000E+00 0. -1.
         -1   -1    0    0    0  501 -0.00000000000E+00 -0.00000000000E+00 -0.16442849548E+03  0.16442849548E+03  0.00000000000E+00 0.  1.
         23    2    1    2    0    0 -0.10972992971E+03  0.56521966083E+02 -0.18993381177E+02  0.15502830919E+03  0.91856616510E+02 0.  0.
         23    2    1    2    0    0  0.10972992971E+03 -0.56521966083E+02  0.22232446097E+02  0.17706774669E+03  0.12499326036E+03 0.  0.
          5    1    4    4  502    0  0.10354106826E+03 -0.72672975444E+02 -0.22778191264E+02  0.12861978920E+03  0.47000000000E+01 0. -1.
         -5    1    4    4    0  502  0.61888614473E+01  0.16151009361E+02  0.45010637361E+02  0.48447957491E+02  0.47000000000E+01 0. -1.
        -11    1    3    3    0    0 -0.60332458122E+02  0.61468646756E+02 -0.46906565526E+02  0.98074593685E+02  0.00000000000E+00 0.  1.
         11    1    3    3    0    0 -0.49397471589E+02 -0.49466806727E+01  0.27913184349E+02  0.56953715502E+02  0.00000000000E+00 0. -1.
<mgrwt>
<rscale>  0 0.16994108E+03</rscale>
<asrwt>0</asrwt>
<pdfrwt beam="1">  1        1 0.25795009E-01 0.17566646E+03</pdfrwt>
<pdfrwt beam="2">  1       -1 0.25296692E-01 0.17566646E+03</pdfrwt>
<totfact> 0.24614543E+03</totfact>
</mgrwt>
</event>
<event>
 8    1  0.1273312E-005  0.2112777E+03  0.7546771E-02  0.1144222E+00
          2   -1    0    0  501    0  0.00000000000E+00  0.00000000000E+00  0.20512636613E+04  0.20512636613E+04  0.00000000000E+00 0. -1.
         -2   -1    0    0    0  501 -0.00000000000E+00 -0.00000000000E+00 -0.21264885385E+02  0.21264885385E+02  0.00000000000E+00 0.  1.
         23    2    1    2    0    0  0.15832285790E+03  0.62821168311E+02  0.71729760857E+03  0.74293364332E+03  0.91770979059E+02 0.  0.
         23    2    1    2    0    0 -0.15832285790E+03 -0.62821168311E+02  0.13127011674E+04  0.13295949034E+04  0.12500250309E+03 0.  0.
          5    1    4    4  502    0 -0.47978280131E+01  0.20818852761E+02  0.46690619470E+02  0.51561106761E+02  0.47000000000E+01 0. -1.
         -5    1    4    4    0  502 -0.15352502989E+03 -0.83640021072E+02  0.12660105479E+04  0.12780337966E+04  0.47000000000E+01 0. -1.
        -11    1    3    3    0    0  0.12878897092E+03  0.76540970749E+02  0.66216455335E+03  0.67890132931E+03  0.00000000000E+00 0. -1.
         11    1    3    3    0    0  0.29533886980E+02 -0.13719802438E+02  0.55133055221E+02  0.64032314007E+02  0.00000000000E+00 0.  1.
<mgrwt>
<rscale>  0 0.20668038E+03</rscale>
<asrwt>0</asrwt>
<pdfrwt beam="1">  1        2 0.31557887E+00 0.21127767E+03</pdfrwt>
<pdfrwt beam="2">  1       -2 0.32715225E-02 0.21127767E+03</pdfrwt>
<totfact> 0.26024387E+03</totfact>
</mgrwt>
</event>
<event>
 8    1  0.1273312E-005  0.1522276E+03  0.7546771E-02  0.1206256E+00
         -1   -1    0    0    0  501 -0.00000000000E+00  0.00000000000E+00  0.52548079442E+03  0.52548079442E+03  0.00000000000E+00 0.  1.
          1   -1    0    0  501    0  0.00000000000E+00 -0.00000000000E+00 -0.45224107133E+02  0.45224107133E+02  0.00000000000E+00 0. -1.
         23    2    1    2    0    0  0.66131454633E+02 -0.56361237725E+02  0.34335333920E+03  0.36597152486E+03  0.92161179791E+02 0.  0.
         23    2    1    2    0    0 -0.66131454633E+02  0.56361237725E+02  0.13690334809E+03  0.20473337669E+03  0.12499308142E+03 0.  0.
          5    1    4    4  502    0 -0.63315550351E+02  0.93797478561E+02  0.11292153059E+03  0.15993807543E+03  0.47000000000E+01 0. -1.
         -5    1    4    4    0  502 -0.28159042825E+01 -0.37436240836E+02  0.23981817495E+02  0.44795301262E+02  0.47000000000E+01 0. -1.
        -11    1    3    3    0    0 -0.20403944905E+02 -0.29320750392E+02  0.86416560906E+02  0.93508552390E+02  0.00000000000E+00 0. -1.
         11    1    3    3    0    0  0.86535399538E+02 -0.27040487333E+02  0.25693677829E+03  0.27246297247E+03  0.00000000000E+00 0.  1.
<mgrwt>
<rscale>  0 0.14538943E+03</rscale>
<asrwt>0</asrwt>
<pdfrwt beam="2">  1        1 0.69575553E-02 0.15222756E+03</pdfrwt>
<pdfrwt beam="1">  1       -1 0.80843195E-01 0.15222756E+03</pdfrwt>
<totfact> 0.16465385E+03</totfact>
</mgrwt>
</event>
<event>
 8    1  0.1273312E-005  0.1424400E+03  0.7546771E-02  0.1220297E+00
          2   -1    0    0  501    0  0.00000000000E+00  0.00000000000E+00  0.13967968173E+04  0.13967968173E+04  0.00000000000E+00 0. -1.
         -2   -1    0    0    0  501 -0.00000000000E+00 -0.00000000000E+00 -0.16175706285E+02  0.16175706285E+02  0.00000000000E+00 0.  1.
         23    2    1    2    0    0 -0.11839463797E+02 -0.67252854457E+02  0.27164133853E+03  0.29488250140E+03  0.92214714107E+02 0.  0.
         23    2    1    2    0    0  0.11839463797E+02  0.67252854457E+02  0.11089797725E+04  0.11180900222E+04  0.12500417030E+03 0.  0.
          5    1    4    4  502    0 -0.18821617078E+02 -0.19740553174E+02  0.61045712794E+03  0.61108423131E+03  0.47000000000E+01 0.  1.
         -5    1    4    4    0  502  0.30661080874E+02  0.86993407630E+02  0.49852264455E+03  0.50700579087E+03  0.47000000000E+01 0.  1.
        -11    1    3    3    0    0 -0.50425124967E+02 -0.21821506866E+02  0.12170560755E+03  0.13353324042E+03  0.00000000000E+00 0.  1.
         11    1    3    3    0    0  0.38585661170E+02 -0.45431347591E+02  0.14993573098E+03  0.16134926097E+03  0.00000000000E+00 0. -1.
<mgrwt>
<rscale>  0 0.13494554E+03</rscale>
<asrwt>0</asrwt>
<pdfrwt beam="1">  1        2 0.21489172E+00 0.14244003E+03</pdfrwt>
<pdfrwt beam="2">  1       -2 0.24885713E-02 0.14244003E+03</pdfrwt>
<totfact> 0.84869044E+03</totfact>
</mgrwt>
</event>
<event>
 8    1  0.1273312E-005  0.1713724E+03  0.7546771E-02  0.1182021E+00
         -2   -1    0    0    0  501 -0.00000000000E+00  0.00000000000E+00  0.15060515125E+02  0.15060515125E+02  0.00000000000E+00 0. -1.
          2   -1    0    0  501    0  0.00000000000E+00 -0.00000000000E+00 -0.38234843839E+04  0.38234843839E+04  0.00000000000E+00 0.  1.
         23    2    1    2    0    0  0.74357460678E+02 -0.90633415260E+02 -0.42989312034E+03  0.45567060305E+03  0.95310837007E+02 0.  0.
         23    2    1    2    0    0 -0.74357460678E+02  0.90633415260E+02 -0.33785307484E+04  0.33828742960E+04  0.12500014522E+03 0.  0.
          5    1    4    4  502    0 -0.69588128335E+02  0.15658993069E+02 -0.25304941348E+04  0.25315035785E+04  0.47000000000E+01 0. -1.
         -5    1    4    4    0  502 -0.47693323427E+01  0.74974422190E+02 -0.84803661366E+03  0.85137071751E+03  0.47000000000E+01 0. -1.
        -11    1    3    3    0    0  0.41725675491E+02 -0.50843191992E+02 -0.37382531518E+03  0.37956742278E+03  0.00000000000E+00 0.  1.
         11    1    3    3    0    0  0.32631785187E+02 -0.39790223268E+02 -0.56067805163E+02  0.76103180275E+02  0.00000000000E+00 0. -1.
<mgrwt>
<rscale>  0 0.16605927E+03</rscale>
<asrwt>0</asrwt>
<pdfrwt beam="2">  1        2 0.58822781E+00 0.17137236E+03</pdfrwt>
<pdfrwt beam="1">  1       -2 0.23170045E-02 0.17137236E+03</pdfrwt>
<totfact> 0.39129586E+02</totfact>
</mgrwt>
</event>
<event>
 8    1  0.1273312E-005  0.1338340E+03  0.7546771E-02  0.1233981E+00
          2   -1    0    0  501    0  0.00000000000E+00  0.00000000000E+00  0.10624736022E+04  0.10624736022E+04  0.00000000000E+00 0. -1.
         -2   -1    0    0    0  501 -0.00000000000E+00 -0.00000000000E+00 -0.13893439698E+02  0.13893439698E+02  0.00000000000E+00 0.  1.
         23    2    1    2    0    0  0.47174783738E+02  0.79168882666E+01  0.35356096165E+03  0.36857948914E+03  0.92505939651E+02 0.  0.
         23    2    1    2    0    0 -0.47174783738E+02 -0.79168882666E+01  0.69501920090E+03  0.70778755280E+03  0.12499357162E+03 0.  0.
          5    1    4    4  502    0 -0.23006544939E+02  0.52731324934E+02  0.19088459120E+03  0.19942144041E+03  0.47000000000E+01 0.  1.
         -5    1    4    4    0  502 -0.24168238799E+02 -0.60648213200E+02  0.50413460970E+03  0.50836611239E+03  0.47000000000E+01 0.  1.
        -11    1    3    3    0    0 -0.24798007304E+02 -0.12475068456E+02  0.69626617100E+02  0.74956215940E+02  0.00000000000E+00 0.  1.
         11    1    3    3    0    0  0.71972791042E+02  0.20391956722E+02  0.28393434455E+03  0.29362327320E+03  0.00000000000E+00 0. -1.
<mgrwt>
<rscale>  0 0.12569873E+03</rscale>
<asrwt>0</asrwt>
<pdfrwt beam="1">  1        2 0.16345741E+00 0.13383397E+03</pdfrwt>
<pdfrwt beam="2">  1       -2 0.21374531E-02 0.13383397E+03</pdfrwt>
<totfact> 0.16140622E+04</totfact>
</mgrwt>
</event>
<event>
 8    1  0.1273312E-005  0.1701183E+03  0.7546771E-02  0.1184189E+00
         -2   -1    0    0    0  501 -0.00000000000E+00  0.00000000000E+00  0.71429911979E+02  0.71429911979E+02  0.00000000000E+00 0. -1.
          2   -1    0    0  501    0  0.00000000000E+00 -0.00000000000E+00 -0.36534957516E+03  0.36534957516E+03  0.00000000000E+00 0.  1.
         23    2    1    2    0    0 -0.99406993088E+02  0.58599337960E+02 -0.95511979907E+02  0.17542561441E+03  0.91301561874E+02 0.  0.
         23    2    1    2    0    0  0.99406993088E+02 -0.58599337960E+02 -0.19840768327E+03  0.26135387273E+03  0.12499842129E+03 0.  0.
          5    1    4    4  502    0  0.85672500946E+01 -0.59810435434E+02 -0.25047593980E+02  0.65575589400E+02  0.47000000000E+01 0. -1.
         -5    1    4    4    0  502  0.90839742993E+02  0.12110974734E+01 -0.17336008929E+03  0.19577828333E+03  0.47000000000E+01 0. -1.
        -11    1    3    3    0    0 -0.53475341902E+02  0.40465811274E+02 -0.10553326033E+03  0.12503744683E+03  0.00000000000E+00 0.  1.
         11    1    3    3    0    0 -0.45931651186E+02  0.18133526686E+02  0.10021280423E+02  0.50388167580E+02  0.00000000000E+00 0. -1.
<mgrwt>
<rscale>  0 0.16405881E+03</rscale>
<asrwt>0</asrwt>
<pdfrwt beam="2">  1        2 0.56207627E-01 0.17011831E+03</pdfrwt>
<pdfrwt beam="1">  1       -2 0.10989217E-01 0.17011831E+03</pdfrwt>
<totfact> 0.48906209E+03</totfact>
</mgrwt>
</event>
<event>
 7    1  0.1273312E-005  0.2600365E+03  0.7546771E-02  0.1123901E+00
          2   -1    0    0  501    0  0.00000000000E+00  0.00000000000E+00  0.16666937844E+04  0.16666937844E+04  0.00000000000E+00 0. -1.
         -2   -1    0    0    0  501 -0.00000000000E+00 -0.00000000000E+00 -0.30088378809E+02  0.30088378809E+02  0.00000000000E+00 0.  1.
         23    2    1    2    0    0 -0.13470475776E+03 -0.30864712137E+02  0.43061293844E+03  0.46307361009E+03  0.99557337183E+02 0.  0.
          5    1    1    2  502    0  0.13760609445E+03 -0.53282651682E+02  0.46355998934E+03  0.48650224245E+03  0.47000000000E+01 0. -1.
         -5    1    1    2    0  502 -0.29013366921E+01  0.84147363819E+02  0.74243247777E+03  0.74720631062E+03  0.47000000000E+01 0.  1.
        -11    1    3    3    0    0 -0.76002797063E+02  0.33344417811E+02  0.22461775322E+03  0.23946066571E+03  0.00000000000E+00 0.  1.
         11    1    3    3    0    0 -0.58701960694E+02 -0.64209129948E+02  0.20599518522E+03  0.22361294438E+03  0.00000000000E+00 0. -1.
<mgrwt>
<rscale>  0 0.23393410E+03</rscale>
<asrwt>0</asrwt>
<pdfrwt beam="1">  1        2 0.25641436E+00 0.26003647E+03</pdfrwt>
<pdfrwt beam="2">  1       -2 0.46289826E-02 0.26003647E+03</pdfrwt>
<totfact> 0.24500015E+03</totfact>
</mgrwt>
</event>
<event>
 8    1  0.1273312E-005  0.1621494E+03  0.7546771E-02  0.1193141E+00
          2   -1    0    0  501    0  0.00000000000E+00  0.00000000000E+00  0.12026387187E+04  0.12026387187E+04  0.00000000000E+00 0.  1.
         -2   -1    0    0    0  501 -0.00000000000E+00 -0.00000000000E+00 -0.20791250349E+02  0.20791250349E+02  0.00000000000E+00 0. -1.
         23    2    1    2    0    0  0.96482358186E+02  0.36872951035E+02  0.36623909023E+03  0.39185948764E+03  0.93564559990E+02 0.  0.
         23    2    1    2    0    0 -0.96482358186E+02 -0.36872951035E+02  0.81560837817E+03  0.83157048146E+03  0.12499591643E+03 0.  0.
          5    1    4    4  502    0 -0.98508534611E+02 -0.53750711691E+02  0.39677164239E+03  0.41236257906E+03  0.47000000000E+01 0.  1.
         -5    1    4    4    0  502  0.20261764252E+01  0.16877760656E+02  0.41883673578E+03  0.41920790240E+03  0.47000000000E+01 0.  1.
        -11    1    3    3    0    0  0.10651387932E+03  0.57861909168E+01  0.27692352358E+03  0.29675802332E+03  0.00000000000E+00 0.  1.
         11    1    3    3    0    0 -0.10031521132E+02  0.31086760118E+02  0.89315566647E+02  0.95101464323E+02  0.00000000000E+00 0. -1.
<mgrwt>
<rscale>  0 0.15612610E+03</rscale>
<asrwt>0</asrwt>
<pdfrwt beam="1">  1        2 0.18502129E+00 0.16214943E+03</pdfrwt>
<pdfrwt beam="2">  1       -2 0.31986548E-02 0.16214943E+03</pdfrwt>
<totfact> 0.75152173E+03</totfact>
</mgrwt>
</event>
<event>
 8    1  0.1273312E-005  0.1441769E+03  0.7546771E-02  0.1219060E+00
         -2   -1    0    0    0  501 -0.00000000000E+00  0.00000000000E+00  0.60299746846E+02  0.60299746846E+02  0.00000000000E+00 0.  1.
          2   -1    0    0  501    0  0.00000000000E+00 -0.00000000000E+00 -0.27848932540E+03  0.27848932540E+03  0.00000000000E+00 0. -1.
         23    2    1    2    0    0  0.39651288505E+02 -0.59922875376E+02 -0.11396064503E+03  0.16088278652E+03  0.87938994247E+02 0.  0.
         23    2    1    2    0    0 -0.39651288505E+02  0.59922875376E+02 -0.10422893353E+03  0.17790628573E+03  0.12499600092E+03 0.  0.
          5    1    4    4  502    0  0.45336640073E+02  0.15388874465E+02 -0.35507111389E+02  0.59791917092E+02  0.47000000000E+01 0. -1.
         -5    1    4    4    0  502 -0.84987928578E+02  0.44534000911E+02 -0.68721822140E+02  0.11811436864E+03  0.47000000000E+01 0. -1.
        -11    1    3    3    0    0 -0.28292136227E+02 -0.18162797409E+02 -0.29619569033E+02  0.44806819254E+02  0.00000000000E+00 0.  1.
         11    1    3    3    0    0  0.67943424732E+02 -0.41760077967E+02 -0.84341075997E+02  0.11607596726E+03  0.00000000000E+00 0. -1.
<mgrwt>
<rscale>  0 0.13582498E+03</rscale>
<asrwt>0</asrwt>
<pdfrwt beam="2">  1        2 0.42844511E-01 0.14417689E+03</pdfrwt>
<pdfrwt beam="1">  1       -2 0.92768843E-02 0.14417689E+03</pdfrwt>
<totfact> 0.84489108E+03</totfact>
</mgrwt>
</event>
<event>
 8    1  0.1273312E-005  0.1820419E+03  0.7546771E-02  0.1170516E+00
         -1   -1    0    0    0  501 -0.00000000000E+00  0.00000000000E+00  0.31126066723E+02  0.31126066723E+02  0.00000000000E+00 0.  1.
          1   -1    0    0  501    0  0.00000000000E+00 -0.00000000000E+00 -0.16531616183E+04  0.16531616183E+04  0.00000000000E+00 0. -1.
         23    2    1    2    0    0 -0.29605425618E+02  0.13312264034E+03 -0.24060844037E+03  0.29091762876E+03  0.90235949294E+02 0.  0.
         23    2    1    2    0    0  0.29605425618E+02 -0.13312264034E+03 -0.13814271112E+04  0.13933700563E+04  0.12058661422E+03 0.  0.
          5    1    4    4  502    0  0.38789021510E+02 -0.14233738397E+03 -0.13591945017E+04  0.13671855407E+04  0.47000000000E+01 0. -1.
         -5    1    4    4    0  502 -0.91835958923E+01  0.92147436244E+01 -0.22232609513E+02  0.26184515641E+02  0.47000000000E+01 0.  1.
        -11    1    3    3    0    0 -0.47466432509E+02  0.13049238958E+03 -0.17798149080E+03  0.22574041955E+03  0.00000000000E+00 0.  1.
         11    1    3    3    0    0  0.17861006891E+02  0.26302507596E+01 -0.62626949575E+02  0.65177209201E+02  0.00000000000E+00 0. -1.
<mgrwt>
<rscale>  0 0.17722500E+03</rscale>
<asrwt>0</asrwt>
<pdfrwt beam="2">  1        1 0.25433259E+00 0.18204189E+03</pdfrwt>
<pdfrwt beam="1">  1       -1 0.47886250E-02 0.18204189E+03</pdfrwt>
<totfact> 0.10727572E+03</totfact>
</mgrwt>
</event>
<event>
 8    1  0.1273312E-005  0.1649053E+03  0.7546771E-02  0.1190200E+00
         -1   -1    0    0    0  501 -0.00000000000E+00  0.00000000000E+00  0.48270623232E+03  0.48270623232E+03  0.00000000000E+00 0.  1.
          1   -1    0    0  501    0  0.00000000000E+00 -0.00000000000E+00 -0.56937144981E+02  0.56937144981E+02  0.00000000000E+00 0. -1.
         23    2    1    2    0    0  0.10067499351E+03  0.37866231167E+02  0.30203031502E+03  0.33347584465E+03  0.91730703643E+02 0.  0.
         23    2    1    2    0    0 -0.10067499351E+03 -0.37866231167E+02  0.12373877232E+03  0.20616753265E+03  0.12499784783E+03 0.  0.
          5    1    4    4  502    0 -0.74430651114E+00 -0.50167959027E+02  0.53399629989E+01  0.50675273161E+02  0.47000000000E+01 0.  1.
         -5    1    4    4    0  502 -0.99930687004E+02  0.12301727860E+02  0.11839880932E+03  0.15549225949E+03  0.47000000000E+01 0.  1.
        -11    1    3    3    0    0  0.11654174132E+03  0.29196991997E+02  0.23344283922E+03  0.26254523609E+03  0.00000000000E+00 0.  1.
         11    1    3    3    0    0 -0.15866747804E+02  0.86692391698E+01  0.68587475798E+02  0.70930608556E+02  0.00000000000E+00 0. -1.
<mgrwt>
<rscale>  0 0.15867586E+03</rscale>
<asrwt>0</asrwt>
<pdfrwt beam="2">  1        1 0.87595611E-02 0.16490533E+03</pdfrwt>
<pdfrwt beam="1">  1       -1 0.74262494E-01 0.16490533E+03</pdfrwt>
<totfact> 0.14386989E+03</totfact>
</mgrwt>
</event>
<event>
 8    1  0.1273312E-005  0.1314565E+03  0.7546771E-02  0.1239130E+00
         -3   -1    0    0    0  501 -0.00000000000E+00  0.00000000000E+00  0.18219243694E+03  0.18219243694E+03  0.00000000000E+00 0.  1.
          3   -1    0    0  501    0  0.00000000000E+00 -0.00000000000E+00 -0.74668190206E+02  0.74668190206E+02  0.00000000000E+00 0. -1.
         23    2    1    2    0    0  0.38703174691E+02  0.12524695317E+02  0.66318033767E+02  0.11909721099E+03  0.90173501308E+02 0.  0.
         23    2    1    2    0    0 -0.38703174691E+02 -0.12524695317E+02  0.41206212968E+02  0.13776341616E+03  0.12500401242E+03 0.  0.
          5    1    4    4  502    0  0.27477144085E+00  0.44642543434E+02  0.50755551154E+02  0.67758749668E+02  0.47000000000E+01 0.  1.
         -5    1    4    4    0  502 -0.38977946132E+02 -0.57167238751E+02 -0.95493381857E+01  0.70004666493E+02  0.47000000000E+01 0.  1.
        -11    1    3    3    0    0  0.25512180854E+02  0.44849341215E+02  0.66517882597E+02  0.84184104703E+02  0.00000000000E+00 0.  1.
         11    1    3    3    0    0  0.13190993837E+02 -0.32324645898E+02 -0.19984882994E+00  0.34913106284E+02  0.00000000000E+00 0. -1.
<mgrwt>
<rscale>  0 0.12243695E+03</rscale>
<asrwt>0</asrwt>
<pdfrwt beam="2">  1        3 0.11487414E-01 0.13145648E+03</pdfrwt>
<pdfrwt beam="1">  1       -3 0.28029606E-01 0.13145648E+03</pdfrwt>
<totfact> 0.16269620E+03</totfact>
</mgrwt>
</event>
<event>
 8    1  0.1273312E-005  0.1357180E+03  0.7546771E-02  0.1230879E+00
          2   -1    0    0  501    0  0.00000000000E+00  0.00000000000E+00  0.79863998115E+03  0.79863998115E+03  0.00000000000E+00 0.  1.
         -2   -1    0    0    0  501 -0.00000000000E+00 -0.00000000000E+00 -0.21530342155E+02  0.21530342155E+02  0.00000000000E+00 0. -1.
         23    2    1    2    0    0 -0.56793135212E+01 -0.52562239794E+02  0.19205612757E+03  0.21958145132E+03  0.92387304169E+02 0.  0.
         23    2    1    2    0    0  0.56793135212E+01  0.52562239794E+02  0.58505351143E+03  0.60058887199E+03  0.12499735305E+03 0.  0.
          5    1    4    4  502    0 -0.56027041942E+02  0.26395203549E+02  0.37327866978E+03  0.37841087658E+03  0.47000000000E+01 0.  1.
         -5    1    4    4    0  502  0.61706355463E+02  0.26167036245E+02  0.21177484165E+03  0.22217799541E+03  0.47000000000E+01 0.  1.
        -11    1    3    3    0    0  0.28444804060E+02 -0.48127099637E+02  0.16938820400E+03  0.17837513350E+03  0.00000000000E+00 0.  1.
         11    1    3    3    0    0 -0.34124117581E+02 -0.44351401564E+01  0.22667923566E+02  0.41206317813E+02  0.00000000000E+00 0. -1.
<mgrwt>
<rscale>  0 0.12772005E+03</rscale>
<asrwt>0</asrwt>
<pdfrwt beam="1">  1        2 0.12286767E+00 0.13571802E+03</pdfrwt>
<pdfrwt beam="2">  1       -2 0.33123610E-02 0.13571802E+03</pdfrwt>
<totfact> 0.12415683E+04</totfact>
</mgrwt>
</event>
<event>
 8    1  0.1273312E-005  0.1313213E+03  0.7546771E-02  0.1238941E+00
         -2   -1    0    0    0  501 -0.00000000000E+00  0.00000000000E+00  0.25858648757E+02  0.25858648757E+02  0.00000000000E+00 0.  1.
          2   -1    0    0  501    0  0.00000000000E+00 -0.00000000000E+00 -0.51755504962E+03  0.51755504962E+03  0.00000000000E+00 0. -1.
         23    2    1    2    0    0 -0.40155306118E+02  0.29941386412E+01 -0.19566096060E+03  0.21955837341E+03  0.91111219697E+02 0.  0.
         23    2    1    2    0    0  0.40155306118E+02 -0.29941386412E+01 -0.29603544025E+03  0.32385532496E+03  0.12499550449E+03 0.  0.
          5    1    4    4  502    0  0.71034430213E+02  0.10688966861E+02 -0.27389613476E+03  0.28319838793E+03  0.47000000000E+01 0.  1.
         -5    1    4    4    0  502 -0.30879124096E+02 -0.13683105502E+02 -0.22139305490E+02  0.40656937030E+02  0.47000000000E+01 0.  1.
        -11    1    3    3    0    0  0.12749589598E+02 -0.27659762024E+02 -0.29079066601E+02  0.42109459562E+02  0.00000000000E+00 0.  1.
         11    1    3    3    0    0 -0.52904895716E+02  0.30653900665E+02 -0.16658189400E+03  0.17744891385E+03  0.00000000000E+00 0. -1.
<mgrwt>
<rscale>  0 0.12255471E+03</rscale>
<asrwt>0</asrwt>
<pdfrwt beam="2">  1        2 0.79623858E-01 0.13132132E+03</pdfrwt>
<pdfrwt beam="1">  1       -2 0.39782534E-02 0.13132132E+03</pdfrwt>
<totfact> 0.15639140E+04</totfact>
</mgrwt>
</event>
<event>
 7    1  0.1273312E-005  0.1859320E+03  0.7546771E-02  0.1186891E+00
          1   -1    0    0  501    0  0.00000000000E+00  0.00000000000E+00  0.31906216990E+03  0.31906216990E+03  0.00000000000E+00 0. -1.
         -1   -1    0    0    0  501 -0.00000000000E+00 -0.00000000000E+00 -0.10350996706E+03  0.10350996706E+03  0.00000000000E+00 0.  1.
         23    2    1    2    0    0 -0.18481890560E+02 -0.50110789081E+02 -0.33939269556E+02  0.11141834075E+03  0.91703332422E+02 0.  0.
          5    1    1    2  502    0 -0.36597938569E+02  0.98427833426E+02  0.18797248269E+03  0.21536757358E+03  0.47000000000E+01 0. -1.
         -5    1    1    2    0  502  0.55079829129E+02 -0.48317044345E+02  0.61518989707E+02  0.95786222630E+02  0.47000000000E+01 0.  1.
        -11    1    3    3    0    0 -0.15175922832E+02  0.12008634441E+02  0.20904507753E+02  0.28487091451E+02  0.00000000000E+00 0. -1.
         11    1    3    3    0    0 -0.33059677276E+01 -0.62119423522E+02 -0.54843777309E+02  0.82931249302E+02  0.00000000000E+00 0.  1.
<mgrwt>
<rscale>  0 0.16161002E+03</rscale>
<asrwt>0</asrwt>
<pdfrwt beam="1">  1        1 0.49086487E-01 0.18593195E+03</pdfrwt>
<pdfrwt beam="2">  1       -1 0.15924610E-01 0.18593195E+03</pdfrwt>
<totfact> 0.23321880E+03</totfact>
</mgrwt>
</event>
<event>
 8    1  0.1273312E-005  0.1427284E+03  0.7546771E-02  0.1220067E+00
          2   -1    0    0  501    0  0.00000000000E+00  0.00000000000E+00  0.31170953402E+03  0.31170953402E+03  0.00000000000E+00 0. -1.
         -2   -1    0    0    0  501 -0.00000000000E+00 -0.00000000000E+00 -0.53380260257E+02  0.53380260257E+02  0.00000000000E+00 0.  1.
         23    2    1    2    0    0 -0.18990566394E+02 -0.66224243049E+02  0.12802217788E+03  0.17182484487E+03  0.91584973138E+02 0.  0.
         23    2    1    2    0    0  0.18990566394E+02  0.66224243049E+02  0.13030709588E+03  0.19326494941E+03  0.12500043781E+03 0.  0.
          5    1    4    4  502    0 -0.27828477001E+02  0.86074011991E+02  0.94433841858E+02  0.13085488207E+03  0.47000000000E+01 0. -1.
         -5    1    4    4    0  502  0.46819043395E+02 -0.19849768942E+02  0.35873254020E+02  0.62410067340E+02  0.47000000000E+01 0. -1.
        -11    1    3    3    0    0  0.32652226992E+02 -0.44103827668E+02  0.84514148151E+02  0.10076684366E+03  0.00000000000E+00 0. -1.
         11    1    3    3    0    0 -0.51642793385E+02 -0.22120415381E+02  0.43508029730E+02  0.71058001212E+02  0.00000000000E+00 0.  1.
<mgrwt>
<rscale>  0 0.13510856E+03</rscale>
<asrwt>0</asrwt>
<pdfrwt beam="1">  1        2 0.47955312E-01 0.14272842E+03</pdfrwt>
<pdfrwt beam="2">  1       -2 0.82123479E-02 0.14272842E+03</pdfrwt>
<totfact> 0.90558931E+03</totfact>
</mgrwt>
</event>
<event>
 7    1  0.1273312E-005  0.1424527E+03  0.7546771E-02  0.1223419E+00
         -1   -1    0    0    0  501 -0.00000000000E+00  0.00000000000E+00  0.44357778302E+02  0.44357778302E+02  0.00000000000E+00 0.  1.
          1   -1    0    0  501    0  0.00000000000E+00 -0.00000000000E+00 -0.56192144251E+03  0.56192144251E+03  0.00000000000E+00 0. -1.
         23    2    1    2    0    0  0.43508642360E+02  0.29370698540E+02 -0.51941482657E+02  0.11935336942E+03  0.93763901785E+02 0.  0.
          5    1    1    2  502    0 -0.67114719629E+02 -0.28019020246E+02 -0.11953845477E+03  0.14000351158E+03  0.47000000000E+01 0. -1.
         -5    1    1    2    0  502  0.23606077269E+02 -0.13516782941E+01 -0.34608372678E+03  0.34692233981E+03  0.47000000000E+01 0.  1.
        -11    1    3    3    0    0 -0.20605948842E+02  0.24889333509E+01  0.12774577762E+02  0.24371905011E+02  0.00000000000E+00 0. -1.
         11    1    3    3    0    0  0.64114591202E+02  0.26881765189E+02 -0.64716060418E+02  0.94981464406E+02  0.00000000000E+00 0.  1.
<mgrwt>
<rscale>  0 0.13275873E+03</rscale>
<asrwt>0</asrwt>
<pdfrwt beam="2">  1        1 0.86449453E-01 0.14245269E+03</pdfrwt>
<pdfrwt beam="1">  1       -1 0.68242735E-02 0.14245269E+03</pdfrwt>
<totfact> 0.41118500E+03</totfact>
</mgrwt>
</event>
<event>
 8    1  0.1273312E-005  0.2508054E+03  0.7546771E-02  0.1114551E+00
          1   -1    0    0  501    0  0.00000000000E+00  0.00000000000E+00  0.94391541586E+03  0.94391541586E+03  0.00000000000E+00 0. -1.
         -1   -1    0    0    0  501 -0.00000000000E+00 -0.00000000000E+00 -0.68440077942E+02  0.68440077942E+02  0.00000000000E+00 0.  1.
         23    2    1    2    0    0 -0.21687842638E+03 -0.15482565628E+02  0.29662247651E+03  0.38150368302E+03  0.10141106901E+03 0.  0.
         23    2    1    2    0    0  0.21687842638E+03  0.15482565628E+02  0.57885286141E+03  0.63085181079E+03  0.12500964097E+03 0.  0.
          5    1    4    4  502    0  0.13970249225E+03 -0.44546232399E+02  0.27594134630E+03  0.31251699116E+03  0.47000000000E+01 0. -1.
         -5    1    4    4    0  502  0.77175934139E+02  0.60028798026E+02  0.30291151511E+03  0.31833481963E+03  0.47000000000E+01 0. -1.
        -11    1    3    3    0    0 -0.12555871490E+02  0.22676496870E+02  0.66676468663E+02  0.71537576787E+02  0.00000000000E+00 0.  1.
         11    1    3    3    0    0 -0.20432255489E+03 -0.38159062498E+02  0.22994600785E+03  0.30996610623E+03  0.00000000000E+00 0. -1.
<mgrwt>
<rscale>  0 0.24803786E+03</rscale>
<asrwt>0</asrwt>
<pdfrwt beam="1">  1        1 0.14521775E+00 0.25080545E+03</pdfrwt>
<pdfrwt beam="2">  1       -1 0.10529243E-01 0.25080545E+03</pdfrwt>
<totfact> 0.99464964E+02</totfact>
</mgrwt>
</event>
<event>
 8    1  0.1759055E-005  0.1489662E+03  0.7546771E-02  0.1216451E+00
          1   -1    0    0  501    0  0.00000000000E+00  0.00000000000E+00  0.13148514793E+03  0.13148514793E+03  0.00000000000E+00 0. -1.
         -1   -1    0    0    0  501 -0.00000000000E+00 -0.00000000000E+00 -0.12776955831E+03  0.12776955831E+03  0.00000000000E+00 0.  1.
         23    2    1    2    0    0 -0.72000877280E+02  0.37166644499E+02 -0.12116463072E+02  0.10944958833E+03  0.72573534538E+02 0.  0.
         23    2    1    2    0    0  0.72000877280E+02 -0.37166644499E+02  0.15832052694E+02  0.14980511791E+03  0.12500173466E+03 0.  0.
          5    1    4    4  502    0  0.22726352952E+01  0.40668474791E+02 -0.96877854772E+01  0.42131139321E+02  0.47000000000E+01 0.  1.
         -5    1    4    4    0  502  0.69728241985E+02 -0.77835119290E+02  0.25519838171E+02  0.10767397859E+03  0.47000000000E+01 0.  1.
        -11    1    3    3    0    0 -0.66372504469E+02  0.20510895130E+02  0.20470357116E+02  0.72422660052E+02  0.00000000000E+00 0. -1.
         11    1    3    3    0    0 -0.56283728111E+01  0.16655749368E+02 -0.32586820189E+02  0.37026928276E+02  0.00000000000E+00 0.  1.
<mgrwt>
<rscale>  0 0.13770505E+03</rscale>
<asrwt>0</asrwt>
<pdfrwt beam="1">  1        1 0.20228484E-01 0.14896617E+03</pdfrwt>
<pdfrwt beam="2">  1       -1 0.19656855E-01 0.14896617E+03</pdfrwt>
<totfact> 0.50132570E+03</totfact>
</mgrwt>
</event>
<event>
 8    1  0.1273312E-005  0.1639726E+03  0.7546771E-02  0.1192111E+00
          2   -1    0    0  501    0  0.00000000000E+00  0.00000000000E+00  0.16385319210E+04  0.16385319210E+04  0.00000000000E+00 0. -1.
         -2   -1    0    0    0  501 -0.00000000000E+00 -0.00000000000E+00 -0.14704822921E+02  0.14704822921E+02  0.00000000000E+00 0.  1.
         23    2    1    2    0    0 -0.40844585200E+01  0.10605695933E+03  0.55279193664E+03  0.56972240580E+03  0.87976889176E+02 0.  0.
         23    2    1    2    0    0  0.40844585200E+01 -0.10605695933E+03  0.10710351615E+04  0.10835143381E+04  0.12498896934E+03 0.  0.
          5    1    4    4  502    0 -0.20753951156E+02 -0.96843386008E+02  0.40590043730E+03  0.41783564102E+03  0.47000000000E+01 0. -1.
         -5    1    4    4    0  502  0.24838409676E+02 -0.92135733254E+01  0.66513472415E+03  0.66567869712E+03  0.47000000000E+01 0. -1.
        -11    1    3    3    0    0 -0.40966830706E+02  0.33276079085E+02  0.15783496464E+03  0.16642552304E+03  0.00000000000E+00 0.  1.
         11    1    3    3    0    0  0.36882372186E+02  0.72780880248E+02  0.39495697200E+03  0.40329688275E+03  0.00000000000E+00 0. -1.
<mgrwt>
<rscale>  0 0.15701315E+03</rscale>
<asrwt>0</asrwt>
<pdfrwt beam="1">  1        2 0.25208169E+00 0.16397257E+03</pdfrwt>
<pdfrwt beam="2">  1       -2 0.22622817E-02 0.16397257E+03</pdfrwt>
<totfact> 0.73273944E+03</totfact>
</mgrwt>
</event>
<event>
 8    1  0.1273312E-005  0.1366403E+03  0.7546771E-02  0.1229653E+00
          1   -1    0    0  501    0  0.00000000000E+00  0.00000000000E+00  0.36837836073E+03  0.36837836073E+03  0.00000000000E+00 0. -1.
         -1   -1    0    0    0  501 -0.00000000000E+00 -0.00000000000E+00 -0.67042789002E+02  0.67042789002E+02  0.00000000000E+00 0.  1.
         23    2    1    2    0    0 -0.50138802694E+02  0.23041251612E+02  0.26997945645E+01  0.10700996979E+03  0.91646308889E+02 0.  0.
         23    2    1    2    0    0  0.50138802694E+02 -0.23041251612E+02  0.29863577716E+03  0.32841117994E+03  0.12500310754E+03 0.  0.
          5    1    4    4  502    0  0.65970066301E+02 -0.59800899143E+02  0.24895752301E+03  0.26444306655E+03  0.47000000000E+01 0. -1.
         -5    1    4    4    0  502 -0.15831263607E+02  0.36759647531E+02  0.49678254154E+02  0.63968113383E+02  0.47000000000E+01 0. -1.
        -11    1    3    3    0    0  0.23625673175E+02  0.20509092474E+02 -0.83467250773E+01  0.32379980336E+02  0.00000000000E+00 0.  1.
         11    1    3    3    0    0 -0.73764475869E+02  0.25321591380E+01  0.11046519642E+02  0.74629989457E+02  0.00000000000E+00 0. -1.
<mgrwt>
<rscale>  0 0.12853033E+03</rscale>
<asrwt>0</asrwt>
<pdfrwt beam="1">  1        1 0.56673593E-01 0.13664032E+03</pdfrwt>
<pdfrwt beam="2">  1       -1 0.10314275E-01 0.13664032E+03</pdfrwt>
<totfact> 0.37832607E+03</totfact>
</mgrwt>
</event>
<event>
 8    1  0.1273312E-005  0.1257414E+03  0.7546771E-02  0.1248043E+00
         -2   -1    0    0    0  501 -0.00000000000E+00  0.00000000000E+00  0.24128927724E+02  0.24128927724E+02  0.00000000000E+00 0.  1.
          2   -1    0    0  501    0  0.00000000000E+00 -0.00000000000E+00 -0.50976606597E+03  0.50976606597E+03  0.00000000000E+00 0. -1.
         23    2    1    2    0    0 -0.13217954450E+02  0.41488244831E+01 -0.17661462260E+03  0.20026974131E+03  0.93398700749E+02 0.  0.
         23    2    1    2    0    0  0.13217954450E+02 -0.41488244831E+01 -0.30902251564E+03  0.33362525239E+03  0.12497586483E+03 0.  0.
          5    1    4    4  502    0  0.53051513902E+02  0.38403699528E+02 -0.18973883550E+03  0.20077904015E+03  0.47000000000E+01 0.  1.
         -5    1    4    4    0  502 -0.39833559452E+02 -0.42552524011E+02 -0.11928368014E+03  0.13284621224E+03  0.47000000000E+01 0.  1.
        -11    1    3    3    0    0  0.84124814225E+01 -0.16788071643E+02  0.22294630344E+01  0.18909777857E+02  0.00000000000E+00 0.  1.
         11    1    3    3    0    0 -0.21630435872E+02  0.20936896126E+02 -0.17884408564E+03  0.18135996345E+03  0.00000000000E+00 0. -1.
<mgrwt>
<rscale>  0 0.11705105E+03</rscale>
<asrwt>0</asrwt>
<pdfrwt beam="2">  1        2 0.78425552E-01 0.12574138E+03</pdfrwt>
<pdfrwt beam="1">  1       -2 0.37121426E-02 0.12574138E+03</pdfrwt>
<totfact> 0.17555874E+04</totfact>
</mgrwt>
</event>
<event>
 8    1  0.1273312E-005  0.1254234E+03  0.7546771E-02  0.1249910E+00
         -2   -1    0    0    0  501 -0.00000000000E+00  0.00000000000E+00  0.45446591580E+02  0.45446591580E+02  0.00000000000E+00 0.  1.
          2   -1    0    0  501    0  0.00000000000E+00 -0.00000000000E+00 -0.34395448708E+03  0.34395448708E+03  0.00000000000E+00 0. -1.
         23    2    1    2    0    0  0.83276383109E+01  0.59276964619E+01 -0.35997555761E+02  0.98466884188E+02  0.91079174984E+02 0.  0.
         23    2    1    2    0    0 -0.83276383109E+01 -0.59276964619E+01 -0.26251033974E+03  0.29093419447E+03  0.12500615944E+03 0.  0.
          5    1    4    4  502    0 -0.58717130938E+02  0.19300588713E+02 -0.18413683060E+03  0.19429018651E+03  0.47000000000E+01 0.  1.
         -5    1    4    4    0  502  0.50389492627E+02 -0.25228285175E+02 -0.78373509136E+02  0.96644007959E+02  0.47000000000E+01 0.  1.
        -11    1    3    3    0    0 -0.22893335033E+02  0.15113987705E+02  0.19827843071E+02  0.33847906496E+02  0.00000000000E+00 0.  1.
         11    1    3    3    0    0  0.31220973344E+02 -0.91862912433E+01 -0.55825398831E+02  0.64618977693E+02  0.00000000000E+00 0. -1.
<mgrwt>
<rscale>  0 0.11596267E+03</rscale>
<asrwt>0</asrwt>
<pdfrwt beam="2">  1        2 0.52916074E-01 0.12542339E+03</pdfrwt>
<pdfrwt beam="1">  1       -2 0.69917834E-02 0.12542339E+03</pdfrwt>
<totfact> 0.10351078E+04</totfact>
</mgrwt>
</event>
<event>
 8    1  0.1273312E-005  0.1320067E+03  0.7546771E-02  0.1236904E+00
          1   -1    0    0  501    0  0.00000000000E+00  0.00000000000E+00  0.28300425996E+03  0.28300425996E+03  0.00000000000E+00 0. -1.
         -1   -1    0    0    0  501 -0.00000000000E+00 -0.00000000000E+00 -0.49449734898E+02  0.49449734898E+02  0.00000000000E+00 0.  1.
         23    2    1    2    0    0 -0.42120885485E+02 -0.51379909432E+01  0.78975942568E+02  0.12918000690E+03  0.93003799560E+02 0.  0.
         23    2    1    2    0    0  0.42120885485E+02  0.51379909432E+01  0.15457858250E+03  0.20327398796E+03  0.12500083228E+03 0.  0.
          5    1    4    4  502    0 -0.15834949880E+02  0.36471837419E+02  0.12434520028E+03  0.13063215299E+03  0.47000000000E+01 0.  1.
         -5    1    4    4    0  502  0.57955835365E+02 -0.31333846476E+02  0.30233382218E+02  0.72641834973E+02  0.47000000000E+01 0.  1.
        -11    1    3    3    0    0 -0.40908849700E+02 -0.40083281959E+02  0.20088893339E+02  0.60694045111E+02  0.00000000000E+00 0.  1.
         11    1    3    3    0    0 -0.12120357853E+01  0.34945291016E+02  0.58887049229E+02  0.68485961787E+02  0.00000000000E+00 0. -1.
<mgrwt>
<rscale>  0 0.12383346E+03</rscale>
<asrwt>0</asrwt>
<pdfrwt beam="1">  1        1 0.43539116E-01 0.13200673E+03</pdfrwt>
<pdfrwt beam="2">  1       -1 0.76076517E-02 0.13200673E+03</pdfrwt>
<totfact> 0.83097969E+03</totfact>
</mgrwt>
</event>
<event>
 8    1  0.1273312E-005  0.2071508E+03  0.7546771E-02  0.1147886E+00
         -1   -1    0    0    0  501 -0.00000000000E+00  0.00000000000E+00  0.46704304277E+02  0.46704304277E+02  0.00000000000E+00 0.  1.
          1   -1    0    0  501    0  0.00000000000E+00 -0.00000000000E+00 -0.85262062260E+03  0.85262062260E+03  0.00000000000E+00 0. -1.
         23    2    1    2    0    0  0.90785489007E+02  0.13799836262E+03 -0.32158211240E+03  0.37255069500E+03  0.89963393849E+02 0.  0.
         23    2    1    2    0    0 -0.90785489007E+02 -0.13799836262E+03 -0.48433420592E+03  0.52677423187E+03  0.12500366090E+03 0.  0.
          5    1    4    4  502    0 -0.10516341286E+03 -0.13143167878E+03 -0.48143000207E+03  0.51002996626E+03  0.47000000000E+01 0.  1.
         -5    1    4    4    0  502  0.14377923849E+02 -0.65666838353E+01 -0.29042038507E+01  0.16744265610E+02  0.47000000000E+01 0.  1.
        -11    1    3    3    0    0  0.54009054002E+02  0.13900432077E+03 -0.27836597392E+03  0.31579549481E+03  0.00000000000E+00 0.  1.
         11    1    3    3    0    0  0.36776435005E+02 -0.10059581560E+01 -0.43216138474E+02  0.56755200186E+02  0.00000000000E+00 0. -1.
<mgrwt>
<rscale>  0 0.20221257E+03</rscale>
<asrwt>0</asrwt>
<pdfrwt beam="2">  1        1 0.13117239E+00 0.20715083E+03</pdfrwt>
<pdfrwt beam="1">  1       -1 0.71852785E-02 0.20715083E+03</pdfrwt>
<totfact> 0.21070791E+03</totfact>
</mgrwt>
</event>
<event>
 8    1  0.2465580E-005  0.1337193E+03  0.7546771E-02  0.1250529E+00
         -2   -1    0    0    0  501 -0.00000000000E+00  0.00000000000E+00  0.36495789001E+02  0.36495789001E+02  0.00000000000E+00 0.  1.
          2   -1    0    0  501    0  0.00000000000E+00 -0.00000000000E+00 -0.34026854577E+03  0.34026854577E+03  0.00000000000E+00 0. -1.
         23    2    1    2    0    0  0.12032041855E+02  0.45945628726E+02 -0.49915721986E+02  0.89842294415E+02  0.57656636516E+02 0.  0.
         23    2    1    2    0    0 -0.12032041855E+02 -0.45945628726E+02 -0.25385703479E+03  0.28692204036E+03  0.12500036921E+03 0.  0.
          5    1    4    4  502    0  0.29004223082E+02 -0.65871386151E+02 -0.21512575253E+03  0.22689527071E+03  0.47000000000E+01 0. -1.
         -5    1    4    4    0  502 -0.41036264937E+02  0.19925757425E+02 -0.38731282259E+02  0.60026769648E+02  0.47000000000E+01 0. -1.
        -11    1    3    3    0    0  0.17401744774E+02 -0.88935115094E+01 -0.11560512092E+02  0.22705961948E+02  0.00000000000E+00 0.  1.
         11    1    3    3    0    0 -0.53697029195E+01  0.54839140235E+02 -0.38355209894E+02  0.67136332468E+02  0.00000000000E+00 0. -1.
<mgrwt>
<rscale>  0 0.11560471E+03</rscale>
<asrwt>0</asrwt>
<pdfrwt beam="2">  1        2 0.52349009E-01 0.13371934E+03</pdfrwt>
<pdfrwt beam="1">  1       -2 0.56147366E-02 0.13371934E+03</pdfrwt>
<totfact> 0.14683616E+04</totfact>
</mgrwt>
</event>
<event>
 8    1  0.1273312E-005  0.1377423E+03  0.7546771E-02  0.1228555E+00
         -1   -1    0    0    0  501 -0.00000000000E+00  0.00000000000E+00  0.12953285923E+03  0.12953285923E+03  0.00000000000E+00 0.  1.
          1   -1    0    0  501    0  0.00000000000E+00 -0.00000000000E+00 -0.11562939839E+03  0.11562939839E+03  0.00000000000E+00 0. -1.
         23    2    1    2    0    0  0.43453632668E+02  0.38226339425E+02  0.10961355583E+02  0.10738854502E+03  0.89792410964E+02 0.  0.
         23    2    1    2    0    0 -0.43453632668E+02 -0.38226339425E+02  0.29421052654E+01  0.13777371260E+03  0.12499387458E+03 0.  0.
          5    1    4    4  502    0 -0.31680816880E+02 -0.75465375293E+02 -0.29147462595E+02  0.87007824947E+02  0.47000000000E+01 0. -1.
         -5    1    4    4    0  502 -0.11772815788E+02  0.37239035868E+02  0.32089567861E+02  0.50765887655E+02  0.47000000000E+01 0. -1.
        -11    1    3    3    0    0  0.66641806905E+02  0.57074390685E+01  0.72048376561E+01  0.67272691146E+02  0.00000000000E+00 0.  1.
         11    1    3    3    0    0 -0.23188174238E+02  0.32518900356E+02  0.37565179267E+01  0.40115853871E+02  0.00000000000E+00 0. -1.
<mgrwt>
<rscale>  0 0.12926216E+03</rscale>
<asrwt>0</asrwt>
<pdfrwt beam="2">  1        1 0.17789138E-01 0.13774230E+03</pdfrwt>
<pdfrwt beam="1">  1       -1 0.19928132E-01 0.13774230E+03</pdfrwt>
<totfact> 0.57504746E+03</totfact>
</mgrwt>
</event>
<event>
 8    1  0.1273312E-005  0.1652093E+03  0.7546771E-02  0.1190024E+00
         -2   -1    0    0    0  501 -0.00000000000E+00  0.00000000000E+00  0.32795355326E+02  0.32795355326E+02  0.00000000000E+00 0. -1.
          2   -1    0    0  501    0  0.00000000000E+00 -0.00000000000E+00 -0.72436892679E+03  0.72436892679E+03  0.00000000000E+00 0.  1.
         23    2    1    2    0    0 -0.10760758375E+03  0.95578150147E+01 -0.27689795934E+03  0.31079003638E+03  0.90814221994E+02 0.  0.
         23    2    1    2    0    0  0.10760758375E+03 -0.95578150147E+01 -0.41467561212E+03  0.44637424574E+03  0.12499344006E+03 0.  0.
          5    1    4    4  502    0  0.69295867790E+02 -0.49242610212E+02 -0.35461152160E+03  0.36468914599E+03  0.47000000000E+01 0. -1.
         -5    1    4    4    0  502  0.38311715963E+02  0.39684795197E+02 -0.60064090524E+02  0.81685099745E+02  0.47000000000E+01 0. -1.
        -11    1    3    3    0    0 -0.29742644733E+02  0.13872373745E+02 -0.19484654334E+03  0.19759110081E+03  0.00000000000E+00 0.  1.
         11    1    3    3    0    0 -0.77864939020E+02 -0.43145587307E+01 -0.82051416004E+02  0.11319893557E+03  0.00000000000E+00 0. -1.
<mgrwt>
<rscale>  0 0.15882960E+03</rscale>
<asrwt>0</asrwt>
<pdfrwt beam="2">  1        2 0.11144137E+00 0.16520927E+03</pdfrwt>
<pdfrwt beam="1">  1       -2 0.50454394E-02 0.16520927E+03</pdfrwt>
<totfact> 0.75568886E+03</totfact>
</mgrwt>
</event>
<event>
 8    1  0.1273312E-005  0.1615301E+03  0.7546771E-02  0.1195758E+00
         -4   -1    0    0    0  501 -0.00000000000E+00  0.00000000000E+00  0.18026382791E+03  0.18026382791E+03  0.00000000000E+00 0. -1.
          4   -1    0    0  501    0  0.00000000000E+00 -0.00000000000E+00 -0.12088890756E+03  0.12088890756E+03  0.00000000000E+00 0.  1.
         23    2    1    2    0    0 -0.16271536210E+02  0.10100645925E+03  0.17300614454E+02  0.13423292772E+03  0.85159262119E+02 0.  0.
         23    2    1    2    0    0  0.16271536210E+02 -0.10100645925E+03  0.42074305903E+02  0.16691980775E+03  0.12499962920E+03 0.  0.
          5    1    4    4  502    0 -0.21692828507E+02 -0.11677075021E+03  0.21799175568E+02  0.12084403572E+03  0.47000000000E+01 0.  1.
         -5    1    4    4    0  502  0.37964364717E+02  0.15764290963E+02  0.20275130334E+02  0.46075772029E+02  0.47000000000E+01 0.  1.
        -11    1    3    3    0    0 -0.40021737744E+02  0.10080109039E+03  0.80843953432E+01  0.10875641022E+03  0.00000000000E+00 0.  1.
         11    1    3    3    0    0  0.23750201534E+02  0.20536885304E+00  0.92162191110E+01  0.25476517501E+02  0.00000000000E+00 0. -1.
<mgrwt>
<rscale>  0 0.15390245E+03</rscale>
<asrwt>0</asrwt>
<pdfrwt beam="2">  1        4 0.18598293E-01 0.16153011E+03</pdfrwt>
<pdfrwt beam="1">  1       -4 0.27732897E-01 0.16153011E+03</pdfrwt>
<totfact> 0.54394137E+02</totfact>
</mgrwt>
</event>
<event>
 8    1  0.1273312E-005  0.1434332E+03  0.7546771E-02  0.1218595E+00
          1   -1    0    0  501    0  0.00000000000E+00  0.00000000000E+00  0.14215658015E+03  0.14215658015E+03  0.00000000000E+00 0. -1.
         -1   -1    0    0    0  501 -0.00000000000E+00 -0.00000000000E+00 -0.11882152941E+03  0.11882152941E+03  0.00000000000E+00 0.  1.
         23    2    1    2    0    0 -0.45549349030E+02 -0.53610614553E+02  0.12383701338E+02  0.11712744657E+03  0.92825866494E+02 0.  0.
         23    2    1    2    0    0  0.45549349030E+02  0.53610614553E+02  0.10951349399E+02  0.14385066300E+03  0.12499695997E+03 0.  0.
          5    1    4    4  502    0  0.27800197837E+02  0.19223063803E+02  0.67227123885E+02  0.75391998034E+02  0.47000000000E+01 0.  1.
         -5    1    4    4    0  502  0.17749151193E+02  0.34387550751E+02 -0.56275774486E+02  0.68458664964E+02  0.47000000000E+01 0.  1.
        -11    1    3    3    0    0 -0.14855227927E+02 -0.32509352246E+02 -0.39491692623E+02  0.53264712206E+02  0.00000000000E+00 0.  1.
         11    1    3    3    0    0 -0.30694121103E+02 -0.21101262308E+02  0.51875393961E+02  0.63862734360E+02  0.00000000000E+00 0. -1.
<mgrwt>
<rscale>  0 0.13615753E+03</rscale>
<asrwt>0</asrwt>
<pdfrwt beam="1">  1        1 0.21870243E-01 0.14343319E+03</pdfrwt>
<pdfrwt beam="2">  1       -1 0.18280235E-01 0.14343319E+03</pdfrwt>
<totfact> 0.50880757E+03</totfact>
</mgrwt>
</event>
<event>
 8    1  0.1273312E-005  0.1798236E+03  0.7546771E-02  0.1173300E+00
          1   -1    0    0  501    0  0.00000000000E+00  0.00000000000E+00  0.70854724182E+03  0.70854724182E+03  0.00000000000E+00 0. -1.
         -1   -1    0    0    0  501 -0.00000000000E+00 -0.00000000000E+00 -0.47090977685E+02  0.47090977685E+02  0.00000000000E+00 0.  1.
         23    2    1    2    0    0 -0.11166852670E+03  0.65130148759E+02  0.17292126213E+03  0.23505876884E+03  0.92946574863E+02 0.  0.
         23    2    1    2    0    0  0.11166852670E+03 -0.65130148759E+02  0.48853500201E+03  0.52057945067E+03  0.12499888054E+03 0.  0.
          5    1    4    4  502    0  0.16640533376E+02 -0.76243136130E+02  0.28667584438E+03  0.29714483490E+03  0.47000000000E+01 0. -1.
         -5    1    4    4    0  502  0.95027993327E+02  0.11112987371E+02  0.20185915763E+03  0.22343461577E+03  0.47000000000E+01 0. -1.
        -11    1    3    3    0    0 -0.23145374289E+02 -0.59079764160E+01  0.93565225850E+02  0.96566371085E+02  0.00000000000E+00 0. -1.
         11    1    3    3    0    0 -0.88523152415E+02  0.71038125175E+02  0.79356036279E+02  0.13849239775E+03  0.00000000000E+00 0.  1.
<mgrwt>
<rscale>  0 0.17443517E+03</rscale>
<asrwt>0</asrwt>
<pdfrwt beam="1">  1        1 0.10900726E+00 0.17982357E+03</pdfrwt>
<pdfrwt beam="2">  1       -1 0.72447663E-02 0.17982357E+03</pdfrwt>
<totfact> 0.27438599E+03</totfact>
</mgrwt>
</event>
<event>
 8    1  0.1273312E-005  0.1175669E+03  0.7546771E-02  0.1255587E+00
         -3   -1    0    0    0  501 -0.00000000000E+00  0.00000000000E+00  0.71357695775E+03  0.71357695775E+03  0.00000000000E+00 0.  1.
          3   -1    0    0  501    0  0.00000000000E+00 -0.00000000000E+00 -0.18033878070E+02  0.18033878070E+02  0.00000000000E+00 0. -1.
         23    2    1    2    0    0  0.28555629776E+02 -0.18677377093E+02  0.42774922946E+03  0.43914627613E+03  0.93358342552E+02 0.  0.
         23    2    1    2    0    0 -0.28555629776E+02  0.18677377093E+02  0.26779385022E+03  0.29246455969E+03  0.11250646228E+03 0.  0.
          5    1    4    4  502    0 -0.44589136867E+02 -0.17722694168E+02  0.44508052756E+02  0.65615103255E+02  0.47000000000E+01 0. -1.
         -5    1    4    4    0  502  0.16033507091E+02  0.36400071261E+02  0.22328579746E+03  0.22684945644E+03  0.47000000000E+01 0.  1.
        -11    1    3    3    0    0  0.56147624619E+02 -0.26425502221E+02  0.36399295112E+03  0.36924481226E+03  0.00000000000E+00 0.  1.
         11    1    3    3    0    0 -0.27591994843E+02  0.77481251281E+01  0.63756278348E+02  0.69901463870E+02  0.00000000000E+00 0. -1.
<mgrwt>
<rscale>  0 0.11273497E+03</rscale>
<asrwt>0</asrwt>
<pdfrwt beam="2">  1        3 0.27744433E-02 0.11756689E+03</pdfrwt>
<pdfrwt beam="1">  1       -3 0.10978105E+00 0.11756689E+03</pdfrwt>
<totfact> 0.94678506E+02</totfact>
</mgrwt>
</event>
<event>
 8    1  0.1273312E-005  0.1337854E+03  0.7546771E-02  0.1234102E+00
         -1   -1    0    0    0  501 -0.00000000000E+00  0.00000000000E+00  0.54979032703E+02  0.54979032703E+02  0.00000000000E+00 0.  1.
          1   -1    0    0  501    0  0.00000000000E+00 -0.00000000000E+00 -0.25735382607E+03  0.25735382607E+03  0.00000000000E+00 0. -1.
         23    2    1    2    0    0  0.45233050212E+02 -0.15104987731E+02 -0.93385406392E+02  0.13977207240E+03  0.92418659420E+02 0.  0.
         23    2    1    2    0    0 -0.45233050212E+02  0.15104987731E+02 -0.10898938697E+03  0.17256078637E+03  0.12499739612E+03 0.  0.
          5    1    4    4  502    0 -0.21254644278E+02  0.62636764084E+02 -0.20901163354E+02  0.69527496344E+02  0.47000000000E+01 0.  1.
         -5    1    4    4    0  502 -0.23978405934E+02 -0.47531776352E+02 -0.88088223617E+02  0.10303329003E+03  0.47000000000E+01 0.  1.
        -11    1    3    3    0    0  0.12701731597E+02 -0.35116891013E+02  0.16182278210E+01  0.37378452099E+02  0.00000000000E+00 0.  1.
         11    1    3    3    0    0  0.32531318615E+02  0.20011903282E+02 -0.95003634213E+02  0.10239362030E+03  0.00000000000E+00 0. -1.
<mgrwt>
<rscale>  0 0.12562090E+03</rscale>
<asrwt>0</asrwt>
<pdfrwt beam="2">  1        1 0.39592896E-01 0.13378542E+03</pdfrwt>
<pdfrwt beam="1">  1       -1 0.84583128E-02 0.13378542E+03</pdfrwt>
<totfact> 0.79713236E+03</totfact>
</mgrwt>
</event>
<event>
 8    1  0.1273312E-005  0.1301499E+03  0.7546771E-02  0.1242144E+00
          1   -1    0    0  501    0  0.00000000000E+00  0.00000000000E+00  0.31513793748E+03  0.31513793748E+03  0.00000000000E+00 0. -1.
         -1   -1    0    0    0  501 -0.00000000000E+00 -0.00000000000E+00 -0.40560349022E+02  0.40560349022E+02  0.00000000000E+00 0.  1.
         23    2    1    2    0    0 -0.96031660246E+01  0.34926387234E+02  0.11185609327E+03  0.14733017215E+03  0.88782434642E+02 0.  0.
         23    2    1    2    0    0  0.96031660246E+01 -0.34926387234E+02  0.16272149519E+03  0.20836811436E+03  0.12500765081E+03 0.  0.
          5    1    4    4  502    0 -0.40543650583E+02 -0.49335008745E+02  0.41476976297E+02  0.76289974788E+02  0.47000000000E+01 0. -1.
         -5    1    4    4    0  502  0.50146816607E+02  0.14408621512E+02  0.12124451890E+03  0.13207813957E+03  0.47000000000E+01 0. -1.
        -11    1    3    3    0    0  0.10849052446E+02  0.21110200466E+02 -0.79324605269E+01  0.25025315836E+02  0.00000000000E+00 0.  1.
         11    1    3    3    0    0 -0.20452218471E+02  0.13816186768E+02  0.11978855379E+03  0.12230485631E+03  0.00000000000E+00 0. -1.
<mgrwt>
<rscale>  0 0.12057941E+03</rscale>
<asrwt>0</asrwt>
<pdfrwt beam="1">  1        1 0.48482758E-01 0.13014986E+03</pdfrwt>
<pdfrwt beam="2">  1       -1 0.62400539E-02 0.13014986E+03</pdfrwt>
<totfact> 0.97771698E+03</totfact>
</mgrwt>
</event>
<event>
 8    1  0.1273312E-005  0.1227765E+03  0.7546771E-02  0.1247460E+00
          2   -1    0    0  501    0  0.00000000000E+00  0.00000000000E+00  0.10925517005E+04  0.10925517005E+04  0.00000000000E+00 0. -1.
         -2   -1    0    0    0  501 -0.00000000000E+00 -0.00000000000E+00 -0.12371276817E+02  0.12371276817E+02  0.00000000000E+00 0.  1.
         23    2    1    2    0    0 -0.42007824058E+02  0.16170508790E+02  0.35952134655E+03  0.37388018548E+03  0.92220669246E+02 0.  0.
         23    2    1    2    0    0  0.42007824058E+02 -0.16170508790E+02  0.72065907716E+03  0.73104279186E+03  0.11422747218E+03 0.  0.
          5    1    4    4  502    0  0.55239799013E+02  0.10896508286E+02  0.66649372022E+03  0.66888424887E+03  0.47000000000E+01 0. -1.
         -5    1    4    4    0  502 -0.13231974955E+02 -0.27067017076E+02  0.54165356934E+02  0.62158542988E+02  0.47000000000E+01 0.  1.
        -11    1    3    3    0    0 -0.62892474168E+02  0.34366088887E+02  0.29652340609E+03  0.30506166874E+03  0.00000000000E+00 0. -1.
         11    1    3    3    0    0  0.20884650111E+02 -0.18195580097E+02  0.62997940455E+02  0.68818516744E+02  0.00000000000E+00 0.  1.
<mgrwt>
<rscale>  0 0.11739348E+03</rscale>
<asrwt>0</asrwt>
<pdfrwt beam="1">  1        2 0.16808480E+00 0.12277646E+03</pdfrwt>
<pdfrwt beam="2">  1       -2 0.19032742E-02 0.12277646E+03</pdfrwt>
<totfact> 0.18243077E+04</totfact>
</mgrwt>
</event>
<event>
 8    1  0.1273312E-005  0.1328134E+03  0.7546771E-02  0.1236325E+00
          2   -1    0    0  501    0  0.00000000000E+00  0.00000000000E+00  0.67889248121E+03  0.67889248121E+03  0.00000000000E+00 0. -1.
         -2   -1    0    0    0  501 -0.00000000000E+00 -0.00000000000E+00 -0.20230548541E+02  0.20230548541E+02  0.00000000000E+00 0.  1.
         23    2    1    2    0    0 -0.99827673139E+01 -0.43753763538E+02  0.28760753144E+03  0.30501548331E+03  0.91116987731E+02 0.  0.
         23    2    1    2    0    0  0.99827673139E+01  0.43753763538E+02  0.37105440123E+03  0.39410754644E+03  0.12500136807E+03 0.  0.
          5    1    4    4  502    0 -0.56490557417E+02  0.18076892890E+02  0.13603973370E+03  0.14848183821E+03  0.47000000000E+01 0. -1.
         -5    1    4    4    0  502  0.66473324731E+02  0.25676870648E+02  0.23501466753E+03  0.24562570823E+03  0.47000000000E+01 0. -1.
        -11    1    3    3    0    0 -0.42838540102E+02  0.61034461829E+00  0.16641706053E+03  0.17184339113E+03  0.00000000000E+00 0. -1.
         11    1    3    3    0    0  0.32855772788E+02 -0.44364108156E+02  0.12119047091E+03  0.13317209219E+03  0.00000000000E+00 0.  1.
<mgrwt>
<rscale>  0 0.12420015E+03</rscale>
<asrwt>0</asrwt>
<pdfrwt beam="1">  1        2 0.10444498E+00 0.13281336E+03</pdfrwt>
<pdfrwt beam="2">  1       -2 0.31123926E-02 0.13281336E+03</pdfrwt>
<totfact> 0.16531331E+04</totfact>
</mgrwt>
</event>
<event>
 8    1  0.1273312E-005  0.1566678E+03  0.7546771E-02  0.1200968E+00
         -2   -1    0    0    0  501 -0.00000000000E+00  0.00000000000E+00  0.23753014188E+03  0.23753014188E+03  0.00000000000E+00 0.  1.
          2   -1    0    0  501    0  0.00000000000E+00 -0.00000000000E+00 -0.87284464894E+02  0.87284464894E+02  0.00000000000E+00 0. -1.
         23    2    1    2    0    0  0.78927170922E+02  0.51870659206E+02  0.82137961645E+02  0.15398293202E+03  0.89688544494E+02 0.  0.
         23    2    1    2    0    0 -0.78927170922E+02 -0.51870659206E+02  0.68107715344E+02  0.17083167476E+03  0.12499894646E+03 0.  0.
          5    1    4    4  502    0 -0.91915977014E+02 -0.16183695906E+02  0.85255841788E+00  0.93451996766E+02  0.47000000000E+01 0.  1.
         -5    1    4    4    0  502  0.12988806092E+02 -0.35686963300E+02  0.67255156927E+02  0.77379677994E+02  0.47000000000E+01 0.  1.
        -11    1    3    3    0    0  0.17222230783E+02  0.15473477442E+02  0.78947289532E+02  0.82272159700E+02  0.00000000000E+00 0.  1.
         11    1    3    3    0    0  0.61704940139E+02  0.36397181764E+02  0.31906721129E+01  0.71710772318E+02  0.00000000000E+00 0. -1.
<mgrwt>
<rscale>  0 0.14959813E+03</rscale>
<asrwt>0</asrwt>
<pdfrwt beam="2">  1        2 0.13428379E-01 0.15666780E+03</pdfrwt>
<pdfrwt beam="1">  1       -2 0.36543099E-01 0.15666780E+03</pdfrwt>
<totfact> 0.30554951E+03</totfact>
</mgrwt>
</event>
<event>
 8    1  0.1273312E-005  0.1277685E+03  0.7546771E-02  0.1244688E+00
         -4   -1    0    0    0  501 -0.00000000000E+00  0.00000000000E+00  0.11958364009E+03  0.11958364009E+03  0.00000000000E+00 0.  1.
          4   -1    0    0  501    0  0.00000000000E+00 -0.00000000000E+00 -0.27382463931E+03  0.27382463931E+03  0.00000000000E+00 0. -1.
         23    2    1    2    0    0  0.64693623563E+01  0.25595941963E+02  0.80928860769E+02  0.12577111246E+03  0.92584487528E+02 0.  0.
         23    2    1    2    0    0 -0.64693623563E+01 -0.25595941963E+02 -0.23516985998E+03  0.26763716694E+03  0.12501114026E+03 0.  0.
          5    1    4    4  502    0  0.33391449604E+02  0.39100761357E+02 -0.94952940648E+02  0.10808334461E+03  0.47000000000E+01 0. -1.
         -5    1    4    4    0  502 -0.39860811961E+02 -0.64696703320E+02 -0.14021691934E+03  0.15955382233E+03  0.47000000000E+01 0. -1.
        -11    1    3    3    0    0  0.34302612116E+02  0.29272873180E+02  0.56750140306E+01  0.45450809524E+02  0.00000000000E+00 0. -1.
         11    1    3    3    0    0 -0.27833249760E+02 -0.36769312168E+01  0.75253846739E+02  0.80320302940E+02  0.00000000000E+00 0.  1.
<mgrwt>
<rscale>  0 0.11904094E+03</rscale>
<asrwt>0</asrwt>
<pdfrwt beam="2">  1        4 0.42126867E-01 0.12776850E+03</pdfrwt>
<pdfrwt beam="1">  1       -4 0.18397483E-01 0.12776850E+03</pdfrwt>
<totfact> 0.23733978E+02</totfact>
</mgrwt>
</event>
<event>
 8    1  0.1273312E-005  0.1303616E+03  0.7546771E-02  0.1240372E+00
          3   -1    0    0  501    0  0.00000000000E+00  0.00000000000E+00  0.46708755699E+02  0.46708755699E+02  0.00000000000E+00 0. -1.
         -3   -1    0    0    0  501 -0.00000000000E+00 -0.00000000000E+00 -0.28720620271E+03  0.28720620271E+03  0.00000000000E+00 0.  1.
         23    2    1    2    0    0  0.36869090661E+02  0.34995523204E+01 -0.80466423278E+02  0.12750741975E+03  0.91715430017E+02 0.  0.
         23    2    1    2    0    0 -0.36869090661E+02 -0.34995523204E+01 -0.16003102373E+03  0.20640753866E+03  0.12499026661E+03 0.  0.
          5    1    4    4  502    0  0.30445849610E+02  0.19639458374E+02 -0.11818687332E+03  0.12370483058E+03  0.47000000000E+01 0.  1.
         -5    1    4    4    0  502 -0.67314940272E+02 -0.23139010694E+02 -0.41844150411E+02  0.82702708077E+02  0.47000000000E+01 0.  1.
        -11    1    3    3    0    0 -0.89460612383E+01 -0.33024722148E+02 -0.95609708651E+01  0.35525715313E+02  0.00000000000E+00 0. -1.
         11    1    3    3    0    0  0.45815151900E+02  0.36524274468E+02 -0.70905452413E+02  0.91981704436E+02  0.00000000000E+00 0.  1.
<mgrwt>
<rscale>  0 0.12166702E+03</rscale>
<asrwt>0</asrwt>
<pdfrwt beam="1">  1        3 0.71859624E-02 0.13036159E+03</pdfrwt>
<pdfrwt beam="2">  1       -3 0.44185570E-01 0.13036159E+03</pdfrwt>
<totfact> 0.14834665E+03</totfact>
</mgrwt>
</event>
<event>
 8    1  0.1273312E-005  0.1252164E+03  0.7546771E-02  0.1250136E+00
          3   -1    0    0  501    0  0.00000000000E+00  0.00000000000E+00  0.16305198394E+02  0.16305198394E+02  0.00000000000E+00 0. -1.
         -3   -1    0    0    0  501 -0.00000000000E+00 -0.00000000000E+00 -0.72139427488E+03  0.72139427488E+03  0.00000000000E+00 0.  1.
         23    2    1    2    0    0 -0.40074029991E+01  0.62089779342E+01 -0.29968310962E+03  0.31339635537E+03  0.91393099751E+02 0.  0.
         23    2    1    2    0    0  0.40074029991E+01 -0.62089779342E+01 -0.40540596687E+03  0.42430311791E+03  0.12499810881E+03 0.  0.
          5    1    4    4  502    0  0.18613398959E+02  0.89017959226E+01 -0.30599086826E+01  0.21381151340E+02  0.47000000000E+01 0.  1.
         -5    1    4    4    0  502 -0.14605995960E+02 -0.15110773857E+02 -0.40234605819E+03  0.40292196657E+03  0.47000000000E+01 0.  1.
        -11    1    3    3    0    0 -0.37033626640E+02 -0.13048703593E+02 -0.23501669103E+03  0.23827421856E+03  0.00000000000E+00 0.  1.
         11    1    3    3    0    0  0.33026223641E+02  0.19257681528E+02 -0.64666418592E+02  0.75122136813E+02  0.00000000000E+00 0. -1.
<mgrwt>
<rscale>  0 0.11583184E+03</rscale>
<asrwt>0</asrwt>
<pdfrwt beam="1">  1        3 0.25084930E-02 0.12521636E+03</pdfrwt>
<pdfrwt beam="2">  1       -3 0.11098369E+00 0.12521636E+03</pdfrwt>
<totfact> 0.10889213E+03</totfact>
</mgrwt>
</event>
<event>
 8    1  0.1273312E-005  0.1369321E+03  0.7546771E-02  0.1220676E+00
          1   -1    0    0  501    0  0.00000000000E+00  0.00000000000E+00  0.22790784640E+03  0.22790784640E+03  0.00000000000E+00 0. -1.
         -1   -1    0    0    0  501 -0.00000000000E+00 -0.00000000000E+00 -0.10561334757E+03  0.10561334757E+03  0.00000000000E+00 0.  1.
         23    2    1    2    0    0 -0.38417548216E+01  0.65303879077E+02 -0.26993125578E+02  0.13094479750E+03  0.11017511271E+03 0.  0.
         23    2    1    2    0    0  0.38417548216E+01 -0.65303879077E+02  0.14928762441E+03  0.20257639647E+03  0.12029566037E+03 0.  0.
          5    1    4    4  502    0 -0.52729393086E+02 -0.11602789927E+02  0.36410154601E+02  0.65290144642E+02  0.47000000000E+01 0. -1.
         -5    1    4    4    0  502  0.56571147907E+02 -0.53701089150E+02  0.11287746981E+03  0.13728625183E+03  0.47000000000E+01 0.  1.
        -11    1    3    3    0    0  0.16034163067E+02  0.21574588930E+02 -0.64580931262E+02  0.69951797371E+02  0.00000000000E+00 0.  1.
         11    1    3    3    0    0 -0.19875917888E+02  0.43729290147E+02  0.37587805684E+02  0.60993000130E+02  0.00000000000E+00 0. -1.
<mgrwt>
<rscale>  0 0.13467708E+03</rscale>
<asrwt>0</asrwt>
<pdfrwt beam="1">  1        1 0.35062745E-01 0.13693211E+03</pdfrwt>
<pdfrwt beam="2">  1       -1 0.16248207E-01 0.13693211E+03</pdfrwt>
<totfact> 0.33904005E+03</totfact>
</mgrwt>
</event>
<event>
 8    1  0.1273312E-005  0.1646373E+03  0.7546771E-02  0.1192260E+00
         -1   -1    0    0    0  501 -0.00000000000E+00  0.00000000000E+00  0.27473588806E+02  0.27473588806E+02  0.00000000000E+00 0.  1.
          1   -1    0    0  501    0  0.00000000000E+00 -0.00000000000E+00 -0.16396997583E+04  0.16396997583E+04  0.00000000000E+00 0. -1.
         23    2    1    2    0    0  0.95832223016E+02 -0.47911019837E+02 -0.17965756481E+03  0.22517534711E+03  0.83353557599E+02 0.  0.
         23    2    1    2    0    0 -0.95832223016E+02  0.47911019837E+02 -0.14325686047E+04  0.14419980000E+04  0.12500457617E+03 0.  0.
          5    1    4    4  502    0  0.20740376309E+02 -0.15474828381E+02 -0.41043833876E+03  0.41128013987E+03  0.47000000000E+01 0. -1.
         -5    1    4    4    0  502 -0.11657259932E+03  0.63385848219E+02 -0.10221302660E+04  0.10307178602E+04  0.47000000000E+01 0. -1.
        -11    1    3    3    0    0  0.57061420614E+02 -0.23894366041E+01 -0.31087964228E+02  0.65024431175E+02  0.00000000000E+00 0.  1.
         11    1    3    3    0    0  0.38770802402E+02 -0.45521583233E+02 -0.14856960058E+03  0.16015091594E+03  0.00000000000E+00 0. -1.
<mgrwt>
<rscale>  0 0.15688383E+03</rscale>
<asrwt>0</asrwt>
<pdfrwt beam="2">  1        1 0.25226152E+00 0.16463725E+03</pdfrwt>
<pdfrwt beam="1">  1       -1 0.42267056E-02 0.16463725E+03</pdfrwt>
<totfact> 0.13186185E+03</totfact>
</mgrwt>
</event>
<event>
 8    1  0.1273312E-005  0.1491220E+03  0.7546771E-02  0.1209840E+00
         -1   -1    0    0    0  501 -0.00000000000E+00  0.00000000000E+00  0.27289933053E+03  0.27289933053E+03  0.00000000000E+00 0.  1.
          1   -1    0    0  501    0  0.00000000000E+00 -0.00000000000E+00 -0.10276933968E+03  0.10276933968E+03  0.00000000000E+00 0. -1.
         23    2    1    2    0    0  0.12931330603E+02  0.80266595931E+02  0.18782804916E+03  0.22550014105E+03  0.94662515442E+02 0.  0.
         23    2    1    2    0    0 -0.12931330603E+02 -0.80266595931E+02 -0.17698058305E+02  0.15016852916E+03  0.12500968022E+03 0.  0.
          5    1    4    4  502    0  0.48408945971E+02 -0.71841823604E+02 -0.14770579553E+02  0.88005304892E+02  0.47000000000E+01 0.  1.
         -5    1    4    4    0  502 -0.61340276575E+02 -0.84247723267E+01 -0.29274787520E+01  0.62163224264E+02  0.47000000000E+01 0.  1.
        -11    1    3    3    0    0 -0.20235119296E+02  0.12385531974E+02  0.74309299603E+00  0.23736335909E+02  0.00000000000E+00 0. -1.
         11    1    3    3    0    0  0.33166449899E+02  0.67881063957E+02  0.18708495616E+03  0.20176380514E+03  0.00000000000E+00 0.  1.
<mgrwt>
<rscale>  0 0.14262498E+03</rscale>
<asrwt>0</asrwt>
<pdfrwt beam="2">  1        1 0.15810668E-01 0.14912198E+03</pdfrwt>
<pdfrwt beam="1">  1       -1 0.41984512E-01 0.14912198E+03</pdfrwt>
<totfact> 0.19236152E+03</totfact>
</mgrwt>
</event>
<event>
 7    1  0.1273312E-005  0.1341987E+03  0.7546771E-02  0.1237931E+00
         -1   -1    0    0    0  501 -0.00000000000E+00  0.00000000000E+00  0.19050899822E+02  0.19050899822E+02  0.00000000000E+00 0.  1.
          1   -1    0    0  501    0  0.00000000000E+00 -0.00000000000E+00 -0.35267611252E+04  0.35267611252E+04  0.00000000000E+00 0. -1.
         23    2    1    2    0    0  0.24544765482E+02  0.29498322871E+02 -0.11031081353E+03  0.14576319184E+03  0.87211443914E+02 0.  0.
          5    1    1    2  502    0 -0.10345305285E+02 -0.13554938614E+02 -0.33068702578E+04  0.33069175607E+04  0.47000000000E+01 0. -1.
         -5    1    1    2    0  502 -0.14199460197E+02 -0.15943384257E+02 -0.90529154083E+02  0.93131272463E+02  0.47000000000E+01 0.  1.
        -11    1    3    3    0    0  0.39148248670E+02 -0.93885117194E+01 -0.91892776800E+02  0.10032453316E+03  0.00000000000E+00 0. -1.
         11    1    3    3    0    0 -0.14603483188E+02  0.38886834590E+02 -0.18418036732E+02  0.45438658681E+02  0.00000000000E+00 0.  1.
<mgrwt>
<rscale>  0 0.12318638E+03</rscale>
<asrwt>0</asrwt>
<pdfrwt beam="2">  1        1 0.54257865E+00 0.13419875E+03</pdfrwt>
<pdfrwt beam="1">  1       -1 0.29309076E-02 0.13419875E+03</pdfrwt>
<totfact> 0.12378846E+02</totfact>
</mgrwt>
</event>
<event>
 8    1  0.1273312E-005  0.1357606E+03  0.7546771E-02  0.1231449E+00
         -2   -1    0    0    0  501 -0.00000000000E+00  0.00000000000E+00  0.92852342173E+01  0.92852342173E+01  0.00000000000E+00 0.  1.
          2   -1    0    0  501    0  0.00000000000E+00 -0.00000000000E+00 -0.28915666396E+04  0.28915666396E+04  0.00000000000E+00 0. -1.
         23    2    1    2    0    0 -0.32151047883E+02  0.42074103386E+02 -0.36284223177E+03  0.37775760515E+03  0.90787681104E+02 0.  0.
         23    2    1    2    0    0  0.32151047883E+02 -0.42074103386E+02 -0.25194391737E+04  0.25230942687E+04  0.12500807563E+03 0.  0.
          5    1    4    4  502    0 -0.27061147503E+02  0.16499184311E+02 -0.24002586541E+03  0.24215498106E+03  0.47000000000E+01 0. -1.
         -5    1    4    4    0  502  0.59212195386E+02 -0.58573287696E+02 -0.22794133083E+04  0.22809392877E+04  0.47000000000E+01 0. -1.
        -11    1    3    3    0    0  0.28269725299E+02  0.28710479725E+02 -0.10186409149E+03  0.10954342586E+03  0.00000000000E+00 0.  1.
         11    1    3    3    0    0 -0.60420773182E+02  0.13363623661E+02 -0.26097814028E+03  0.26821417929E+03  0.00000000000E+00 0. -1.
<mgrwt>
<rscale>  0 0.12734518E+03</rscale>
<asrwt>0</asrwt>
<pdfrwt beam="2">  1        2 0.44485656E+00 0.13576059E+03</pdfrwt>
<pdfrwt beam="1">  1       -2 0.14284971E-02 0.13576059E+03</pdfrwt>
<totfact> 0.30994666E+03</totfact>
</mgrwt>
</event>
<event>
 8    1  0.1273312E-005  0.1305454E+03  0.7546771E-02  0.1234020E+00
         -1   -1    0    0    0  501 -0.00000000000E+00  0.00000000000E+00  0.55073324582E+02  0.55073324582E+02  0.00000000000E+00 0.  1.
          1   -1    0    0  501    0  0.00000000000E+00 -0.00000000000E+00 -0.14207050954E+04  0.14207050954E+04  0.00000000000E+00 0. -1.
         23    2    1    2    0    0 -0.54034632858E+02 -0.28363204880E+02 -0.85672116862E+01  0.11244929004E+03  0.94059729830E+02 0.  0.
         23    2    1    2    0    0  0.54034632858E+02  0.28363204880E+02 -0.13570645591E+04  0.13633291300E+04  0.11540314533E+03 0.  0.
          5    1    4    4  502    0  0.58111681870E+02 -0.30935706519E+02 -0.89558735374E+03  0.89801602641E+03  0.47000000000E+01 0. -1.
         -5    1    4    4    0  502 -0.40770490120E+01  0.59298911399E+02 -0.46147720540E+03  0.46531310354E+03  0.47000000000E+01 0.  1.
        -11    1    3    3    0    0 -0.27816306678E+02 -0.31257322938E+02  0.39550351050E+02  0.57576014300E+02  0.00000000000E+00 0.  1.
         11    1    3    3    0    0 -0.26218326180E+02  0.28941180585E+01 -0.48117562736E+02  0.54873275742E+02  0.00000000000E+00 0. -1.
<mgrwt>
<rscale>  0 0.12567367E+03</rscale>
<asrwt>0</asrwt>
<pdfrwt beam="2">  1        1 0.21857001E+00 0.13054539E+03</pdfrwt>
<pdfrwt beam="1">  1       -1 0.84728193E-02 0.13054539E+03</pdfrwt>
<totfact> 0.64963992E+02</totfact>
</mgrwt>
</event>
<event>
 8    1  0.1273312E-005  0.1935510E+03  0.7546771E-02  0.1159775E+00
          1   -1    0    0  501    0  0.00000000000E+00  0.00000000000E+00  0.74387287221E+03  0.74387287221E+03  0.00000000000E+00 0. -1.
         -1   -1    0    0    0  501 -0.00000000000E+00 -0.00000000000E+00 -0.49674684673E+02  0.49674684673E+02  0.00000000000E+00 0.  1.
         23    2    1    2    0    0 -0.13322777224E+03  0.63935500452E+02  0.21531400423E+03  0.27702840355E+03  0.92451221971E+02 0.  0.
         23    2    1    2    0    0  0.13322777224E+03 -0.63935500452E+02  0.47888418331E+03  0.51651915333E+03  0.12499834887E+03 0.  0.
          5    1    4    4  502    0 -0.17823756640E+02  0.89595135700E+01  0.23359404550E+02  0.31075890415E+02  0.47000000000E+01 0. -1.
         -5    1    4    4    0  502  0.15105152888E+03 -0.72895014022E+02  0.45552477876E+03  0.48544326292E+03  0.47000000000E+01 0. -1.
        -11    1    3    3    0    0 -0.14616944958E+03  0.53273477723E+02  0.20497476626E+03  0.25732902329E+03  0.00000000000E+00 0. -1.
         11    1    3    3    0    0  0.12941677345E+02  0.10662022729E+02  0.10339237963E+02  0.19699380265E+02  0.00000000000E+00 0.  1.
<mgrwt>
<rscale>  0 0.18855073E+03</rscale>
<asrwt>0</asrwt>
<pdfrwt beam="1">  1        1 0.11444197E+00 0.19355096E+03</pdfrwt>
<pdfrwt beam="2">  1       -1 0.76422598E-02 0.19355096E+03</pdfrwt>
<totfact> 0.23605021E+03</totfact>
</mgrwt>
</event>
<event>
 8    1  0.1273312E-005  0.1428420E+03  0.7546771E-02  0.1220065E+00
         -1   -1    0    0    0  501 -0.00000000000E+00  0.00000000000E+00  0.23640129863E+02  0.23640129863E+02  0.00000000000E+00 0.  1.
          1   -1    0    0  501    0  0.00000000000E+00 -0.00000000000E+00 -0.10956710191E+04  0.10956710191E+04  0.00000000000E+00 0. -1.
         23    2    1    2    0    0 -0.66354534842E+02  0.19399372714E+02 -0.16285253583E+03  0.19898016438E+03  0.91065347050E+02 0.  0.
         23    2    1    2    0    0  0.66354534842E+02 -0.19399372714E+02 -0.90917835341E+03  0.92033098459E+03  0.12499833171E+03 0.  0.
          5    1    4    4  502    0 -0.34464466627E+02  0.66059142302E+01 -0.32552798228E+03  0.32744769783E+03  0.47000000000E+01 0.  1.
         -5    1    4    4    0  502  0.10081900147E+03 -0.26005286944E+02 -0.58365037112E+03  0.59288328676E+03  0.47000000000E+01 0.  1.
        -11    1    3    3    0    0 -0.14717500079E+02  0.51025122622E+02 -0.65373630938E+02  0.84225171826E+02  0.00000000000E+00 0.  1.
         11    1    3    3    0    0 -0.51637034763E+02 -0.31625749908E+02 -0.97478904891E+02  0.11475499255E+03  0.00000000000E+00 0. -1.
<mgrwt>
<rscale>  0 0.13510935E+03</rscale>
<asrwt>0</asrwt>
<pdfrwt beam="2">  1        1 0.16856475E+00 0.14284202E+03</pdfrwt>
<pdfrwt beam="1">  1       -1 0.36369436E-02 0.14284202E+03</pdfrwt>
<totfact> 0.37898879E+03</totfact>
</mgrwt>
</event>
<event>
 8    1  0.1273312E-005  0.1472091E+03  0.7546771E-02  0.1213722E+00
         -2   -1    0    0    0  501 -0.00000000000E+00  0.00000000000E+00  0.26543452715E+03  0.26543452715E+03  0.00000000000E+00 0.  1.
          2   -1    0    0  501    0  0.00000000000E+00 -0.00000000000E+00 -0.68041752294E+02  0.68041752294E+02  0.00000000000E+00 0. -1.
         23    2    1    2    0    0  0.52604265380E+02  0.57258428767E+02  0.10950621978E+03  0.16202786098E+03  0.90640383731E+02 0.  0.
         23    2    1    2    0    0 -0.52604265380E+02 -0.57258428767E+02  0.87886555080E+02  0.17144841846E+03  0.12499910891E+03 0.  0.
          5    1    4    4  502    0  0.29827025514E+02 -0.39032151341E+02  0.68968186092E+02  0.84804840558E+02  0.47000000000E+01 0.  1.
         -5    1    4    4    0  502 -0.82431290894E+02 -0.18226277426E+02  0.18918368989E+02  0.86643577906E+02  0.47000000000E+01 0.  1.
        -11    1    3    3    0    0  0.23012680219E+02  0.78254555779E+02  0.63129252050E+02  0.10314388695E+03  0.00000000000E+00 0. -1.
         11    1    3    3    0    0  0.29591585161E+02 -0.20996127012E+02  0.46376967726E+02  0.58883974028E+02  0.00000000000E+00 0.  1.
<mgrwt>
<rscale>  0 0.13970800E+03</rscale>
<asrwt>0</asrwt>
<pdfrwt beam="2">  1        2 0.10467962E-01 0.14720908E+03</pdfrwt>
<pdfrwt beam="1">  1       -2 0.40836081E-01 0.14720908E+03</pdfrwt>
<totfact> 0.33361321E+03</totfact>
</mgrwt>
</event>
<event>
 8    1  0.1273312E-005  0.1377277E+03  0.7546771E-02  0.1227868E+00
         -2   -1    0    0    0  501 -0.00000000000E+00  0.00000000000E+00  0.14158827339E+02  0.14158827339E+02  0.00000000000E+00 0.  1.
          2   -1    0    0  501    0  0.00000000000E+00 -0.00000000000E+00 -0.15862347821E+04  0.15862347821E+04  0.00000000000E+00 0. -1.
         23    2    1    2    0    0 -0.88818577700E+00  0.57804788890E+02 -0.26836646985E+03  0.28942932574E+03  0.91687458065E+02 0.  0.
         23    2    1    2    0    0  0.88818577700E+00 -0.57804788890E+02 -0.13037094849E+04  0.13109642837E+04  0.12500699818E+03 0.  0.
          5    1    4    4  502    0  0.13901972231E+02 -0.66370705345E+02 -0.32090440604E+03  0.32802448563E+03  0.47000000000E+01 0.  1.
         -5    1    4    4    0  502 -0.13013786454E+02  0.85659164556E+01 -0.98280507889E+03  0.98293979808E+03  0.47000000000E+01 0.  1.
        -11    1    3    3    0    0 -0.35838158447E+02  0.46476471603E+02 -0.22530921271E+03  0.23282756998E+03  0.00000000000E+00 0. -1.
         11    1    3    3    0    0  0.34949972670E+02  0.11328317287E+02 -0.43057257142E+02  0.56601755756E+02  0.00000000000E+00 0.  1.
<mgrwt>
<rscale>  0 0.12972245E+03</rscale>
<asrwt>0</asrwt>
<pdfrwt beam="2">  1        2 0.24403600E+00 0.13772775E+03</pdfrwt>
<pdfrwt beam="1">  1       -2 0.21782822E-02 0.13772775E+03</pdfrwt>
<totfact> 0.81963173E+03</totfact>
</mgrwt>
</event>
<event>
 8    1  0.1273312E-005  0.1474904E+03  0.7546771E-02  0.1213412E+00
          2   -1    0    0  501    0  0.00000000000E+00  0.00000000000E+00  0.43718807794E+03  0.43718807794E+03  0.00000000000E+00 0. -1.
         -2   -1    0    0    0  501 -0.00000000000E+00 -0.00000000000E+00 -0.43730075369E+02  0.43730075369E+02  0.00000000000E+00 0.  1.
         23    2    1    2    0    0  0.65798984174E+02 -0.42541996611E+02  0.11527424187E+03  0.16605368864E+03  0.90257126465E+02 0.  0.
         23    2    1    2    0    0 -0.65798984174E+02  0.42541996611E+02  0.27818376070E+03  0.31486446467E+03  0.12495638679E+03 0.  0.
          5    1    4    4  502    0 -0.10247902528E+03  0.39589939554E+02  0.19713698736E+03  0.22573080366E+03  0.47000000000E+01 0. -1.
         -5    1    4    4    0  502  0.36680041103E+02  0.29520570567E+01  0.81046773338E+02  0.89133661008E+02  0.47000000000E+01 0. -1.
        -11    1    3    3    0    0  0.45249288154E+01 -0.15854893226E+02  0.94700660501E+02  0.96125270972E+02  0.00000000000E+00 0. -1.
         11    1    3    3    0    0  0.61274055358E+02 -0.26687103385E+02  0.20573581370E+02  0.69928417668E+02  0.00000000000E+00 0.  1.
<mgrwt>
<rscale>  0 0.13993794E+03</rscale>
<asrwt>0</asrwt>
<pdfrwt beam="1">  1        2 0.67259701E-01 0.14749043E+03</pdfrwt>
<pdfrwt beam="2">  1       -2 0.67277042E-02 0.14749043E+03</pdfrwt>
<totfact> 0.85953170E+03</totfact>
</mgrwt>
</event>
<event>
 8    1  0.1273312E-005  0.1301514E+03  0.7546771E-02  0.1240782E+00
         -2   -1    0    0    0  501 -0.00000000000E+00  0.00000000000E+00  0.30299559499E+02  0.30299559499E+02  0.00000000000E+00 0.  1.
          2   -1    0    0  501    0  0.00000000000E+00 -0.00000000000E+00 -0.48817841445E+03  0.48817841445E+03  0.00000000000E+00 0. -1.
         23    2    1    2    0    0  0.12585212032E+02 -0.34009159053E+02 -0.11349779495E+03  0.15032353327E+03  0.91653721881E+02 0.  0.
         23    2    1    2    0    0 -0.12585212032E+02  0.34009159053E+02 -0.34438106000E+03  0.36815444068E+03  0.12499746895E+03 0.  0.
          5    1    4    4  502    0  0.16590102491E+02 -0.43364327127E+02 -0.14237910748E+03  0.14983189452E+03  0.47000000000E+01 0.  1.
         -5    1    4    4    0  502 -0.29175314523E+02  0.77373486180E+02 -0.20200195253E+03  0.21832254617E+03  0.47000000000E+01 0.  1.
        -11    1    3    3    0    0  0.42005071864E+02 -0.21161540696E+02 -0.19361061947E+02  0.50863420910E+02  0.00000000000E+00 0.  1.
         11    1    3    3    0    0 -0.29419859832E+02 -0.12847618356E+02 -0.94136733003E+02  0.99460112359E+02  0.00000000000E+00 0. -1.
<mgrwt>
<rscale>  0 0.12141413E+03</rscale>
<asrwt>0</asrwt>
<pdfrwt beam="2">  1        2 0.75104372E-01 0.13015136E+03</pdfrwt>
<pdfrwt beam="1">  1       -2 0.46614706E-02 0.13015136E+03</pdfrwt>
<totfact> 0.13159249E+04</totfact>
</mgrwt>
</event>
<event>
 7    1  0.1273312E-005  0.2223104E+03  0.7546771E-02  0.1152840E+00
         -2   -1    0    0    0  501 -0.00000000000E+00  0.00000000000E+00  0.36871343307E+02  0.36871343307E+02  0.00000000000E+00 0.  1.
          2   -1    0    0  501    0  0.00000000000E+00 -0.00000000000E+00 -0.92589629241E+03  0.92589629241E+03  0.00000000000E+00 0. -1.
         23    2    1    2    0    0 -0.57189472760E+02  0.87151711831E+02 -0.22552433425E+03  0.26301411646E+03  0.86308420495E+02 0.  0.
          5    1    1    2  502    0  0.13063342062E+03 -0.59789530414E+02 -0.42186448186E+03  0.44568106263E+03  0.47000000000E+01 0. -1.
         -5    1    1    2    0  502 -0.73443947863E+02 -0.27362181417E+02 -0.24163613299E+03  0.25407245662E+03  0.47000000000E+01 0.  1.
        -11    1    3    3    0    0  0.10558331138E+02  0.78509924513E+01  0.14359871715E+01  0.13235501428E+02  0.00000000000E+00 0. -1.
         11    1    3    3    0    0 -0.67747803898E+02  0.79300719379E+02 -0.22696032142E+03  0.24977861503E+03  0.00000000000E+00 0.  1.
<mgrwt>
<rscale>  0 0.19636827E+03</rscale>
<asrwt>0</asrwt>
<pdfrwt beam="2">  1        2 0.14244556E+00 0.22231042E+03</pdfrwt>
<pdfrwt beam="1">  1       -2 0.56725153E-02 0.22231042E+03</pdfrwt>
<totfact> 0.46792417E+03</totfact>
</mgrwt>
</event>
<event>
 8    1  0.1273312E-005  0.1341968E+03  0.7546771E-02  0.1235123E+00
          3   -1    0    0  501    0  0.00000000000E+00  0.00000000000E+00  0.30253647126E+03  0.30253647126E+03  0.00000000000E+00 0. -1.
         -3   -1    0    0    0  501 -0.00000000000E+00 -0.00000000000E+00 -0.45747743384E+02  0.45747743384E+02  0.00000000000E+00 0.  1.
         23    2    1    2    0    0  0.15352718180E+02  0.46333263939E+02  0.10342860234E+03  0.14449972868E+03  0.88318845690E+02 0.  0.
         23    2    1    2    0    0 -0.15352718180E+02 -0.46333263939E+02  0.15336012554E+03  0.20378448596E+03  0.12500524514E+03 0.  0.
          5    1    4    4  502    0  0.15557821189E+02 -0.60223432887E+02  0.15742362702E+03  0.16933161552E+03  0.47000000000E+01 0. -1.
         -5    1    4    4    0  502 -0.30910539369E+02  0.13890168949E+02 -0.40635014880E+01  0.34452870444E+02  0.47000000000E+01 0. -1.
        -11    1    3    3    0    0  0.18306929601E+02  0.60770760229E+02  0.31087576225E+02  0.70672953566E+02  0.00000000000E+00 0.  1.
         11    1    3    3    0    0 -0.29542114210E+01 -0.14437496291E+02  0.72341026118E+02  0.73826775116E+02  0.00000000000E+00 0. -1.
<mgrwt>
<rscale>  0 0.12496533E+03</rscale>
<asrwt>0</asrwt>
<pdfrwt beam="1">  1        3 0.46544071E-01 0.13419683E+03</pdfrwt>
<pdfrwt beam="2">  1       -3 0.70381146E-02 0.13419683E+03</pdfrwt>
<totfact> 0.13925808E+03</totfact>
</mgrwt>
</event>
<event>
 7    1  0.1273312E-005  0.1635421E+03  0.7546771E-02  0.1197633E+00
         -1   -1    0    0    0  501 -0.00000000000E+00  0.00000000000E+00  0.22488727656E+02  0.22488727656E+02  0.00000000000E+00 0.  1.
          1   -1    0    0  501    0  0.00000000000E+00 -0.00000000000E+00 -0.91347395368E+03  0.91347395368E+03  0.00000000000E+00 0. -1.
         23    2    1    2    0    0  0.54609530723E+02  0.62588019075E+02 -0.38222233699E+03  0.40156050952E+03  0.90870605466E+02 0.  0.
          5    1    1    2  502    0  0.40659732670E+02 -0.12781106782E+02 -0.65665233336E+02  0.78425655371E+02  0.47000000000E+01 0. -1.
         -5    1    1    2    0  502 -0.95269263393E+02 -0.49806912294E+02 -0.44309765569E+03  0.45597651644E+03  0.47000000000E+01 0.  1.
        -11    1    3    3    0    0  0.17836914675E+02 -0.23363429066E+02 -0.81282010254E+02  0.86433619233E+02  0.00000000000E+00 0. -1.
         11    1    3    3    0    0  0.36772616048E+02  0.85951448141E+02 -0.30094032674E+03  0.31512689029E+03  0.00000000000E+00 0.  1.
<mgrwt>
<rscale>  0 0.15233458E+03</rscale>
<asrwt>0</asrwt>
<pdfrwt beam="2">  1        1 0.14053446E+00 0.16354206E+03</pdfrwt>
<pdfrwt beam="1">  1       -1 0.34598042E-02 0.16354206E+03</pdfrwt>
<totfact> 0.55774951E+03</totfact>
</mgrwt>
</event>
<event>
 8    1  0.1273312E-005  0.2550832E+03  0.7546771E-02  0.1112468E+00
          2   -1    0    0  501    0  0.00000000000E+00  0.00000000000E+00  0.24215613861E+03  0.24215613861E+03  0.00000000000E+00 0. -1.
         -2   -1    0    0    0  501 -0.00000000000E+00 -0.00000000000E+00 -0.25372559976E+03  0.25372559976E+03  0.00000000000E+00 0.  1.
         23    2    1    2    0    0  0.17347843824E+03  0.13909966647E+03 -0.13812655080E+02  0.24078868747E+03  0.91350516303E+02 0.  0.
         23    2    1    2    0    0 -0.17347843824E+03 -0.13909966647E+03  0.22431939254E+01  0.25509305089E+03  0.12499578773E+03 0.  0.
          5    1    4    4  502    0 -0.15465114813E+03 -0.16267222809E+03  0.35940758425E+00  0.22450267389E+03  0.47000000000E+01 0. -1.
         -5    1    4    4    0  502 -0.18827290100E+02  0.23572561622E+02  0.18837863412E+01  0.30590376999E+02  0.47000000000E+01 0. -1.
        -11    1    3    3    0    0  0.53314524308E+02  0.88311489361E+01  0.24712248458E+02  0.59423252331E+02  0.00000000000E+00 0. -1.
         11    1    3    3    0    0  0.12016391393E+03  0.13026851753E+03 -0.38524903538E+02  0.18136543514E+03  0.00000000000E+00 0.  1.
<mgrwt>
<rscale>  0 0.25132834E+03</rscale>
<asrwt>0</asrwt>
<pdfrwt beam="1">  1        2 0.37254791E-01 0.25508319E+03</pdfrwt>
<pdfrwt beam="2">  1       -2 0.39034708E-01 0.25508319E+03</pdfrwt>
<totfact> 0.86323478E+02</totfact>
</mgrwt>
</event>
<event>
 8    1  0.1273312E-005  0.1402865E+03  0.7546771E-02  0.1224059E+00
         -2   -1    0    0    0  501 -0.00000000000E+00  0.00000000000E+00  0.21400503469E+03  0.21400503469E+03  0.00000000000E+00 0.  1.
          2   -1    0    0  501    0  0.00000000000E+00 -0.00000000000E+00 -0.98752774339E+02  0.98752774339E+02  0.00000000000E+00 0. -1.
         23    2    1    2    0    0 -0.14781902902E+02 -0.61936623118E+02  0.13085486762E+03  0.17160633216E+03  0.90945516224E+02 0.  0.
         23    2    1    2    0    0  0.14781902902E+02  0.61936623118E+02 -0.15602607269E+02  0.14115147687E+03  0.12500259250E+03 0.  0.
          5    1    4    4  502    0  0.29968859779E+02  0.70002602539E+02  0.37590432937E+02  0.85050735253E+02  0.47000000000E+01 0.  1.
         -5    1    4    4    0  502 -0.15186956877E+02 -0.80659794205E+01 -0.53193040206E+02  0.56100741613E+02  0.47000000000E+01 0.  1.
        -11    1    3    3    0    0 -0.29851520303E+01  0.17449743848E+02  0.66255770744E+02  0.68580112641E+02  0.00000000000E+00 0.  1.
         11    1    3    3    0    0 -0.11796750872E+02 -0.79386366966E+02  0.64599096872E+02  0.10302621952E+03  0.00000000000E+00 0. -1.
<mgrwt>
<rscale>  0 0.13231634E+03</rscale>
<asrwt>0</asrwt>
<pdfrwt beam="2">  1        2 0.15192735E-01 0.14028649E+03</pdfrwt>
<pdfrwt beam="1">  1       -2 0.32923851E-01 0.14028649E+03</pdfrwt>
<totfact> 0.31827299E+03</totfact>
</mgrwt>
</event>
<event>
 8    1  0.1273312E-005  0.1291745E+03  0.7546771E-02  0.1241756E+00
          1   -1    0    0  501    0  0.00000000000E+00  0.00000000000E+00  0.32375841458E+03  0.32375841458E+03  0.00000000000E+00 0. -1.
         -1   -1    0    0    0  501 -0.00000000000E+00 -0.00000000000E+00 -0.41308431924E+02  0.41308431924E+02  0.00000000000E+00 0.  1.
         23    2    1    2    0    0  0.27947510340E+02 -0.16728220813E+02  0.92666094790E+02  0.13549338767E+03  0.93330360936E+02 0.  0.
         23    2    1    2    0    0 -0.27947510340E+02  0.16728220813E+02  0.18978388786E+03  0.22957345883E+03  0.12500060881E+03 0.  0.
          5    1    4    4  502    0 -0.43263885827E+02  0.48968477400E+02  0.42820559511E+02  0.78264716907E+02  0.47000000000E+01 0.  1.
         -5    1    4    4    0  502  0.15316375487E+02 -0.32240256587E+02  0.14696332835E+03  0.15130874192E+03  0.47000000000E+01 0.  1.
        -11    1    3    3    0    0  0.59902271097E+02 -0.11857252129E+02  0.37811013492E+02  0.71823041233E+02  0.00000000000E+00 0. -1.
         11    1    3    3    0    0 -0.31954760757E+02 -0.48709686841E+01  0.54855081299E+02  0.63670346436E+02  0.00000000000E+00 0.  1.
<mgrwt>
<rscale>  0 0.12081684E+03</rscale>
<asrwt>0</asrwt>
<pdfrwt beam="1">  1        1 0.49808985E-01 0.12917449E+03</pdfrwt>
<pdfrwt beam="2">  1       -1 0.63551436E-02 0.12917449E+03</pdfrwt>
<totfact> 0.91962516E+03</totfact>
</mgrwt>
</event>
<event>
 8    1  0.1273312E-005  0.1318594E+03  0.7546771E-02  0.1238221E+00
          1   -1    0    0  501    0  0.00000000000E+00  0.00000000000E+00  0.94465160651E+03  0.94465160651E+03  0.00000000000E+00 0. -1.
         -1   -1    0    0    0  501 -0.00000000000E+00 -0.00000000000E+00 -0.15493350460E+02  0.15493350460E+02  0.00000000000E+00 0.  1.
         23    2    1    2    0    0  0.15778188830E+02 -0.38889553578E+02  0.26871767121E+03  0.28666989700E+03  0.90604052918E+02 0.  0.
         23    2    1    2    0    0 -0.15778188830E+02  0.38889553578E+02  0.66044058485E+03  0.67347505998E+03  0.12500216669E+03 0.  0.
          5    1    4    4  502    0 -0.28714195892E+02 -0.40383952768E+02  0.30559088166E+03  0.30961790264E+03  0.47000000000E+01 0.  1.
         -5    1    4    4    0  502  0.12936007062E+02  0.79273506347E+02  0.35484970319E+03  0.36385715733E+03  0.47000000000E+01 0.  1.
        -11    1    3    3    0    0 -0.32439259749E+02  0.67826641552E+01  0.79305232782E+02  0.85951323740E+02  0.00000000000E+00 0. -1.
         11    1    3    3    0    0  0.48217448579E+02 -0.45672217734E+02  0.18941243842E+03  0.20071857326E+03  0.00000000000E+00 0.  1.
<mgrwt>
<rscale>  0 0.12300493E+03</rscale>
<asrwt>0</asrwt>
<pdfrwt beam="1">  1        1 0.14533097E+00 0.13185936E+03</pdfrwt>
<pdfrwt beam="2">  1       -1 0.23835931E-02 0.13185936E+03</pdfrwt>
<totfact> 0.89968969E+03</totfact>
</mgrwt>
</event>
<event>
 7    1  0.1273312E-005  0.2504002E+03  0.7546771E-02  0.1152039E+00
         -1   -1    0    0    0  501 -0.00000000000E+00  0.00000000000E+00  0.33363217336E+02  0.33363217336E+02  0.00000000000E+00 0.  1.
          1   -1    0    0  501    0  0.00000000000E+00 -0.00000000000E+00 -0.10066254889E+04  0.10066254889E+04  0.00000000000E+00 0. -1.
         23    2    1    2    0    0  0.24822794992E+02  0.17726579701E+02 -0.14095031501E+03  0.17082619486E+03  0.91565248690E+02 0.  0.
          5    1    1    2  502    0  0.28060455270E+02  0.84740636810E+02 -0.62950205958E+03  0.63581703162E+03  0.47000000000E+01 0. -1.
         -5    1    1    2    0  502 -0.52883250262E+02 -0.10246721651E+03 -0.20280989699E+03  0.23334547978E+03  0.47000000000E+01 0.  1.
        -11    1    3    3    0    0  0.72736846005E+01  0.34612566259E+02 -0.14210962933E+03  0.14644481206E+03  0.00000000000E+00 0. -1.
         11    1    3    3    0    0  0.17549110391E+02 -0.16885986558E+02  0.11593143139E+01  0.24381382800E+02  0.00000000000E+00 0.  1.
<mgrwt>
<rscale>  0 0.19729749E+03</rscale>
<asrwt>0</asrwt>
<pdfrwt beam="2">  1        1 0.15486544E+00 0.25040024E+03</pdfrwt>
<pdfrwt beam="1">  1       -1 0.51328033E-02 0.25040024E+03</pdfrwt>
<totfact> 0.26694565E+03</totfact>
</mgrwt>
</event>
<event>
 8    1  0.1273312E-005  0.1329285E+03  0.7546771E-02  0.1237067E+00
         -2   -1    0    0    0  501 -0.00000000000E+00  0.00000000000E+00  0.93719629431E+01  0.93719629431E+01  0.00000000000E+00 0.  1.
          2   -1    0    0  501    0  0.00000000000E+00 -0.00000000000E+00 -0.15348761798E+04  0.15348761798E+04  0.00000000000E+00 0. -1.
         23    2    1    2    0    0  0.35853354820E+02 -0.27599611097E+02 -0.47501929686E+03  0.48538622785E+03  0.88933999215E+02 0.  0.
         23    2    1    2    0    0 -0.35853354820E+02  0.27599611097E+02 -0.10504849200E+04  0.10588619148E+04  0.12499114399E+03 0.  0.
          5    1    4    4  502    0 -0.78413762190E+02  0.12515189255E+02 -0.82672644027E+03  0.83054442693E+03  0.47000000000E+01 0. -1.
         -5    1    4    4    0  502  0.42560407370E+02  0.15084421842E+02 -0.22375847968E+03  0.22831748791E+03  0.47000000000E+01 0. -1.
        -11    1    3    3    0    0  0.59509468464E+02  0.41588970378E+01 -0.26059563204E+03  0.26733641110E+03  0.00000000000E+00 0.  1.
         11    1    3    3    0    0 -0.23656113644E+02 -0.31758508135E+02 -0.21442366482E+03  0.21804981675E+03  0.00000000000E+00 0. -1.
<mgrwt>
<rscale>  0 0.12373048E+03</rscale>
<asrwt>0</asrwt>
<pdfrwt beam="2">  1        2 0.23613472E+00 0.13292851E+03</pdfrwt>
<pdfrwt beam="1">  1       -2 0.14418409E-02 0.13292851E+03</pdfrwt>
<totfact> 0.15808116E+04</totfact>
</mgrwt>
</event>
<event>
 8    1  0.1273312E-005  0.1262261E+03  0.7546771E-02  0.1248839E+00
         -1   -1    0    0    0  501 -0.00000000000E+00  0.00000000000E+00  0.36944828975E+03  0.36944828975E+03  0.00000000000E+00 0.  1.
          1   -1    0    0  501    0  0.00000000000E+00 -0.00000000000E+00 -0.32916932349E+02  0.32916932349E+02  0.00000000000E+00 0. -1.
         23    2    1    2    0    0  0.74016101790E+01 -0.15942022325E+02  0.17198947129E+03  0.19498380548E+03  0.90163042619E+02 0.  0.
         23    2    1    2    0    0 -0.74016101790E+01  0.15942022325E+02  0.16454188611E+03  0.20738141662E+03  0.12499635101E+03 0.  0.
          5    1    4    4  502    0  0.48389208424E+02  0.33404031123E+02  0.44876970897E+02  0.74117321215E+02  0.47000000000E+01 0. -1.
         -5    1    4    4    0  502 -0.55790818603E+02 -0.17462008798E+02  0.11966491521E+03  0.13326409541E+03  0.47000000000E+01 0. -1.
        -11    1    3    3    0    0 -0.71637029905E+01 -0.42217990503E+02  0.15427406596E+03  0.16010672938E+03  0.00000000000E+00 0.  1.
         11    1    3    3    0    0  0.14565313170E+02  0.26275968178E+02  0.17715405327E+02  0.34877076101E+02  0.00000000000E+00 0. -1.
<mgrwt>
<rscale>  0 0.11658527E+03</rscale>
<asrwt>0</asrwt>
<pdfrwt beam="2">  1        1 0.50641437E-02 0.12622607E+03</pdfrwt>
<pdfrwt beam="1">  1       -1 0.56838196E-01 0.12622607E+03</pdfrwt>
<totfact> 0.50070698E+03</totfact>
</mgrwt>
</event>
<event>
 8    1  0.1273312E-005  0.1853121E+03  0.7546771E-02  0.1168097E+00
         -2   -1    0    0    0  501 -0.00000000000E+00  0.00000000000E+00  0.65960264087E+02  0.65960264087E+02  0.00000000000E+00 0.  1.
          2   -1    0    0  501    0  0.00000000000E+00 -0.00000000000E+00 -0.62659654614E+03  0.62659654614E+03  0.00000000000E+00 0. -1.
         23    2    1    2    0    0 -0.13614310453E+03 -0.13268802081E+02 -0.90423350965E+02  0.18714531334E+03  0.90199666774E+02 0.  0.
         23    2    1    2    0    0  0.13614310453E+03  0.13268802081E+02 -0.47021293108E+03  0.50541149688E+03  0.12501829706E+03 0.  0.
          5    1    4    4  502    0  0.12154097017E+03 -0.41088502343E+02 -0.30993785268E+03  0.33547583367E+03  0.47000000000E+01 0. -1.
         -5    1    4    4    0  502  0.14602134361E+02  0.54357304424E+02 -0.16027507841E+03  0.16993566321E+03  0.47000000000E+01 0. -1.
        -11    1    3    3    0    0 -0.86417190717E+02  0.29580480551E+02 -0.25526157299E+02  0.94839445314E+02  0.00000000000E+00 0. -1.
         11    1    3    3    0    0 -0.49725913816E+02 -0.42849282633E+02 -0.64897193665E+02  0.92305868029E+02  0.00000000000E+00 0.  1.
<mgrwt>
<rscale>  0 0.17969658E+03</rscale>
<asrwt>0</asrwt>
<pdfrwt beam="2">  1        2 0.96399473E-01 0.18531212E+03</pdfrwt>
<pdfrwt beam="1">  1       -2 0.10147732E-01 0.18531212E+03</pdfrwt>
<totfact> 0.30658905E+03</totfact>
</mgrwt>
</event>
<event>
 8    1  0.1273312E-005  0.1292981E+03  0.7546771E-02  0.1241708E+00
          2   -1    0    0  501    0  0.00000000000E+00  0.00000000000E+00  0.58804426556E+02  0.58804426556E+02  0.00000000000E+00 0. -1.
         -2   -1    0    0    0  501 -0.00000000000E+00 -0.00000000000E+00 -0.26536812442E+03  0.26536812442E+03  0.00000000000E+00 0.  1.
         23    2    1    2    0    0 -0.13782736725E+01 -0.33012204260E+02 -0.15755576840E+03  0.18589825062E+03  0.92965768752E+02 0.  0.
         23    2    1    2    0    0  0.13782736725E+01  0.33012204260E+02 -0.49007929461E+02  0.13827430035E+03  0.12500519877E+03 0.  0.
          5    1    4    4  502    0  0.28537933123E+02 -0.30909697854E+02 -0.53848196971E+02  0.68494827289E+02  0.47000000000E+01 0.  1.
         -5    1    4    4    0  502 -0.27159659451E+02  0.63921902114E+02  0.48402675101E+01  0.69779473062E+02  0.47000000000E+01 0.  1.
        -11    1    3    3    0    0 -0.24383610345E+02  0.39089700345E+01 -0.13433650944E+03  0.13658747479E+03  0.00000000000E+00 0.  1.
         11    1    3    3    0    0  0.23005336672E+02 -0.36921174295E+02 -0.23219258959E+02  0.49310775833E+02  0.00000000000E+00 0. -1.
<mgrwt>
<rscale>  0 0.12084606E+03</rscale>
<asrwt>0</asrwt>
<pdfrwt beam="1">  1        2 0.90468350E-02 0.12929812E+03</pdfrwt>
<pdfrwt beam="2">  1       -2 0.40825865E-01 0.12929812E+03</pdfrwt>
<totfact> 0.39616890E+03</totfact>
</mgrwt>
</event>
<event>
 8    1  0.1273312E-005  0.1278189E+03  0.7546771E-02  0.1244833E+00
          1   -1    0    0  501    0  0.00000000000E+00  0.00000000000E+00  0.46750758459E+03  0.46750758459E+03  0.00000000000E+00 0.  1.
         -1   -1    0    0    0  501 -0.00000000000E+00 -0.00000000000E+00 -0.32857278293E+02  0.32857278293E+02  0.00000000000E+00 0. -1.
         23    2    1    2    0    0  0.29405238611E+01 -0.26536205042E+02  0.85175370600E+02  0.12824873985E+03  0.92087342549E+02 0.  0.
         23    2    1    2    0    0 -0.29405238611E+01  0.26536205042E+02  0.34947493570E+03  0.37211612304E+03  0.12499944593E+03 0.  0.
          5    1    4    4  502    0 -0.36265175962E+02  0.14101684593E+02  0.26863699344E+02  0.47515985083E+02  0.47000000000E+01 0.  1.
         -5    1    4    4    0  502  0.33324652101E+02  0.12434520449E+02  0.32261123636E+03  0.32460013795E+03  0.47000000000E+01 0.  1.
        -11    1    3    3    0    0 -0.33565090588E+02 -0.43987768096E+02  0.51866663869E+02  0.75839896289E+02  0.00000000000E+00 0.  1.
         11    1    3    3    0    0  0.36505614449E+02  0.17451563054E+02  0.33308706731E+02  0.52408843561E+02  0.00000000000E+00 0. -1.
<mgrwt>
<rscale>  0 0.11895369E+03</rscale>
<asrwt>0</asrwt>
<pdfrwt beam="1">  1        1 0.71924239E-01 0.12781893E+03</pdfrwt>
<pdfrwt beam="2">  1       -1 0.50549662E-02 0.12781893E+03</pdfrwt>
<totfact> 0.81309660E+03</totfact>
</mgrwt>
</event>
<event>
 8    1  0.1273312E-005  0.1688086E+03  0.7546771E-02  0.1185885E+00
         -2   -1    0    0    0  501 -0.00000000000E+00  0.00000000000E+00  0.10350794716E+03  0.10350794716E+03  0.00000000000E+00 0. -1.
          2   -1    0    0  501    0  0.00000000000E+00 -0.00000000000E+00 -0.31066981387E+03  0.31066981387E+03  0.00000000000E+00 0.  1.
         23    2    1    2    0    0  0.80845891488E+02 -0.79599029221E+02  0.24632065857E+01  0.14503280619E+03  0.90312700441E+02 0.  0.
         23    2    1    2    0    0 -0.80845891488E+02  0.79599029221E+02 -0.20962507330E+03  0.26914495484E+03  0.12499708692E+03 0.  0.
          5    1    4    4  502    0 -0.99108736392E+02  0.14251506833E+02 -0.11404145088E+03  0.15183276851E+03  0.47000000000E+01 0.  1.
         -5    1    4    4    0  502  0.18262844904E+02  0.65347522387E+02 -0.95583622418E+02  0.11731218633E+03  0.47000000000E+01 0.  1.
        -11    1    3    3    0    0  0.12098724513E+02 -0.81164792525E+01 -0.35862483137E+02  0.38708837067E+02  0.00000000000E+00 0.  1.
         11    1    3    3    0    0  0.68747166975E+02 -0.71482549968E+02  0.38325689723E+02  0.10632396912E+03  0.00000000000E+00 0. -1.
<mgrwt>
<rscale>  0 0.16251625E+03</rscale>
<asrwt>0</asrwt>
<pdfrwt beam="2">  1        2 0.47795355E-01 0.16880858E+03</pdfrwt>
<pdfrwt beam="1">  1       -2 0.15924300E-01 0.16880858E+03</pdfrwt>
<totfact> 0.31864576E+03</totfact>
</mgrwt>
</event>
<event>
 8    1  0.1273312E-005  0.1283157E+03  0.7546771E-02  0.1245964E+00
         -2   -1    0    0    0  501 -0.00000000000E+00  0.00000000000E+00  0.30782100239E+02  0.30782100239E+02  0.00000000000E+00 0.  1.
          2   -1    0    0  501    0  0.00000000000E+00 -0.00000000000E+00 -0.40910314801E+03  0.40910314801E+03  0.00000000000E+00 0. -1.
         23    2    1    2    0    0  0.93326361799E+00 -0.28949103272E+02 -0.12144638281E+03  0.15274499637E+03  0.87993684182E+02 0.  0.
         23    2    1    2    0    0 -0.93326361799E+00  0.28949103272E+02 -0.25687466496E+03  0.28714025188E+03  0.12500403670E+03 0.  0.
          5    1    4    4  502    0 -0.38126590576E+02  0.35645838362E+02 -0.23970391331E+03  0.24536568374E+03  0.47000000000E+01 0.  1.
         -5    1    4    4    0  502  0.37193326958E+02 -0.66967350904E+01 -0.17170751649E+02  0.41774568140E+02  0.47000000000E+01 0.  1.
        -11    1    3    3    0    0  0.19596567704E+01 -0.60597125818E+02 -0.85889504712E+02  0.10513257788E+03  0.00000000000E+00 0. -1.
         11    1    3    3    0    0 -0.10263931524E+01  0.31648022546E+02 -0.35556878097E+02  0.47612418485E+02  0.00000000000E+00 0.  1.
<mgrwt>
<rscale>  0 0.11827891E+03</rscale>
<asrwt>0</asrwt>
<pdfrwt beam="2">  1        2 0.62938945E-01 0.12831575E+03</pdfrwt>
<pdfrwt beam="1">  1       -2 0.47357078E-02 0.12831575E+03</pdfrwt>
<totfact> 0.15534752E+04</totfact>
</mgrwt>
</event>
<event>
 8    1  0.1273312E-005  0.1289699E+03  0.7546771E-02  0.1243945E+00
         -1   -1    0    0    0  501 -0.00000000000E+00  0.00000000000E+00  0.73690985537E+02  0.73690985537E+02  0.00000000000E+00 0.  1.
          1   -1    0    0  501    0  0.00000000000E+00 -0.00000000000E+00 -0.17132956602E+03  0.17132956602E+03  0.00000000000E+00 0. -1.
         23    2    1    2    0    0 -0.30751468199E+02  0.79813033784E+01 -0.31686752934E+02  0.10016583928E+03  0.89553286071E+02 0.  0.
         23    2    1    2    0    0  0.30751468199E+02 -0.79813033784E+01 -0.65951827545E+02  0.14485471228E+03  0.12499556037E+03 0.  0.
          5    1    4    4  502    0  0.73156910045E+02 -0.13063541353E+02 -0.11268474557E+02  0.75310411756E+02  0.47000000000E+01 0. -1.
         -5    1    4    4    0  502 -0.42405441846E+02  0.50822379747E+01 -0.54683352988E+02  0.69544300521E+02  0.47000000000E+01 0. -1.
        -11    1    3    3    0    0 -0.41991233713E+02  0.18155064390E+02  0.17282494512E+02  0.48903524293E+02  0.00000000000E+00 0.  1.
         11    1    3    3    0    0  0.11239765513E+02 -0.10173761012E+02 -0.48969247446E+02  0.51262314982E+02  0.00000000000E+00 0. -1.
<mgrwt>
<rscale>  0 0.11948742E+03</rscale>
<asrwt>0</asrwt>
<pdfrwt beam="2">  1        1 0.26358395E-01 0.12896993E+03</pdfrwt>
<pdfrwt beam="1">  1       -1 0.11337075E-01 0.12896993E+03</pdfrwt>
<totfact> 0.84286763E+03</totfact>
</mgrwt>
</event>
<event>
 8    1  0.1273312E-005  0.1512653E+03  0.7546771E-02  0.1207274E+00
          2   -1    0    0  501    0  0.00000000000E+00  0.00000000000E+00  0.68144291023E+03  0.68144291023E+03  0.00000000000E+00 0. -1.
         -2   -1    0    0    0  501 -0.00000000000E+00 -0.00000000000E+00 -0.30769103748E+02  0.30769103748E+02  0.00000000000E+00 0.  1.
         23    2    1    2    0    0 -0.31903924406E+02  0.78981881484E+02  0.19725801106E+03  0.23422970844E+03  0.93256824919E+02 0.  0.
         23    2    1    2    0    0  0.31903924406E+02 -0.78981881484E+02  0.45341579542E+03  0.47798230554E+03  0.12500081149E+03 0.  0.
          5    1    4    4  502    0 -0.19311653506E+02  0.25017927775E+02  0.62229102287E+02  0.69952754361E+02  0.47000000000E+01 0. -1.
         -5    1    4    4    0  502  0.51215577912E+02 -0.10399980926E+03  0.39118669314E+03  0.40802955118E+03  0.47000000000E+01 0. -1.
        -11    1    3    3    0    0 -0.36306965682E+02  0.98905859235E+02  0.15667476587E+03  0.18880557992E+03  0.00000000000E+00 0.  1.
         11    1    3    3    0    0  0.44030412764E+01 -0.19923977751E+02  0.40583245190E+02  0.45424128523E+02  0.00000000000E+00 0. -1.
<mgrwt>
<rscale>  0 0.14459700E+03</rscale>
<asrwt>0</asrwt>
<pdfrwt beam="1">  1        2 0.10483736E+00 0.15126533E+03</pdfrwt>
<pdfrwt beam="2">  1       -2 0.47337088E-02 0.15126533E+03</pdfrwt>
<totfact> 0.89058688E+03</totfact>
</mgrwt>
</event>
<event>
 8    1  0.1273312E-005  0.1445151E+03  0.7546771E-02  0.1217306E+00
         -2   -1    0    0    0  501 -0.00000000000E+00  0.00000000000E+00  0.29614136435E+02  0.29614136435E+02  0.00000000000E+00 0.  1.
          2   -1    0    0  501    0  0.00000000000E+00 -0.00000000000E+00 -0.75487692830E+03  0.75487692830E+03  0.00000000000E+00 0. -1.
         23    2    1    2    0    0 -0.60681812240E+02  0.39735955781E+02 -0.14406873520E+03  0.18559945548E+03  0.91815733366E+02 0.  0.
         23    2    1    2    0    0  0.60681812240E+02 -0.39735955781E+02 -0.58119405666E+03  0.59889160925E+03  0.12499359830E+03 0.  0.
          5    1    4    4  502    0 -0.30200759378E+02 -0.40446409838E+02 -0.15466165961E+03  0.16275846181E+03  0.47000000000E+01 0. -1.
         -5    1    4    4    0  502  0.90882571618E+02  0.71045405782E+00 -0.42653239705E+03  0.43613314745E+03  0.47000000000E+01 0. -1.
        -11    1    3    3    0    0 -0.30060064689E+02 -0.18153657696E+02 -0.10196196028E+02  0.36566722444E+02  0.00000000000E+00 0.  1.
         11    1    3    3    0    0 -0.30621747551E+02  0.57889613476E+02 -0.13387253918E+03  0.14903273304E+03  0.00000000000E+00 0. -1.
<mgrwt>
<rscale>  0 0.13708529E+03</rscale>
<asrwt>0</asrwt>
<pdfrwt beam="2">  1        2 0.11613491E+00 0.14451515E+03</pdfrwt>
<pdfrwt beam="1">  1       -2 0.45560209E-02 0.14451515E+03</pdfrwt>
<totfact> 0.83191654E+03</totfact>
</mgrwt>
</event>
<event>
 8    1  0.1273312E-005  0.1566342E+03  0.7546771E-02  0.1200400E+00
         -1   -1    0    0    0  501 -0.00000000000E+00  0.00000000000E+00  0.46212521787E+02  0.46212521787E+02  0.00000000000E+00 0.  1.
          1   -1    0    0  501    0  0.00000000000E+00 -0.00000000000E+00 -0.63613687560E+03  0.63613687560E+03  0.00000000000E+00 0. -1.
         23    2    1    2    0    0 -0.87721080528E+02 -0.34782383357E+02 -0.93276280186E+02  0.16158690919E+03  0.92222896365E+02 0.  0.
         23    2    1    2    0    0  0.87721080528E+02  0.34782383357E+02 -0.49664807363E+03  0.52076248820E+03  0.12501783040E+03 0.  0.
          5    1    4    4  502    0  0.73567579745E+01  0.45421415229E+02 -0.35077629900E+03  0.35381256166E+03  0.47000000000E+01 0. -1.
         -5    1    4    4    0  502  0.80364322554E+02 -0.10639031871E+02 -0.14587177463E+03  0.16694992654E+03  0.47000000000E+01 0. -1.
        -11    1    3    3    0    0  0.17589850678E+02 -0.56488253581E+01 -0.88643115232E+00  0.18495886974E+02  0.00000000000E+00 0.  1.
         11    1    3    3    0    0 -0.10531093121E+03 -0.29133557999E+02 -0.92389849034E+02  0.14309102221E+03  0.00000000000E+00 0. -1.
<mgrwt>
<rscale>  0 0.15005977E+03</rscale>
<asrwt>0</asrwt>
<pdfrwt beam="2">  1        1 0.97867209E-01 0.15663416E+03</pdfrwt>
<pdfrwt beam="1">  1       -1 0.71096189E-02 0.15663416E+03</pdfrwt>
<totfact> 0.32763940E+03</totfact>
</mgrwt>
</event>
<event>
 8    1  0.1273312E-005  0.1628822E+03  0.7546771E-02  0.1192870E+00
          4   -1    0    0  501    0  0.00000000000E+00  0.00000000000E+00  0.24056458661E+02  0.24056458661E+02  0.00000000000E+00 0. -1.
         -4   -1    0    0    0  501 -0.00000000000E+00 -0.00000000000E+00 -0.10268381469E+04  0.10268381469E+04  0.00000000000E+00 0.  1.
         23    2    1    2    0    0  0.69483011422E+02  0.77946627849E+02 -0.61372319101E+03  0.62911607007E+03  0.90704513492E+02 0.  0.
         23    2    1    2    0    0 -0.69483011422E+02 -0.77946627849E+02 -0.38905849728E+03  0.42177853554E+03  0.12500821200E+03 0.  0.
          5    1    4    4  502    0 -0.10040925628E+03 -0.68330713364E+02 -0.23827968422E+03  0.26748907089E+03  0.47000000000E+01 0. -1.
         -5    1    4    4    0  502  0.30926244862E+02 -0.96159144850E+01 -0.15077881306E+03  0.15428946465E+03  0.47000000000E+01 0. -1.
        -11    1    3    3    0    0  0.74703151622E+02  0.19174202756E+02 -0.40165195117E+03  0.40898960964E+03  0.00000000000E+00 0.  1.
         11    1    3    3    0    0 -0.52201401994E+01  0.58772425093E+02 -0.21207123984E+03  0.22012646044E+03  0.00000000000E+00 0. -1.
<mgrwt>
<rscale>  0 0.15635872E+03</rscale>
<asrwt>0</asrwt>
<pdfrwt beam="1">  1        4 0.37009936E-02 0.16288222E+03</pdfrwt>
<pdfrwt beam="2">  1       -4 0.15797510E+00 0.16288222E+03</pdfrwt>
<totfact> 0.18574208E+02</totfact>
</mgrwt>
</event>
<event>
 8    1  0.1273312E-005  0.1174299E+03  0.7546771E-02  0.1256461E+00
          2   -1    0    0  501    0  0.00000000000E+00  0.00000000000E+00  0.75102123281E+03  0.75102123281E+03  0.00000000000E+00 0. -1.
         -2   -1    0    0    0  501 -0.00000000000E+00 -0.00000000000E+00 -0.24047628744E+02  0.24047628744E+02  0.00000000000E+00 0.  1.
         23    2    1    2    0    0  0.31228363187E+02  0.11574264984E+02  0.11140455365E+03  0.14839906939E+03  0.92207022209E+02 0.  0.
         23    2    1    2    0    0 -0.31228363187E+02 -0.11574264984E+02  0.61556905042E+03  0.62666979217E+03  0.11260816268E+03 0.  0.
          5    1    4    4  502    0 -0.58796240407E+02  0.68937089755E+01  0.54838315645E+03  0.55158924698E+03  0.47000000000E+01 0. -1.
         -5    1    4    4    0  502  0.27567877220E+02 -0.18467973959E+02  0.67185893970E+02  0.75080545184E+02  0.47000000000E+01 0.  1.
        -11    1    3    3    0    0 -0.38583573951E+00 -0.23164168481E+02  0.96318376438E+02  0.99065418841E+02  0.00000000000E+00 0. -1.
         11    1    3    3    0    0  0.31614198927E+02  0.34738433465E+02  0.15086177208E+02  0.49333650545E+02  0.00000000000E+00 0.  1.
<mgrwt>
<rscale>  0 0.11224881E+03</rscale>
<asrwt>0</asrwt>
<pdfrwt beam="1">  1        2 0.11554171E+00 0.11742986E+03</pdfrwt>
<pdfrwt beam="2">  1       -2 0.36996358E-02 0.11742986E+03</pdfrwt>
<totfact> 0.11261198E+04</totfact>
</mgrwt>
</event>
<event>
 8    1  0.1273312E-005  0.1894844E+03  0.7546771E-02  0.1163809E+00
          2   -1    0    0  501    0  0.00000000000E+00  0.00000000000E+00  0.76402863033E+03  0.76402863033E+03  0.00000000000E+00 0. -1.
         -2   -1    0    0    0  501 -0.00000000000E+00 -0.00000000000E+00 -0.42215162185E+02  0.42215162185E+02  0.00000000000E+00 0.  1.
         23    2    1    2    0    0  0.45876734827E+02 -0.13481234043E+03  0.31874510624E+03  0.36085807012E+03  0.91329415248E+02 0.  0.
         23    2    1    2    0    0 -0.45876734827E+02  0.13481234043E+03  0.40306836191E+03  0.44538572240E+03  0.12500118165E+03 0.  0.
          5    1    4    4  502    0  0.18703984879E+02  0.47174754589E+02  0.35767934657E+02  0.62263405548E+02  0.47000000000E+01 0.  1.
         -5    1    4    4    0  502 -0.64580719706E+02  0.87637585837E+02  0.36730042725E+03  0.38312231685E+03  0.47000000000E+01 0.  1.
        -11    1    3    3    0    0 -0.12016289710E+02  0.56367567612E+01  0.95235934880E+01  0.16335944359E+02  0.00000000000E+00 0.  1.
         11    1    3    3    0    0  0.57893024536E+02 -0.14044909719E+03  0.30922151275E+03  0.34452212576E+03  0.00000000000E+00 0. -1.
<mgrwt>
<rscale>  0 0.18418913E+03</rscale>
<asrwt>0</asrwt>
<pdfrwt beam="1">  1        2 0.11754286E+00 0.18948440E+03</pdfrwt>
<pdfrwt beam="2">  1       -2 0.64946409E-02 0.18948440E+03</pdfrwt>
<totfact> 0.48494355E+03</totfact>
</mgrwt>
</event>
<event>
 8    1  0.1273312E-005  0.1590479E+03  0.7546771E-02  0.1197182E+00
         -1   -1    0    0    0  501 -0.00000000000E+00  0.00000000000E+00  0.26458665451E+02  0.26458665451E+02  0.00000000000E+00 0.  1.
          1   -1    0    0  501    0  0.00000000000E+00 -0.00000000000E+00 -0.10894778400E+04  0.10894778400E+04  0.00000000000E+00 0. -1.
         23    2    1    2    0    0  0.74338656783E+02 -0.64372858283E+02 -0.22125851160E+03  0.25928183022E+03  0.92745014696E+02 0.  0.
         23    2    1    2    0    0 -0.74338656783E+02  0.64372858283E+02 -0.84176066290E+03  0.85665467518E+03  0.12500447244E+03 0.  0.
          5    1    4    4  502    0 -0.57425609746E+02 -0.15240036177E+02 -0.17374734557E+03  0.18368502784E+03  0.47000000000E+01 0.  1.
         -5    1    4    4    0  502 -0.16913047037E+02  0.79612894459E+02 -0.66801331733E+03  0.67296964735E+03  0.47000000000E+01 0.  1.
        -11    1    3    3    0    0  0.18446401804E+02 -0.45891168862E+02 -0.27105158249E+02  0.56399988676E+02  0.00000000000E+00 0.  1.
         11    1    3    3    0    0  0.55892254979E+02 -0.18481689421E+02 -0.19415335335E+03  0.20288184154E+03  0.00000000000E+00 0. -1.
<mgrwt>
<rscale>  0 0.15271030E+03</rscale>
<asrwt>0</asrwt>
<pdfrwt beam="2">  1        1 0.16761198E+00 0.15904785E+03</pdfrwt>
<pdfrwt beam="1">  1       -1 0.40705639E-02 0.15904785E+03</pdfrwt>
<totfact> 0.32533997E+03</totfact>
</mgrwt>
</event>
<event>
 8    1  0.1273312E-005  0.1451559E+03  0.7546771E-02  0.1216048E+00
          2   -1    0    0  501    0  0.00000000000E+00  0.00000000000E+00  0.41669115860E+03  0.41669115860E+03  0.00000000000E+00 0. -1.
         -2   -1    0    0    0  501 -0.00000000000E+00 -0.00000000000E+00 -0.42163163239E+02  0.42163163239E+02  0.00000000000E+00 0.  1.
         23    2    1    2    0    0 -0.62186923895E+02 -0.39713528622E+02  0.19172178372E+03  0.22542691810E+03  0.92820661458E+02 0.  0.
         23    2    1    2    0    0  0.62186923895E+02  0.39713528622E+02  0.18280621164E+03  0.23342740374E+03  0.12500345572E+03 0.  0.
          5    1    4    4  502    0 -0.32075063102E+02  0.14635128051E+02  0.13631545562E+02  0.38090755841E+02  0.47000000000E+01 0. -1.
         -5    1    4    4    0  502  0.94261986997E+02  0.25078400571E+02  0.16917466608E+03  0.19533664790E+03  0.47000000000E+01 0. -1.
        -11    1    3    3    0    0  0.33896330290E+01 -0.47503437228E+02  0.49871660514E+02  0.68958311196E+02  0.00000000000E+00 0. -1.
         11    1    3    3    0    0 -0.65576556924E+02  0.77899086054E+01  0.14185012320E+03  0.15646860690E+03  0.00000000000E+00 0.  1.
<mgrwt>
<rscale>  0 0.13799852E+03</rscale>
<asrwt>0</asrwt>
<pdfrwt beam="1">  1        2 0.64106329E-01 0.14515592E+03</pdfrwt>
<pdfrwt beam="2">  1       -2 0.64866408E-02 0.14515592E+03</pdfrwt>
<totfact> 0.95608709E+03</totfact>
</mgrwt>
</event>
<event>
 8    1  0.1273312E-005  0.1615335E+03  0.7546771E-02  0.1193446E+00
          1   -1    0    0  501    0  0.00000000000E+00  0.00000000000E+00  0.20362026828E+03  0.20362026828E+03  0.00000000000E+00 0. -1.
         -1   -1    0    0    0  501 -0.00000000000E+00 -0.00000000000E+00 -0.11542432126E+03  0.11542432126E+03  0.00000000000E+00 0.  1.
         23    2    1    2    0    0 -0.42956304341E+02  0.92861001954E+02  0.12280326424E+02  0.14056134680E+03  0.95594330543E+02 0.  0.
         23    2    1    2    0    0  0.42956304341E+02 -0.92861001954E+02  0.75915620595E+02  0.17848324274E+03  0.12499870688E+03 0.  0.
          5    1    4    4  502    0  0.59681804307E+02 -0.11572476981E+03  0.49232609103E+02  0.13928416964E+03  0.47000000000E+01 0. -1.
         -5    1    4    4    0  502 -0.16725499966E+02  0.22863767854E+02  0.26683011492E+02  0.39199073099E+02  0.47000000000E+01 0. -1.
        -11    1    3    3    0    0 -0.22925154954E+01  0.41058315686E+02 -0.39321417790E+02  0.56896527234E+02  0.00000000000E+00 0.  1.
         11    1    3    3    0    0 -0.40663788846E+02  0.51802686268E+02  0.51601744215E+02  0.83664819571E+02  0.00000000000E+00 0. -1.
<mgrwt>
<rscale>  0 0.15586463E+03</rscale>
<asrwt>0</asrwt>
<pdfrwt beam="1">  1        1 0.31326195E-01 0.16153355E+03</pdfrwt>
<pdfrwt beam="2">  1       -1 0.17757588E-01 0.16153355E+03</pdfrwt>
<totfact> 0.34148038E+03</totfact>
</mgrwt>
</event>
<event>
 8    1  0.1273312E-005  0.1451893E+03  0.7546771E-02  0.1216456E+00
         -1   -1    0    0    0  501 -0.00000000000E+00  0.00000000000E+00  0.80467095714E+02  0.80467095714E+02  0.00000000000E+00 0.  1.
          1   -1    0    0  501    0  0.00000000000E+00 -0.00000000000E+00 -0.21553288849E+03  0.21553288849E+03  0.00000000000E+00 0. -1.
         23    2    1    2    0    0 -0.15419473704E+02  0.72228891311E+02 -0.49554784151E+02  0.12750054703E+03  0.91356116119E+02 0.  0.
         23    2    1    2    0    0  0.15419473704E+02 -0.72228891311E+02 -0.85511008626E+02  0.16849943717E+03  0.12500061928E+03 0.  0.
          5    1    4    4  502    0 -0.25793207534E+02 -0.91002097215E+02 -0.36208357664E+02  0.10138938020E+03  0.47000000000E+01 0. -1.
         -5    1    4    4    0  502  0.41212681238E+02  0.18773205904E+02 -0.49302650962E+02  0.67110056971E+02  0.47000000000E+01 0. -1.
        -11    1    3    3    0    0 -0.15497558223E+02 -0.19629386175E+02 -0.54228876255E+01  0.25590912893E+02  0.00000000000E+00 0.  1.
         11    1    3    3    0    0  0.78084518959E-01  0.91858277486E+02 -0.44131896525E+02  0.10190963414E+03  0.00000000000E+00 0. -1.
<mgrwt>
<rscale>  0 0.13770148E+03</rscale>
<asrwt>0</asrwt>
<pdfrwt beam="2">  1        1 0.33158906E-01 0.14518928E+03</pdfrwt>
<pdfrwt beam="1">  1       -1 0.12379553E-01 0.14518928E+03</pdfrwt>
<totfact> 0.55747955E+03</totfact>
</mgrwt>
</event>
<event>
 8    1  0.1273312E-005  0.1555963E+03  0.7546771E-02  0.1201974E+00
         -3   -1    0    0    0  501 -0.00000000000E+00  0.00000000000E+00  0.72996759010E+02  0.72996759010E+02  0.00000000000E+00 0.  1.
          3   -1    0    0  501    0  0.00000000000E+00 -0.00000000000E+00 -0.28273377846E+03  0.28273377846E+03  0.00000000000E+00 0. -1.
         23    2    1    2    0    0 -0.81211843888E+02 -0.44613292545E+02 -0.11450213652E+03  0.17330273530E+03  0.91309305860E+02 0.  0.
         23    2    1    2    0    0  0.81211843888E+02  0.44613292545E+02 -0.95234882927E+02  0.18242780216E+03  0.12499804245E+03 0.  0.
          5    1    4    4  502    0  0.26404712715E+02  0.53485983503E+02  0.12510794432E+02  0.61127483689E+02  0.47000000000E+01 0.  1.
         -5    1    4    4    0  502  0.54807131174E+02 -0.88726909581E+01 -0.10774567736E+03  0.12130031847E+03  0.47000000000E+01 0.  1.
        -11    1    3    3    0    0 -0.35446474119E+01 -0.48469230332E+02 -0.64853350799E+02  0.81041889934E+02  0.00000000000E+00 0.  1.
         11    1    3    3    0    0 -0.77667196476E+02  0.38559377870E+01 -0.49648785720E+02  0.92260845369E+02  0.00000000000E+00 0. -1.
<mgrwt>
<rscale>  0 0.14878512E+03</rscale>
<asrwt>0</asrwt>
<pdfrwt beam="2">  1        3 0.43497504E-01 0.15559634E+03</pdfrwt>
<pdfrwt beam="1">  1       -3 0.11230271E-01 0.15559634E+03</pdfrwt>
<totfact> 0.75581568E+02</totfact>
</mgrwt>
</event>
<event>
 7    1  0.1273312E-005  0.1738112E+03  0.7546771E-02  0.1195268E+00
         -1   -1    0    0    0  501 -0.00000000000E+00  0.00000000000E+00  0.14032568092E+02  0.14032568092E+02  0.00000000000E+00 0.  1.
          1   -1    0    0  501    0  0.00000000000E+00 -0.00000000000E+00 -0.17664544190E+04  0.17664544190E+04  0.00000000000E+00 0. -1.
         23    2    1    2    0    0  0.34526677966E+02 -0.46732862429E+02 -0.32389672494E+03  0.34142674800E+03  0.91033421910E+02 0.  0.
          5    1    1    2  502    0 -0.51164170125E+01  0.10663241090E+03 -0.89639649784E+03  0.90274327476E+03  0.47000000000E+01 0. -1.
         -5    1    1    2    0  502 -0.29410260954E+02 -0.59899548468E+02 -0.53212862814E+03  0.53631696434E+03  0.47000000000E+01 0.  1.
        -11    1    3    3    0    0  0.51824546561E+02  0.62109539856E+01 -0.14926419882E+03  0.15812703951E+03  0.00000000000E+00 0.  1.
         11    1    3    3    0    0 -0.17297868595E+02 -0.52943816415E+02 -0.17463252612E+03  0.18329970849E+03  0.00000000000E+00 0. -1.
<mgrwt>
<rscale>  0 0.15431575E+03</rscale>
<asrwt>0</asrwt>
<pdfrwt beam="2">  1        1 0.27176206E+00 0.17381121E+03</pdfrwt>
<pdfrwt beam="1">  1       -1 0.21588579E-02 0.17381121E+03</pdfrwt>
<totfact> 0.29244799E+03</totfact>
</mgrwt>
</event>
<event>
 8    1  0.1273312E-005  0.2634221E+03  0.7546771E-02  0.1107223E+00
          2   -1    0    0  501    0  0.00000000000E+00  0.00000000000E+00  0.88711713209E+03  0.88711713209E+03  0.00000000000E+00 0. -1.
         -2   -1    0    0    0  501 -0.00000000000E+00 -0.00000000000E+00 -0.10522685110E+03  0.10522685110E+03  0.00000000000E+00 0.  1.
         23    2    1    2    0    0  0.45152407480E+02  0.22743662282E+03  0.11383881168E+03  0.27423257737E+03  0.92076458149E+02 0.  0.
         23    2    1    2    0    0 -0.45152407480E+02 -0.22743662282E+03  0.66805146930E+03  0.71811140581E+03  0.12500027288E+03 0.  0.
          5    1    4    4  502    0  0.31975053213E+02 -0.76683621285E+02  0.32539449800E+03  0.33586671631E+03  0.47000000000E+01 0. -1.
         -5    1    4    4    0  502 -0.77127460693E+02 -0.15075300154E+03  0.34265697131E+03  0.38224468950E+03  0.47000000000E+01 0. -1.
        -11    1    3    3    0    0  0.64148611515E+02  0.91207200696E+02  0.42953231676E+02  0.11949384055E+03  0.00000000000E+00 0.  1.
         11    1    3    3    0    0 -0.18996204035E+02  0.13622942212E+03  0.70885580004E+02  0.15473873682E+03  0.00000000000E+00 0. -1.
<mgrwt>
<rscale>  0 0.25986728E+03</rscale>
<asrwt>0</asrwt>
<pdfrwt beam="1">  1        2 0.13647955E+00 0.26342214E+03</pdfrwt>
<pdfrwt beam="2">  1       -2 0.16188747E-01 0.26342214E+03</pdfrwt>
<totfact> 0.93554429E+02</totfact>
</mgrwt>
</event>
<event>
 8    1  0.1273312E-005  0.1291552E+03  0.7546771E-02  0.1243089E+00
          2   -1    0    0  501    0  0.00000000000E+00  0.00000000000E+00  0.17705068546E+03  0.17705068546E+03  0.00000000000E+00 0. -1.
         -2   -1    0    0    0  501 -0.00000000000E+00 -0.00000000000E+00 -0.73561740377E+02  0.73561740377E+02  0.00000000000E+00 0.  1.
         23    2    1    2    0    0 -0.31608165290E+02 -0.75519485017E+01  0.24922871168E+02  0.99438065190E+02  0.90612754412E+02 0.  0.
         23    2    1    2    0    0  0.31608165290E+02  0.75519485017E+01  0.78566073916E+02  0.15117436065E+03  0.12499980523E+03 0.  0.
          5    1    4    4  502    0  0.78292397203E+02  0.15228875005E+02  0.37114601623E+02  0.88097682985E+02  0.47000000000E+01 0. -1.
         -5    1    4    4    0  502 -0.46684231913E+02 -0.76769265029E+01  0.41451472293E+02  0.63076677664E+02  0.47000000000E+01 0. -1.
        -11    1    3    3    0    0  0.24175098612E+02 -0.30603193018E+01  0.34926606286E+02  0.42587190255E+02  0.00000000000E+00 0.  1.
         11    1    3    3    0    0 -0.55783263903E+02 -0.44916291999E+01 -0.10003735118E+02  0.56850874935E+02  0.00000000000E+00 0. -1.
<mgrwt>
<rscale>  0 0.12000517E+03</rscale>
<asrwt>0</asrwt>
<pdfrwt beam="1">  1        2 0.27238567E-01 0.12915518E+03</pdfrwt>
<pdfrwt beam="2">  1       -2 0.11317191E-01 0.12915518E+03</pdfrwt>
<totfact> 0.99670845E+03</totfact>
</mgrwt>
</event>
<event>
 8    1  0.1273312E-005  0.1381485E+03  0.7546771E-02  0.1228737E+00
         -1   -1    0    0    0  501 -0.00000000000E+00  0.00000000000E+00  0.22211860290E+02  0.22211860290E+02  0.00000000000E+00 0.  1.
          1   -1    0    0  501    0  0.00000000000E+00 -0.00000000000E+00 -0.75686199914E+03  0.75686199914E+03  0.00000000000E+00 0. -1.
         23    2    1    2    0    0 -0.58823494196E+02  0.28649413598E-01 -0.19152345089E+03  0.21865292927E+03  0.87565215380E+02 0.  0.
         23    2    1    2    0    0  0.58823494196E+02 -0.28649413598E-01 -0.54312668796E+03  0.56042093017E+03  0.12499926201E+03 0.  0.
          5    1    4    4  502    0  0.67438895898E+02 -0.64904205423E+01 -0.12606953610E+03  0.14319828271E+03  0.47000000000E+01 0.  1.
         -5    1    4    4    0  502 -0.86154017020E+01  0.64617711287E+01 -0.41705715186E+03  0.41722264746E+03  0.47000000000E+01 0.  1.
        -11    1    3    3    0    0 -0.61991130266E+02  0.28265762175E+02 -0.16957161022E+03  0.18274677709E+03  0.00000000000E+00 0. -1.
         11    1    3    3    0    0  0.31676360702E+01 -0.28237112762E+02 -0.21951840672E+02  0.35906152178E+02  0.00000000000E+00 0.  1.
<mgrwt>
<rscale>  0 0.12914014E+03</rscale>
<asrwt>0</asrwt>
<pdfrwt beam="2">  1        1 0.11644030E+00 0.13814854E+03</pdfrwt>
<pdfrwt beam="1">  1       -1 0.34172094E-02 0.13814854E+03</pdfrwt>
<totfact> 0.75273347E+03</totfact>
</mgrwt>
</event>
<event>
 8    1  0.1273312E-005  0.1341198E+03  0.7546771E-02  0.1233340E+00
          1   -1    0    0  501    0  0.00000000000E+00  0.00000000000E+00  0.68920526763E+02  0.68920526763E+02  0.00000000000E+00 0. -1.
         -1   -1    0    0    0  501 -0.00000000000E+00 -0.00000000000E+00 -0.21833147119E+03  0.21833147119E+03  0.00000000000E+00 0.  1.
         23    2    1    2    0    0  0.34935664266E+02 -0.33804788964E+02 -0.98301962787E+02  0.14372416179E+03  0.92898301384E+02 0.  0.
         23    2    1    2    0    0 -0.34935664266E+02  0.33804788964E+02 -0.51108981640E+02  0.14352783616E+03  0.12499938942E+03 0.  0.
          5    1    4    4  502    0  0.15188395171E+02 -0.40983167410E+02 -0.17426146153E+02  0.47287079933E+02  0.47000000000E+01 0. -1.
         -5    1    4    4    0  502 -0.50124059437E+02  0.74787956374E+02 -0.33682835487E+02  0.96240756229E+02  0.47000000000E+01 0. -1.
        -11    1    3    3    0    0  0.63166029140E+02 -0.68271136632E+01 -0.45928565868E+02  0.78396363952E+02  0.00000000000E+00 0.  1.
         11    1    3    3    0    0 -0.28230364874E+02 -0.26977675301E+02 -0.52373396919E+02  0.65327797838E+02  0.00000000000E+00 0. -1.
<mgrwt>
<rscale>  0 0.12611330E+03</rscale>
<asrwt>0</asrwt>
<pdfrwt beam="1">  1        1 0.10603158E-01 0.13411977E+03</pdfrwt>
<pdfrwt beam="2">  1       -1 0.33589457E-01 0.13411977E+03</pdfrwt>
<totfact> 0.47530976E+03</totfact>
</mgrwt>
</event>
<event>
 8    1  0.1273312E-005  0.1318979E+03  0.7546771E-02  0.1238310E+00
         -3   -1    0    0    0  501 -0.00000000000E+00  0.00000000000E+00  0.60195829491E+02  0.60195829491E+02  0.00000000000E+00 0.  1.
          3   -1    0    0  501    0  0.00000000000E+00 -0.00000000000E+00 -0.23440346092E+03  0.23440346092E+03  0.00000000000E+00 0. -1.
         23    2    1    2    0    0  0.12437126601E+02 -0.40202327217E+02 -0.42724766725E+02  0.10836076850E+03  0.90253760184E+02 0.  0.
         23    2    1    2    0    0 -0.12437126601E+02  0.40202327217E+02 -0.13148286470E+03  0.18623852191E+03  0.12500453631E+03 0.  0.
          5    1    4    4  502    0  0.29154381378E+02  0.58471889645E+02 -0.24539044860E+02  0.69951372788E+02  0.47000000000E+01 0. -1.
         -5    1    4    4    0  502 -0.41591507979E+02 -0.18269562429E+02 -0.10694381984E+03  0.11628714912E+03  0.47000000000E+01 0. -1.
        -11    1    3    3    0    0 -0.11183269135E+02 -0.62913439015E+02 -0.40206417955E+02  0.75496505628E+02  0.00000000000E+00 0. -1.
         11    1    3    3    0    0  0.23620395737E+02  0.22711111798E+02 -0.25183487701E+01  0.32864262876E+02  0.00000000000E+00 0.  1.
<mgrwt>
<rscale>  0 0.12294869E+03</rscale>
<asrwt>0</asrwt>
<pdfrwt beam="2">  1        3 0.36062071E-01 0.13189785E+03</pdfrwt>
<pdfrwt beam="1">  1       -3 0.92608969E-02 0.13189785E+03</pdfrwt>
<totfact> 0.14546947E+03</totfact>
</mgrwt>
</event>
<event>
 8    1  0.1273312E-005  0.1250043E+03  0.7546771E-02  0.1250871E+00
         -3   -1    0    0    0  501 -0.00000000000E+00  0.00000000000E+00  0.10249696584E+03  0.10249696584E+03  0.00000000000E+00 0.  1.
          3   -1    0    0  501    0  0.00000000000E+00 -0.00000000000E+00 -0.11854238567E+03  0.11854238567E+03  0.00000000000E+00 0. -1.
         23    2    1    2    0    0  0.98243841238E+00 -0.10153701735E+01  0.15465465602E+02  0.92124615274E+02  0.90806210973E+02 0.  0.
         23    2    1    2    0    0 -0.98243841238E+00  0.10153701735E+01 -0.31510885434E+02  0.12891473623E+03  0.12499630857E+03 0.  0.
          5    1    4    4  502    0 -0.23289247321E+02  0.34709294762E+02  0.32441813097E+02  0.53119538973E+02  0.47000000000E+01 0. -1.
         -5    1    4    4    0  502  0.22306808909E+02 -0.33693924589E+02 -0.63952698532E+02  0.75795197258E+02  0.47000000000E+01 0. -1.
        -11    1    3    3    0    0  0.42215685636E+01 -0.45572531979E+02  0.12005677820E+02  0.47316103094E+02  0.00000000000E+00 0.  1.
         11    1    3    3    0    0 -0.32391301513E+01  0.44557161805E+02  0.34597877815E+01  0.44808512180E+02  0.00000000000E+00 0. -1.
<mgrwt>
<rscale>  0 0.11540795E+03</rscale>
<asrwt>0</asrwt>
<pdfrwt beam="2">  1        3 0.18237290E-01 0.12500429E+03</pdfrwt>
<pdfrwt beam="1">  1       -3 0.15768764E-01 0.12500429E+03</pdfrwt>
<totfact> 0.20312805E+03</totfact>
</mgrwt>
</event>
<event>
 8    1  0.1273312E-005  0.1331134E+03  0.7546771E-02  0.1235562E+00
         -4   -1    0    0    0  501 -0.00000000000E+00  0.00000000000E+00  0.32951259106E+02  0.32951259106E+02  0.00000000000E+00 0.  1.
          4   -1    0    0  501    0  0.00000000000E+00 -0.00000000000E+00 -0.47460379149E+03  0.47460379149E+03  0.00000000000E+00 0. -1.
         23    2    1    2    0    0 -0.34976941703E+01 -0.45603935958E+02 -0.11075292040E+03  0.15088472125E+03  0.91695348257E+02 0.  0.
         23    2    1    2    0    0  0.34976941703E+01  0.45603935958E+02 -0.33089961199E+03  0.35667032934E+03  0.12500887081E+03 0.  0.
          5    1    4    4  502    0 -0.39671722879E+02 -0.26989063708E+02 -0.10859961306E+03  0.11882012083E+03  0.47000000000E+01 0. -1.
         -5    1    4    4    0  502  0.43169417049E+02  0.72592999665E+02 -0.22229999893E+03  0.23785020852E+03  0.47000000000E+01 0. -1.
        -11    1    3    3    0    0  0.15139688768E+02 -0.20094913288E+02 -0.11614227409E+03  0.11883620469E+03  0.00000000000E+00 0. -1.
         11    1    3    3    0    0 -0.18637382939E+02 -0.25509022670E+02  0.53893536916E+01  0.32048516558E+02  0.00000000000E+00 0.  1.
<mgrwt>
<rscale>  0 0.12468519E+03</rscale>
<asrwt>0</asrwt>
<pdfrwt beam="2">  1        4 0.73015973E-01 0.13311338E+03</pdfrwt>
<pdfrwt beam="1">  1       -4 0.50694242E-02 0.13311338E+03</pdfrwt>
<totfact> 0.67065782E+02</totfact>
</mgrwt>
</event>
<event>
 8    1  0.1273312E-005  0.1527022E+03  0.7546771E-02  0.1205635E+00
         -2   -1    0    0    0  501 -0.00000000000E+00  0.00000000000E+00  0.28937465139E+03  0.28937465139E+03  0.00000000000E+00 0.  1.
          2   -1    0    0  501    0  0.00000000000E+00 -0.00000000000E+00 -0.73195443327E+02  0.73195443327E+02  0.00000000000E+00 0. -1.
         23    2    1    2    0    0 -0.86746494124E+02  0.12981850271E+02  0.14858422377E+03  0.19557592238E+03  0.92082502043E+02 0.  0.
         23    2    1    2    0    0  0.86746494124E+02 -0.12981850271E+02  0.67594984287E+02  0.16699417233E+03  0.12499795603E+03 0.  0.
          5    1    4    4  502    0 -0.25545230166E+02 -0.29169240206E+02  0.19889520664E+02  0.43830199528E+02  0.47000000000E+01 0.  1.
         -5    1    4    4    0  502  0.11229172429E+03  0.16187389936E+02  0.47705463624E+02  0.12316397280E+03  0.47000000000E+01 0.  1.
        -11    1    3    3    0    0 -0.38102854309E+02 -0.12871950202E+02  0.13208264684E+03  0.13807005543E+03  0.00000000000E+00 0.  1.
         11    1    3    3    0    0 -0.48643639815E+02  0.25853800473E+02  0.16501576932E+02  0.57505866958E+02  0.00000000000E+00 0. -1.
<mgrwt>
<rscale>  0 0.14587530E+03</rscale>
<asrwt>0</asrwt>
<pdfrwt beam="2">  1        2 0.11260838E-01 0.15270223E+03</pdfrwt>
<pdfrwt beam="1">  1       -2 0.44519177E-01 0.15270223E+03</pdfrwt>
<totfact> 0.25911752E+03</totfact>
</mgrwt>
</event>
<event>
 8    1  0.1273312E-005  0.2858248E+03  0.7546771E-02  0.1094345E+00
         -1   -1    0    0    0  501 -0.00000000000E+00  0.00000000000E+00  0.29698819611E+03  0.29698819611E+03  0.00000000000E+00 0.  1.
          1   -1    0    0  501    0  0.00000000000E+00 -0.00000000000E+00 -0.27117299113E+03  0.27117299113E+03  0.00000000000E+00 0. -1.
         23    2    1    2    0    0  0.24377948800E+03 -0.81497678613E+02  0.63245177172E+02  0.27989601140E+03  0.90947866224E+02 0.  0.
         23    2    1    2    0    0 -0.24377948800E+03  0.81497678613E+02 -0.37429972190E+02  0.28826517583E+03  0.12500199354E+03 0.  0.
          5    1    4    4  502    0 -0.15589859049E+03  0.52032256717E+02 -0.83771535147E+02  0.18453044832E+03  0.47000000000E+01 0. -1.
         -5    1    4    4    0  502 -0.87880897514E+02  0.29465421897E+02  0.46341562957E+02  0.10373472752E+03  0.47000000000E+01 0. -1.
        -11    1    3    3    0    0  0.95055465003E+02 -0.14382883921E+02  0.66161478540E+02  0.11670368469E+03  0.00000000000E+00 0.  1.
         11    1    3    3    0    0  0.14872402300E+03 -0.67114794693E+02 -0.29163013676E+01  0.16319232671E+03  0.00000000000E+00 0. -1.
<mgrwt>
<rscale>  0 0.28247438E+03</rscale>
<asrwt>0</asrwt>
<pdfrwt beam="2">  1        1 0.41718922E-01 0.28582479E+03</pdfrwt>
<pdfrwt beam="1">  1       -1 0.45690492E-01 0.28582479E+03</pdfrwt>
<totfact> 0.48541376E+02</totfact>
</mgrwt>
</event>
<event>
 8    1  0.1273312E-005  0.1769967E+03  0.7546771E-02  0.1177076E+00
          2   -1    0    0  501    0  0.00000000000E+00  0.00000000000E+00  0.13257682817E+03  0.13257682817E+03  0.00000000000E+00 0. -1.
         -2   -1    0    0    0  501 -0.00000000000E+00 -0.00000000000E+00 -0.20867908918E+03  0.20867908918E+03  0.00000000000E+00 0.  1.
         23    2    1    2    0    0  0.12002192671E+03 -0.36014845922E+02 -0.55729636650E+02  0.16309058517E+03  0.88263325060E+02 0.  0.
         23    2    1    2    0    0 -0.12002192671E+03  0.36014845922E+02 -0.20372624370E+02  0.17816533218E+03  0.12500203899E+03 0.  0.
          5    1    4    4  502    0 -0.11338255111E+03  0.53762110965E+02 -0.56037070303E+02  0.13750712971E+03  0.47000000000E+01 0. -1.
         -5    1    4    4    0  502 -0.66393755960E+01 -0.17747265043E+02  0.35664445934E+02  0.40658202476E+02  0.47000000000E+01 0. -1.
        -11    1    3    3    0    0  0.36618930161E+02 -0.93799437379E+01  0.23915911691E+02  0.44731423213E+02  0.00000000000E+00 0. -1.
         11    1    3    3    0    0  0.83402996549E+02 -0.26634902184E+02 -0.79645548340E+02  0.11835916195E+03  0.00000000000E+00 0.  1.
<mgrwt>
<rscale>  0 0.17074211E+03</rscale>
<asrwt>0</asrwt>
<pdfrwt beam="1">  1        2 0.20396435E-01 0.17699673E+03</pdfrwt>
<pdfrwt beam="2">  1       -2 0.32104475E-01 0.17699673E+03</pdfrwt>
<totfact> 0.24002268E+03</totfact>
</mgrwt>
</event>
<event>
 7    1  0.1273312E-005  0.1269462E+03  0.7546771E-02  0.1270851E+00
         -1   -1    0    0    0  501 -0.00000000000E+00  0.00000000000E+00  0.31329675292E+02  0.31329675292E+02  0.00000000000E+00 0.  1.
          1   -1    0    0  501    0  0.00000000000E+00 -0.00000000000E+00 -0.27470431774E+03  0.27470431774E+03  0.00000000000E+00 0. -1.
         23    2    1    2    0    0 -0.16826250916E+02 -0.14358361147E+02 -0.16476537606E+03  0.20799748788E+03  0.12500416218E+03 0.  0.
          5    1    3    3  502    0 -0.50972512354E+02  0.37956674685E+02 -0.92931036479E+02  0.11268173636E+03  0.47000000000E+01 0. -1.
         -5    1    3    3    0  502  0.34146261438E+02 -0.52315035832E+02 -0.71834339585E+02  0.95315751520E+02  0.47000000000E+01 0. -1.
        -11    1    1    2    0    0 -0.57229993277E+01  0.13246344551E+02  0.17781765711E+01  0.14538922835E+02  0.00000000000E+00 0.  1.
         11    1    1    2    0    0  0.22549250244E+02  0.11120165954E+01 -0.80387442957E+02  0.83497582316E+02  0.00000000000E+00 0. -1.
<mgrwt>
<rscale>  0 0.10462945E+03</rscale>
<asrwt>0</asrwt>
<pdfrwt beam="2">  1        1 0.42262201E-01 0.12694615E+03</pdfrwt>
<pdfrwt beam="1">  1       -1 0.48199503E-02 0.12694615E+03</pdfrwt>
<totfact> 0.16950792E+04</totfact>
</mgrwt>
</event>
<event>
 8    1  0.1273312E-005  0.1355182E+03  0.7546771E-02  0.1229587E+00
          2   -1    0    0  501    0  0.00000000000E+00  0.00000000000E+00  0.27978569618E+03  0.27978569618E+03  0.00000000000E+00 0. -1.
         -2   -1    0    0    0  501 -0.00000000000E+00 -0.00000000000E+00 -0.55001825870E+02  0.55001825870E+02  0.00000000000E+00 0.  1.
         23    2    1    2    0    0 -0.51801311399E+02  0.75413252018E+01  0.76023562056E+02  0.13355430399E+03  0.96524207731E+02 0.  0.
         23    2    1    2    0    0  0.51801311399E+02 -0.75413252018E+01  0.14876030826E+03  0.20123321806E+03  0.12499972516E+03 0.  0.
          5    1    4    4  502    0  0.83545223852E+02 -0.29553167042E+02  0.68737026895E+02  0.11225000212E+03  0.47000000000E+01 0.  1.
         -5    1    4    4    0  502 -0.31743912452E+02  0.22011841840E+02  0.80023281362E+02  0.88983215940E+02  0.47000000000E+01 0.  1.
        -11    1    3    3    0    0  0.11796000843E+02  0.37136908065E+02  0.20101409529E+02  0.43844751585E+02  0.00000000000E+00 0.  1.
         11    1    3    3    0    0 -0.63597312242E+02 -0.29595582863E+02  0.55922152527E+02  0.89709552405E+02  0.00000000000E+00 0. -1.
<mgrwt>
<rscale>  0 0.12857421E+03</rscale>
<asrwt>0</asrwt>
<pdfrwt beam="1">  1        2 0.43043952E-01 0.13551819E+03</pdfrwt>
<pdfrwt beam="2">  1       -2 0.84618195E-02 0.13551819E+03</pdfrwt>
<totfact> 0.96591358E+03</totfact>
</mgrwt>
</event>
<event>
 8    1  0.1273312E-005  0.2266527E+03  0.7546771E-02  0.1132154E+00
         -2   -1    0    0    0  501 -0.00000000000E+00  0.00000000000E+00  0.18489583082E+02  0.18489583082E+02  0.00000000000E+00 0.  1.
          2   -1    0    0  501    0  0.00000000000E+00 -0.00000000000E+00 -0.29993905398E+04  0.29993905398E+04  0.00000000000E+00 0. -1.
         23    2    1    2    0    0  0.18891827128E+03 -0.73899811038E+01 -0.87500476716E+03  0.89982199618E+03  0.91112881661E+02 0.  0.
         23    2    1    2    0    0 -0.18891827128E+03  0.73899811038E+01 -0.21058961896E+04  0.21180581267E+04  0.12500696730E+03 0.  0.
          5    1    4    4  502    0 -0.25282504506E+02 -0.14531620788E+02 -0.94605832207E+03  0.94651931401E+03  0.47000000000E+01 0. -1.
         -5    1    4    4    0  502 -0.16363576677E+03  0.21921601892E+02 -0.11598378675E+04  0.11715388127E+04  0.47000000000E+01 0. -1.
        -11    1    3    3    0    0  0.97894352908E+02  0.26611883163E+02 -0.59128923139E+03  0.59992870561E+03  0.00000000000E+00 0. -1.
         11    1    3    3    0    0  0.91023918369E+02 -0.34001864267E+02 -0.28371553578E+03  0.29989329057E+03  0.00000000000E+00 0.  1.
<mgrwt>
<rscale>  0 0.22233580E+03</rscale>
<asrwt>0</asrwt>
<pdfrwt beam="2">  1        2 0.46144503E+00 0.22665275E+03</pdfrwt>
<pdfrwt beam="1">  1       -2 0.28445492E-02 0.22665275E+03</pdfrwt>
<totfact> 0.96454743E+02</totfact>
</mgrwt>
</event>
<event>
 8    1  0.1273312E-005  0.1548733E+03  0.7546771E-02  0.1199867E+00
         -1   -1    0    0    0  501 -0.00000000000E+00  0.00000000000E+00  0.65977585863E+03  0.65977585863E+03  0.00000000000E+00 0.  1.
          1   -1    0    0  501    0  0.00000000000E+00 -0.00000000000E+00 -0.33428606656E+02  0.33428606656E+02  0.00000000000E+00 0. -1.
         23    2    1    2    0    0 -0.43100236940E+02 -0.88242106233E+02  0.35275196331E+03  0.37881596568E+03  0.97073624101E+02 0.  0.
         23    2    1    2    0    0  0.43100236940E+02  0.88242106233E+02  0.27359528866E+03  0.31438849960E+03  0.11975578053E+03 0.  0.
          5    1    4    4  502    0  0.51244370875E+02  0.86077205503E+02  0.28340682353E+03  0.30062732490E+03  0.47000000000E+01 0. -1.
         -5    1    4    4    0  502 -0.81441339351E+01  0.21649007299E+01 -0.98115348702E+01  0.13761174704E+02  0.47000000000E+01 0.  1.
        -11    1    3    3    0    0 -0.39661914589E+02 -0.10059303501E+03  0.34913354182E+03  0.36549453646E+03  0.00000000000E+00 0.  1.
         11    1    3    3    0    0 -0.34383223511E+01  0.12350928779E+02  0.36184214958E+01  0.13321429218E+02  0.00000000000E+00 0. -1.
<mgrwt>
<rscale>  0 0.15049409E+03</rscale>
<asrwt>0</asrwt>
<pdfrwt beam="2">  1        1 0.51428631E-02 0.15487332E+03</pdfrwt>
<pdfrwt beam="1">  1       -1 0.10150397E+00 0.15487332E+03</pdfrwt>
<totfact> 0.15302461E+03</totfact>
</mgrwt>
</event>
<event>
 8    1  0.1273312E-005  0.1355419E+03  0.7546771E-02  0.1233680E+00
         -2   -1    0    0    0  501 -0.00000000000E+00  0.00000000000E+00  0.25707746468E+03  0.25707746468E+03  0.00000000000E+00 0.  1.
          2   -1    0    0  501    0  0.00000000000E+00 -0.00000000000E+00 -0.78670739312E+02  0.78670739312E+02  0.00000000000E+00 0. -1.
         23    2    1    2    0    0 -0.44655041964E+02 -0.27606436510E+02  0.17280072097E+03  0.20009041317E+03  0.86138819139E+02 0.  0.
         23    2    1    2    0    0  0.44655041964E+02  0.27606436510E+02  0.56060043966E+01  0.13565779083E+03  0.12496167740E+03 0.  0.
          5    1    4    4  502    0  0.75601578846E+02 -0.56990353420E+01  0.32504824667E+02  0.82624036179E+02  0.47000000000E+01 0. -1.
         -5    1    4    4    0  502 -0.30946536882E+02  0.33305471852E+02 -0.26898820271E+02  0.53033754650E+02  0.47000000000E+01 0. -1.
        -11    1    3    3    0    0  0.15317580551E+02 -0.16308443305E+01  0.65325876038E-01  0.15404291436E+02  0.00000000000E+00 0. -1.
         11    1    3    3    0    0 -0.59972622515E+02 -0.25975592180E+02  0.17273539510E+03  0.18468612173E+03  0.00000000000E+00 0.  1.
<mgrwt>
<rscale>  0 0.12589335E+03</rscale>
<asrwt>0</asrwt>
<pdfrwt beam="2">  1        2 0.12103191E-01 0.13554191E+03</pdfrwt>
<pdfrwt beam="1">  1       -2 0.39550379E-01 0.13554191E+03</pdfrwt>
<totfact> 0.29585831E+03</totfact>
</mgrwt>
</event>
<event>
 8    1  0.1273312E-005  0.1782092E+03  0.7546771E-02  0.1177410E+00
          4   -1    0    0  501    0  0.00000000000E+00  0.00000000000E+00  0.11653199015E+04  0.11653199015E+04  0.00000000000E+00 0.  1.
         -4   -1    0    0    0  501 -0.00000000000E+00 -0.00000000000E+00 -0.24716306215E+02  0.24716306215E+02  0.00000000000E+00 0. -1.
         23    2    1    2    0    0 -0.65693078966E+02  0.10870221390E+03  0.36567545300E+03  0.39488078101E+03  0.77977832463E+02 0.  0.
         23    2    1    2    0    0  0.65693078966E+02 -0.10870221390E+03  0.77492814228E+03  0.79515542670E+03  0.12500709971E+03 0.  0.
          5    1    4    4  502    0  0.62004914748E+02 -0.11304095536E+03  0.77687869628E+03  0.78751854948E+03  0.47000000000E+01 0. -1.
         -5    1    4    4    0  502  0.36881642177E+01  0.43387414597E+01 -0.19505539984E+01  0.76368772185E+01  0.47000000000E+01 0. -1.
        -11    1    3    3    0    0 -0.37860667330E+02  0.35764156769E+02  0.60270255415E+02  0.79655563069E+02  0.00000000000E+00 0. -1.
         11    1    3    3    0    0 -0.27832411636E+02  0.72938057132E+02  0.30540519758E+03  0.31522521794E+03  0.00000000000E+00 0.  1.
<mgrwt>
<rscale>  0 0.17042049E+03</rscale>
<asrwt>0</asrwt>
<pdfrwt beam="1">  1        4 0.17927994E+00 0.17820922E+03</pdfrwt>
<pdfrwt beam="2">  1       -4 0.38025096E-02 0.17820922E+03</pdfrwt>
<totfact> 0.12848941E+02</totfact>
</mgrwt>
</event>
<event>
 7    1  0.1273312E-005  0.2120339E+03  0.7546771E-02  0.1155691E+00
         -1   -1    0    0    0  501 -0.00000000000E+00  0.00000000000E+00  0.13530491345E+03  0.13530491345E+03  0.00000000000E+00 0.  1.
          1   -1    0    0  501    0  0.00000000000E+00 -0.00000000000E+00 -0.27601504738E+03  0.27601504738E+03  0.00000000000E+00 0. -1.
         23    2    1    2    0    0  0.24228679047E+02 -0.85831447010E+02  0.17296719829E+02  0.14688746966E+03  0.11542394051E+03 0.  0.
          5    1    1    2  502    0 -0.64150844324E+02  0.75581401649E+02 -0.18844303969E+03  0.21298062896E+03  0.47000000000E+01 0. -1.
         -5    1    1    2    0  502  0.39922165276E+02  0.10250045361E+02  0.30436185941E+02  0.51451862210E+02  0.47000000000E+01 0.  1.
        -11    1    3    3    0    0  0.43361657086E+02 -0.14330250076E+02 -0.33912374609E+02  0.56882673320E+02  0.00000000000E+00 0. -1.
         11    1    3    3    0    0 -0.19132978039E+02 -0.71501196934E+02  0.51209094438E+02  0.90004796343E+02  0.00000000000E+00 0.  1.
<mgrwt>
<rscale>  0 0.19310439E+03</rscale>
<asrwt>0</asrwt>
<pdfrwt beam="2">  1        1 0.42463853E-01 0.21203390E+03</pdfrwt>
<pdfrwt beam="1">  1       -1 0.20816141E-01 0.21203390E+03</pdfrwt>
<totfact> 0.18248567E+03</totfact>
</mgrwt>
</event>
<event>
 8    1  0.1273312E-005  0.1279703E+03  0.7546771E-02  0.1245218E+00
          1   -1    0    0  501    0  0.00000000000E+00  0.00000000000E+00  0.25021789654E+03  0.25021789654E+03  0.00000000000E+00 0. -1.
         -1   -1    0    0    0  501 -0.00000000000E+00 -0.00000000000E+00 -0.56269386686E+02  0.56269386686E+02  0.00000000000E+00 0.  1.
         23    2    1    2    0    0 -0.26585064439E+02 -0.68408682227E+01  0.31951116546E+02  0.10004225594E+03  0.90741478910E+02 0.  0.
         23    2    1    2    0    0  0.26585064439E+02  0.68408682227E+01  0.16199739331E+03  0.20644502730E+03  0.12499132260E+03 0.  0.
          5    1    4    4  502    0  0.49252898362E+02 -0.22255542762E+01  0.17249008684E+03  0.17945952509E+03  0.47000000000E+01 0. -1.
         -5    1    4    4    0  502 -0.22667833923E+02  0.90664224989E+01 -0.10492693527E+02  0.26985502203E+02  0.47000000000E+01 0. -1.
        -11    1    3    3    0    0  0.26732532535E+02 -0.26778115902E+01 -0.13307985914E+02  0.29981685405E+02  0.00000000000E+00 0.  1.
         11    1    3    3    0    0 -0.53317596973E+02 -0.41630566325E+01  0.45259102460E+02  0.70060570530E+02  0.00000000000E+00 0. -1.
<mgrwt>
<rscale>  0 0.11872364E+03</rscale>
<asrwt>0</asrwt>
<pdfrwt beam="1">  1        1 0.38495060E-01 0.12797029E+03</pdfrwt>
<pdfrwt beam="2">  1       -1 0.86568289E-02 0.12797029E+03</pdfrwt>
<totfact> 0.79429440E+03</totfact>
</mgrwt>
</event>
<event>
 8    1  0.1273312E-005  0.1200265E+03  0.7546771E-02  0.1249677E+00
          4   -1    0    0  501    0  0.00000000000E+00  0.00000000000E+00  0.11548069896E+03  0.11548069896E+03  0.00000000000E+00 0. -1.
         -4   -1    0    0    0  501 -0.00000000000E+00 -0.00000000000E+00 -0.17056649659E+03  0.17056649659E+03  0.00000000000E+00 0.  1.
         23    2    1    2    0    0 -0.26994264798E+02 -0.39315093050E+02 -0.11169203260E+03  0.15334212911E+03  0.93618008639E+02 0.  0.
         23    2    1    2    0    0  0.26994264798E+02  0.39315093050E+02  0.56606234968E+02  0.13270506643E+03  0.11014536733E+03 0.  0.
          5    1    4    4  502    0  0.58917055536E+02  0.57938065996E+02  0.38443092632E+02  0.91257877992E+02  0.47000000000E+01 0. -1.
         -5    1    4    4    0  502 -0.31922790738E+02 -0.18622972946E+02  0.18163142336E+02  0.41447188437E+02  0.47000000000E+01 0.  1.
        -11    1    3    3    0    0  0.52549479200E+01 -0.46337660997E+02 -0.11751225697E+02  0.48092458969E+02  0.00000000000E+00 0. -1.
         11    1    3    3    0    0 -0.32249212718E+02  0.70225679468E+01 -0.99940806900E+02  0.10524967014E+03  0.00000000000E+00 0.  1.
<mgrwt>
<rscale>  0 0.11609745E+03</rscale>
<asrwt>0</asrwt>
<pdfrwt beam="1">  1        4 0.17766261E-01 0.12002653E+03</pdfrwt>
<pdfrwt beam="2">  1       -4 0.26240999E-01 0.12002653E+03</pdfrwt>
<totfact> 0.61711662E+02</totfact>
</mgrwt>
</event>
<event>
 8    1  0.1273312E-005  0.1604980E+03  0.7546771E-02  0.1197115E+00
         -2   -1    0    0    0  501 -0.00000000000E+00  0.00000000000E+00  0.69193763681E+02  0.69193763681E+02  0.00000000000E+00 0. -1.
          2   -1    0    0  501    0  0.00000000000E+00 -0.00000000000E+00 -0.46931466046E+03  0.46931466046E+03  0.00000000000E+00 0.  1.
         23    2    1    2    0    0  0.83208926972E+02  0.56662751071E+02 -0.30029918312E+02  0.13511416563E+03  0.84968516948E+02 0.  0.
         23    2    1    2    0    0 -0.83208926972E+02 -0.56662751071E+02 -0.37009097846E+03  0.40339425851E+03  0.12500081029E+03 0.  0.
          5    1    4    4  502    0 -0.98199210977E+02 -0.51613917573E+02 -0.17270487181E+03  0.20531961492E+03  0.47000000000E+01 0. -1.
         -5    1    4    4    0  502  0.14990284005E+02 -0.50488334984E+01 -0.19738610665E+03  0.19807464359E+03  0.47000000000E+01 0. -1.
        -11    1    3    3    0    0  0.67020242513E+02  0.77948888681E+02 -0.13517742801E+02  0.10368448063E+03  0.00000000000E+00 0. -1.
         11    1    3    3    0    0  0.16188684459E+02 -0.21286137610E+02 -0.16512175511E+02  0.31429684997E+02  0.00000000000E+00 0.  1.
<mgrwt>
<rscale>  0 0.15276618E+03</rscale>
<asrwt>0</asrwt>
<pdfrwt beam="2">  1        2 0.72202254E-01 0.16049796E+03</pdfrwt>
<pdfrwt beam="1">  1       -2 0.10645195E-01 0.16049796E+03</pdfrwt>
<totfact> 0.39140795E+03</totfact>
</mgrwt>
</event>
<event>
 8    1  0.1273312E-005  0.1379488E+03  0.7546771E-02  0.1227345E+00
          2   -1    0    0  501    0  0.00000000000E+00  0.00000000000E+00  0.53580001518E+03  0.53580001518E+03  0.00000000000E+00 0.  1.
         -2   -1    0    0    0  501 -0.00000000000E+00 -0.00000000000E+00 -0.30997005203E+02  0.30997005203E+02  0.00000000000E+00 0. -1.
         23    2    1    2    0    0 -0.56264502164E+02 -0.15251119463E+02  0.14480067600E+03  0.18126937716E+03  0.92157802054E+02 0.  0.
         23    2    1    2    0    0  0.56264502164E+02  0.15251119463E+02  0.36000233398E+03  0.38552764322E+03  0.12502636669E+03 0.  0.
          5    1    4    4  502    0  0.94286883313E+02  0.17796057256E+02  0.21423299962E+03  0.23478625204E+03  0.47000000000E+01 0.  1.
         -5    1    4    4    0  502 -0.38022381150E+02 -0.25449377927E+01  0.14576933435E+03  0.15074139118E+03  0.47000000000E+01 0.  1.
        -11    1    3    3    0    0 -0.35701971300E+02  0.29664867930E+02  0.11391630262E+03  0.12301040259E+03  0.00000000000E+00 0.  1.
         11    1    3    3    0    0 -0.20562530863E+02 -0.44915987394E+02  0.30884373382E+02  0.58258974573E+02  0.00000000000E+00 0. -1.
<mgrwt>
<rscale>  0 0.13007458E+03</rscale>
<asrwt>0</asrwt>
<pdfrwt beam="1">  1        2 0.82430765E-01 0.13794884E+03</pdfrwt>
<pdfrwt beam="2">  1       -2 0.47687704E-02 0.13794884E+03</pdfrwt>
<totfact> 0.11528196E+04</totfact>
</mgrwt>
</event>
<event>
 8    1  0.1273312E-005  0.1522570E+03  0.7546771E-02  0.1206724E+00
         -2   -1    0    0    0  501 -0.00000000000E+00  0.00000000000E+00  0.21971597273E+02  0.21971597273E+02  0.00000000000E+00 0. -1.
          2   -1    0    0  501    0  0.00000000000E+00 -0.00000000000E+00 -0.10061095786E+04  0.10061095786E+04  0.00000000000E+00 0.  1.
         23    2    1    2    0    0 -0.62686946456E+02  0.60241255629E+02 -0.26687298651E+03  0.29483410444E+03  0.90262373538E+02 0.  0.
         23    2    1    2    0    0  0.62686946456E+02 -0.60241255629E+02 -0.71726499486E+03  0.73324707148E+03  0.12499413123E+03 0.  0.
          5    1    4    4  502    0  0.36146431793E+02 -0.49557649805E+02 -0.69217861947E+03  0.69490708475E+03  0.47000000000E+01 0.  1.
         -5    1    4    4    0  502  0.26540514663E+02 -0.10683605824E+02 -0.25086375393E+02  0.38339986728E+02  0.47000000000E+01 0.  1.
        -11    1    3    3    0    0 -0.12193411308E+02 -0.23673339338E+02 -0.71300002499E+02  0.76110423932E+02  0.00000000000E+00 0.  1.
         11    1    3    3    0    0 -0.50493535147E+02  0.83914594967E+02 -0.19557298401E+03  0.21872368051E+03  0.00000000000E+00 0. -1.
<mgrwt>
<rscale>  0 0.14502438E+03</rscale>
<asrwt>0</asrwt>
<pdfrwt beam="2">  1        2 0.15478608E+00 0.15225700E+03</pdfrwt>
<pdfrwt beam="1">  1       -2 0.33802460E-02 0.15225700E+03</pdfrwt>
<totfact> 0.89630296E+03</totfact>
</mgrwt>
</event>
<event>
 8    1  0.1273312E-005  0.1555883E+03  0.7546771E-02  0.1202127E+00
          1   -1    0    0  501    0  0.00000000000E+00  0.00000000000E+00  0.73238578460E+03  0.73238578460E+03  0.00000000000E+00 0. -1.
         -1   -1    0    0    0  501 -0.00000000000E+00 -0.00000000000E+00 -0.27791634610E+02  0.27791634610E+02  0.00000000000E+00 0.  1.
         23    2    1    2    0    0 -0.73367551371E+02  0.56323719427E+02  0.32867023398E+03  0.35332792088E+03  0.90891902857E+02 0.  0.
         23    2    1    2    0    0  0.73367551371E+02 -0.56323719427E+02  0.37592391600E+03  0.40684949832E+03  0.12511021021E+03 0.  0.
          5    1    4    4  502    0  0.76938796097E+01  0.87797446501E+01  0.25118619161E+03  0.25150123768E+03  0.47000000000E+01 0.  1.
         -5    1    4    4    0  502  0.65673671762E+02 -0.65103464077E+02  0.12473772439E+03  0.15534826064E+03  0.47000000000E+01 0.  1.
        -11    1    3    3    0    0 -0.41239915456E+02  0.44560634502E+02  0.30673581580E+03  0.31268713032E+03  0.00000000000E+00 0.  1.
         11    1    3    3    0    0 -0.32127635916E+02  0.11763084925E+02  0.21934418183E+02  0.40640790562E+02  0.00000000000E+00 0. -1.
<mgrwt>
<rscale>  0 0.14866190E+03</rscale>
<asrwt>0</asrwt>
<pdfrwt beam="1">  1        1 0.11267472E+00 0.15558831E+03</pdfrwt>
<pdfrwt beam="2">  1       -1 0.42756366E-02 0.15558831E+03</pdfrwt>
<totfact> 0.57177629E+03</totfact>
</mgrwt>
</event>
<event>
 8    1  0.1273312E-005  0.1573092E+03  0.7546771E-02  0.1199305E+00
          1   -1    0    0  501    0  0.00000000000E+00  0.00000000000E+00  0.90276843823E+03  0.90276843823E+03  0.00000000000E+00 0. -1.
         -1   -1    0    0    0  501 -0.00000000000E+00 -0.00000000000E+00 -0.23454852404E+02  0.23454852404E+02  0.00000000000E+00 0.  1.
         23    2    1    2    0    0  0.52150440496E+02  0.80013132008E+02  0.38165765802E+03  0.40429646623E+03  0.93119788165E+02 0.  0.
         23    2    1    2    0    0 -0.52150440496E+02 -0.80013132008E+02  0.49765592781E+03  0.52192682441E+03  0.12499767121E+03 0.  0.
          5    1    4    4  502    0  0.60430334428E+01 -0.20504730902E+02  0.36228364450E+03  0.36294419862E+03  0.47000000000E+01 0. -1.
         -5    1    4    4    0  502 -0.58193473939E+02 -0.59508401106E+02  0.13537228332E+03  0.15898262579E+03  0.47000000000E+01 0. -1.
        -11    1    3    3    0    0  0.77944389444E+02  0.45396454599E+02  0.26137885566E+03  0.27650510325E+03  0.00000000000E+00 0.  1.
         11    1    3    3    0    0 -0.25793948948E+02  0.34616677409E+02  0.12027880236E+03  0.12779136299E+03  0.00000000000E+00 0. -1.
<mgrwt>
<rscale>  0 0.15095481E+03</rscale>
<asrwt>0</asrwt>
<pdfrwt beam="1">  1        1 0.13888743E+00 0.15730921E+03</pdfrwt>
<pdfrwt beam="2">  1       -1 0.36084395E-02 0.15730921E+03</pdfrwt>
<totfact> 0.53353580E+03</totfact>
</mgrwt>
</event>
<event>
 8    1  0.1273312E-005  0.1395493E+03  0.7546771E-02  0.1234606E+00
         -1   -1    0    0    0  501 -0.00000000000E+00  0.00000000000E+00  0.76115177343E+02  0.76115177343E+02  0.00000000000E+00 0.  1.
          1   -1    0    0  501    0  0.00000000000E+00 -0.00000000000E+00 -0.21016047158E+03  0.21016047158E+03  0.00000000000E+00 0. -1.
         23    2    1    2    0    0 -0.42436193391E+02  0.45261699538E+02  0.29213181953E+01  0.90740836833E+02  0.66150687181E+02 0.  0.
         23    2    1    2    0    0  0.42436193391E+02 -0.45261699538E+02 -0.13696661243E+03  0.19553481209E+03  0.12499823144E+03 0.  0.
          5    1    4    4  502    0  0.27639259855E+01 -0.44363511535E+02 -0.14757122270E+03  0.15419181629E+03  0.47000000000E+01 0.  1.
         -5    1    4    4    0  502  0.39672267406E+02 -0.89818800298E+00  0.10604610264E+02  0.41342995799E+02  0.47000000000E+01 0.  1.
        -11    1    3    3    0    0 -0.41989792034E+02 -0.14762246346E+01 -0.79303378636E+01  0.42757597370E+02  0.00000000000E+00 0. -1.
         11    1    3    3    0    0 -0.44640135735E+00  0.46737924173E+02  0.10851656059E+02  0.47983239463E+02  0.00000000000E+00 0.  1.
<mgrwt>
<rscale>  0 0.12529685E+03</rscale>
<asrwt>0</asrwt>
<pdfrwt beam="2">  1        1 0.32332381E-01 0.13954931E+03</pdfrwt>
<pdfrwt beam="1">  1       -1 0.11710027E-01 0.13954931E+03</pdfrwt>
<totfact> 0.62528362E+03</totfact>
</mgrwt>
</event>
<event>
 8    1  0.1273312E-005  0.1283934E+03  0.7546771E-02  0.1248125E+00
         -1   -1    0    0    0  501 -0.00000000000E+00  0.00000000000E+00  0.26866420542E+02  0.26866420542E+02  0.00000000000E+00 0.  1.
          1   -1    0    0  501    0  0.00000000000E+00 -0.00000000000E+00 -0.59383716100E+03  0.59383716100E+03  0.00000000000E+00 0. -1.
         23    2    1    2    0    0  0.19217252280E+02 -0.22198587193E+02 -0.88051104280E+02  0.12487208251E+03  0.83534184415E+02 0.  0.
         23    2    1    2    0    0 -0.19217252280E+02  0.22198587193E+02 -0.47891963617E+03  0.49583149903E+03  0.12499110953E+03 0.  0.
          5    1    4    4  502    0  0.41689153527E+02  0.36662397684E+02 -0.13198226204E+03  0.14326033791E+03  0.47000000000E+01 0. -1.
         -5    1    4    4    0  502 -0.60906405807E+02 -0.14463810491E+02 -0.34693737413E+03  0.35257116112E+03  0.47000000000E+01 0. -1.
        -11    1    3    3    0    0 -0.16257711402E+02 -0.82735935548E+01 -0.84669463925E+02  0.86612260400E+02  0.00000000000E+00 0. -1.
         11    1    3    3    0    0  0.35474963682E+02 -0.13924993638E+02 -0.33816403551E+01  0.38259822106E+02  0.00000000000E+00 0.  1.
<mgrwt>
<rscale>  0 0.11700293E+03</rscale>
<asrwt>0</asrwt>
<pdfrwt beam="2">  1        1 0.91359564E-01 0.12839337E+03</pdfrwt>
<pdfrwt beam="1">  1       -1 0.41332954E-02 0.12839337E+03</pdfrwt>
<totfact> 0.79835753E+03</totfact>
</mgrwt>
</event>
<event>
 8    1  0.1273312E-005  0.1518774E+03  0.7546771E-02  0.1206877E+00
          2   -1    0    0  501    0  0.00000000000E+00  0.00000000000E+00  0.10420420023E+04  0.10420420023E+04  0.00000000000E+00 0.  1.
         -2   -1    0    0    0  501 -0.00000000000E+00 -0.00000000000E+00 -0.18905930290E+02  0.18905930290E+02  0.00000000000E+00 0. -1.
         23    2    1    2    0    0 -0.84520192971E+02  0.17523329990E+02  0.38775747883E+03  0.40766950451E+03  0.91585110179E+02 0.  0.
         23    2    1    2    0    0  0.84520192971E+02 -0.17523329990E+02  0.63537859320E+03  0.65327842810E+03  0.12496406607E+03 0.  0.
          5    1    4    4  502    0  0.71743756413E+02  0.27350300278E+02  0.55432815751E+03  0.55964006444E+03  0.47000000000E+01 0. -1.
         -5    1    4    4    0  502  0.12776436558E+02 -0.44873630267E+02  0.81050435688E+02  0.93638363664E+02  0.47000000000E+01 0. -1.
        -11    1    3    3    0    0 -0.96392925326E+02  0.31951186556E+02  0.36115691923E+03  0.37516235776E+03  0.00000000000E+00 0.  1.
         11    1    3    3    0    0  0.11872732355E+02 -0.14427856566E+02  0.26600559601E+02  0.32507146749E+02  0.00000000000E+00 0. -1.
<mgrwt>
<rscale>  0 0.14490533E+03</rscale>
<asrwt>0</asrwt>
<pdfrwt beam="1">  1        2 0.16031411E+00 0.15187741E+03</pdfrwt>
<pdfrwt beam="2">  1       -2 0.29086055E-02 0.15187741E+03</pdfrwt>
<totfact> 0.10651658E+04</totfact>
</mgrwt>
</event>
<event>
 8    1  0.1273312E-005  0.1391020E+03  0.7546771E-02  0.1225687E+00
          2   -1    0    0  501    0  0.00000000000E+00  0.00000000000E+00  0.38910055143E+02  0.38910055143E+02  0.00000000000E+00 0. -1.
         -2   -1    0    0    0  501 -0.00000000000E+00 -0.00000000000E+00 -0.42263264763E+03  0.42263264763E+03  0.00000000000E+00 0.  1.
         23    2    1    2    0    0  0.58273043806E+02  0.18119976012E+02 -0.22503652576E+03  0.25051987113E+03  0.91622523104E+02 0.  0.
         23    2    1    2    0    0 -0.58273043806E+02 -0.18119976012E+02 -0.15868606672E+03  0.21102283164E+03  0.12500114614E+03 0.  0.
          5    1    4    4  502    0 -0.59998005878E+02 -0.30515086238E+02 -0.17638024686E+03  0.18884653208E+03  0.47000000000E+01 0. -1.
         -5    1    4    4    0  502  0.17249620719E+01  0.12395110226E+02  0.17694180132E+02  0.22176299561E+02  0.47000000000E+01 0. -1.
        -11    1    3    3    0    0  0.38802336612E+02  0.41718063979E+02 -0.60268332186E+02  0.82935457154E+02  0.00000000000E+00 0. -1.
         11    1    3    3    0    0  0.19470707194E+02 -0.23598087968E+02 -0.16476819357E+03  0.16758441398E+03  0.00000000000E+00 0.  1.
<mgrwt>
<rscale>  0 0.13119955E+03</rscale>
<asrwt>0</asrwt>
<pdfrwt beam="1">  1        2 0.59861620E-02 0.13910200E+03</pdfrwt>
<pdfrwt beam="2">  1       -2 0.65020411E-01 0.13910200E+03</pdfrwt>
<totfact> 0.26565571E+03</totfact>
</mgrwt>
</event>
<event>
 8    1  0.1273312E-005  0.2189563E+03  0.7546771E-02  0.1138106E+00
          1   -1    0    0  501    0  0.00000000000E+00  0.00000000000E+00  0.13425784052E+04  0.13425784052E+04  0.00000000000E+00 0. -1.
         -1   -1    0    0    0  501 -0.00000000000E+00 -0.00000000000E+00 -0.39227966231E+02  0.39227966231E+02  0.00000000000E+00 0.  1.
         23    2    1    2    0    0 -0.15233462514E+03 -0.95452596172E+02  0.35161623136E+03  0.40521030271E+03  0.90798563530E+02 0.  0.
         23    2    1    2    0    0  0.15233462514E+03  0.95452596172E+02  0.95173420756E+03  0.97659606867E+03  0.12499937347E+03 0.  0.
          5    1    4    4  502    0 -0.12720159007E+02 -0.14985819166E+02  0.96596341469E+02  0.98687995250E+02  0.47000000000E+01 0. -1.
         -5    1    4    4    0  502  0.16505478414E+03  0.11043841534E+03  0.85513786609E+03  0.87790807342E+03  0.47000000000E+01 0. -1.
        -11    1    3    3    0    0 -0.10894892815E+03 -0.27282371520E+02  0.25897139812E+03  0.28227713649E+03  0.00000000000E+00 0. -1.
         11    1    3    3    0    0 -0.43385696988E+02 -0.68170224652E+02  0.92644833241E+02  0.12293316623E+03  0.00000000000E+00 0.  1.
<mgrwt>
<rscale>  0 0.21442839E+03</rscale>
<asrwt>0</asrwt>
<pdfrwt beam="1">  1        1 0.20655049E+00 0.21895634E+03</pdfrwt>
<pdfrwt beam="2">  1       -1 0.60350728E-02 0.21895634E+03</pdfrwt>
<totfact> 0.12120782E+03</totfact>
</mgrwt>
</event>
<event>
 8    1  0.1273312E-005  0.1608839E+03  0.7546771E-02  0.1195112E+00
          2   -1    0    0  501    0  0.00000000000E+00  0.00000000000E+00  0.73241566118E+03  0.73241566118E+03  0.00000000000E+00 0. -1.
         -2   -1    0    0    0  501 -0.00000000000E+00 -0.00000000000E+00 -0.30836331026E+02  0.30836331026E+02  0.00000000000E+00 0.  1.
         23    2    1    2    0    0  0.71258475267E+02  0.72019912975E+02  0.26882043054E+03  0.30155523008E+03  0.91686938824E+02 0.  0.
         23    2    1    2    0    0 -0.71258475267E+02 -0.72019912975E+02  0.43275889962E+03  0.46169676213E+03  0.12497598490E+03 0.  0.
          5    1    4    4  502    0 -0.10704375691E+03 -0.47403633713E+02  0.31113205850E+03  0.33246160412E+03  0.47000000000E+01 0. -1.
         -5    1    4    4    0  502  0.35785281646E+02 -0.24616279262E+02  0.12162684111E+03  0.12923515801E+03  0.47000000000E+01 0. -1.
        -11    1    3    3    0    0  0.48951115755E+02  0.80637025536E+01  0.42532364943E+02  0.65347051197E+02  0.00000000000E+00 0.  1.
         11    1    3    3    0    0  0.22307359512E+02  0.63956210422E+02  0.22628806560E+03  0.23620817888E+03  0.00000000000E+00 0. -1.
<mgrwt>
<rscale>  0 0.15444747E+03</rscale>
<asrwt>0</asrwt>
<pdfrwt beam="1">  1        2 0.11267932E+00 0.16088392E+03</pdfrwt>
<pdfrwt beam="2">  1       -2 0.47440515E-02 0.16088392E+03</pdfrwt>
<totfact> 0.81704108E+03</totfact>
</mgrwt>
</event>
<event>
 7    1  0.1273312E-005  0.4379829E+03  0.7546771E-02  0.1085249E+00
          1   -1    0    0  501    0  0.00000000000E+00  0.00000000000E+00  0.12754265494E+03  0.12754265494E+03  0.00000000000E+00 0. -1.
         -1   -1    0    0    0  501 -0.00000000000E+00 -0.00000000000E+00 -0.57453180797E+03  0.57453180797E+03  0.00000000000E+00 0.  1.
         23    2    1    2    0    0 -0.17248358089E+02 -0.26907408721E+01 -0.12804351881E+03  0.16026696357E+03  0.94792462574E+02 0.  0.
          5    1    1    2  502    0 -0.43796713906E+02  0.14523024636E+03 -0.35188473396E+03  0.38321656097E+03  0.47000000000E+01 0. -1.
         -5    1    1    2    0  502  0.61045071995E+02 -0.14253950549E+03  0.32939099733E+02  0.15859093837E+03  0.47000000000E+01 0.  1.
        -11    1    3    3    0    0 -0.32415759148E+02 -0.28179130733E+02 -0.12286777677E+03  0.13015888528E+03  0.00000000000E+00 0.  1.
         11    1    3    3    0    0  0.15167401059E+02  0.25488389861E+02 -0.51757420377E+01  0.30108078288E+02  0.00000000000E+00 0. -1.
<mgrwt>
<rscale>  0 0.29998320E+03</rscale>
<asrwt>0</asrwt>
<pdfrwt beam="1">  1        1 0.19621947E-01 0.43798293E+03</pdfrwt>
<pdfrwt beam="2">  1       -1 0.88389508E-01 0.43798293E+03</pdfrwt>
<totfact> 0.34478789E+02</totfact>
</mgrwt>
</event>
<event>
 8    1  0.1273312E-005  0.1263170E+03  0.7546771E-02  0.1248546E+00
          2   -1    0    0  501    0  0.00000000000E+00  0.00000000000E+00  0.13600016865E+03  0.13600016865E+03  0.00000000000E+00 0.  1.
         -2   -1    0    0    0  501 -0.00000000000E+00 -0.00000000000E+00 -0.92679078332E+02  0.92679078332E+02  0.00000000000E+00 0. -1.
         23    2    1    2    0    0 -0.17056593880E+02 -0.63543703818E+01 -0.75355334234E+01  0.92508816639E+02  0.90386898798E+02 0.  0.
         23    2    1    2    0    0  0.17056593880E+02  0.63543703818E+01  0.50856623743E+02  0.13617043034E+03  0.12499873801E+03 0.  0.
          5    1    4    4  502    0 -0.31510666468E+02  0.41040433453E+02 -0.75874903881E+01  0.52506183347E+02  0.47000000000E+01 0.  1.
         -5    1    4    4    0  502  0.48567260348E+02 -0.34686063072E+02  0.58444114131E+02  0.83664246998E+02  0.47000000000E+01 0.  1.
        -11    1    3    3    0    0  0.17552734415E+02  0.77498057070E+01  0.32499428259E+02  0.37740837445E+02  0.00000000000E+00 0.  1.
         11    1    3    3    0    0 -0.34609328295E+02 -0.14104176089E+02 -0.40034961682E+02  0.54767979194E+02  0.00000000000E+00 0. -1.
<mgrwt>
<rscale>  0 0.11675642E+03</rscale>
<asrwt>0</asrwt>
<pdfrwt beam="1">  1        2 0.20923103E-01 0.12631702E+03</pdfrwt>
<pdfrwt beam="2">  1       -2 0.14258320E-01 0.12631702E+03</pdfrwt>
<totfact> 0.91976945E+03</totfact>
</mgrwt>
</event>
<event>
 8    1  0.1273312E-005  0.1398222E+03  0.7546771E-02  0.1225026E+00
         -2   -1    0    0    0  501 -0.00000000000E+00  0.00000000000E+00  0.15158852465E+03  0.15158852465E+03  0.00000000000E+00 0.  1.
          2   -1    0    0  501    0  0.00000000000E+00 -0.00000000000E+00 -0.10293420219E+03  0.10293420219E+03  0.00000000000E+00 0. -1.
         23    2    1    2    0    0  0.18017866623E+02 -0.60007072890E+02  0.25227952712E+02  0.11275166183E+03  0.90282862895E+02 0.  0.
         23    2    1    2    0    0 -0.18017866623E+02  0.60007072890E+02  0.23426369747E+02  0.14177106501E+03  0.12499899103E+03 0.  0.
          5    1    4    4  502    0  0.38296670316E+02  0.17751651213E+02 -0.31063311911E+02  0.52619154544E+02  0.47000000000E+01 0.  1.
         -5    1    4    4    0  502 -0.56314536939E+02  0.42255421676E+02  0.54489681658E+02  0.89151910461E+02  0.47000000000E+01 0.  1.
        -11    1    3    3    0    0  0.22512494575E+02 -0.82070678276E+02  0.10270953560E+02  0.85719899275E+02  0.00000000000E+00 0. -1.
         11    1    3    3    0    0 -0.44946279523E+01  0.22063605387E+02  0.14956999151E+02  0.27031762552E+02  0.00000000000E+00 0.  1.
<mgrwt>
<rscale>  0 0.13165114E+03</rscale>
<asrwt>0</asrwt>
<pdfrwt beam="2">  1        2 0.15836031E-01 0.13982217E+03</pdfrwt>
<pdfrwt beam="1">  1       -2 0.23321311E-01 0.13982217E+03</pdfrwt>
<totfact> 0.55949401E+03</totfact>
</mgrwt>
</event>
<event>
 8    1  0.1273312E-005  0.1731600E+03  0.7546771E-02  0.1181460E+00
          2   -1    0    0  501    0  0.00000000000E+00  0.00000000000E+00  0.28504290634E+03  0.28504290634E+03  0.00000000000E+00 0. -1.
         -2   -1    0    0    0  501 -0.00000000000E+00 -0.00000000000E+00 -0.11824491270E+03  0.11824491270E+03  0.00000000000E+00 0.  1.
         23    2    1    2    0    0 -0.13393280711E+02 -0.11897282990E+03 -0.18751260058E+02  0.14949080161E+03  0.87532712692E+02 0.  0.
         23    2    1    2    0    0  0.13393280711E+02  0.11897282990E+03  0.18554925370E+03  0.25379701743E+03  0.12510190361E+03 0.  0.
          5    1    4    4  502    0 -0.11616660283E+02  0.11631838509E+03  0.19426048023E+03  0.22676890811E+03  0.47000000000E+01 0. -1.
         -5    1    4    4    0  502  0.25009940994E+02  0.26544448086E+01 -0.87112265304E+01  0.27028109320E+02  0.47000000000E+01 0.  1.
        -11    1    3    3    0    0  0.22775028307E+02 -0.92683361752E+02 -0.35377403824E+02  0.10178638495E+03  0.00000000000E+00 0.  1.
         11    1    3    3    0    0 -0.36168309018E+02 -0.26289468144E+02  0.16626143766E+02  0.47704416662E+02  0.00000000000E+00 0. -1.
<mgrwt>
<rscale>  0 0.16658215E+03</rscale>
<asrwt>0</asrwt>
<pdfrwt beam="1">  1        2 0.43852755E-01 0.17316004E+03</pdfrwt>
<pdfrwt beam="2">  1       -2 0.18191525E-01 0.17316004E+03</pdfrwt>
<totfact> 0.28011147E+03</totfact>
</mgrwt>
</event>
<event>
 7    1  0.1273312E-005  0.7108160E+03  0.7546771E-02  0.1031902E+00
          2   -1    0    0  501    0  0.00000000000E+00  0.00000000000E+00  0.78371957940E+03  0.78371957940E+03  0.00000000000E+00 0. -1.
         -2   -1    0    0    0  501 -0.00000000000E+00 -0.00000000000E+00 -0.21623881139E+03  0.21623881139E+03  0.00000000000E+00 0.  1.
         23    2    1    2    0    0  0.28620933525E+02 -0.33521464982E+02  0.20175233617E+02  0.10285039205E+03  0.90710069140E+02 0.  0.
          5    1    1    2  502    0 -0.94380170848E+02 -0.20002834683E+03  0.60796591358E+03  0.64696491270E+03  0.47000000000E+01 0. -1.
         -5    1    1    2    0  502  0.65759237323E+02  0.23354981182E+03 -0.60660379184E+02  0.25014308604E+03  0.47000000000E+01 0.  1.
        -11    1    3    3    0    0 -0.31585409536E+02 -0.15334964352E+02  0.19051977759E+02  0.39947178671E+02  0.00000000000E+00 0. -1.
         11    1    3    3    0    0  0.60206343061E+02 -0.18186500629E+02  0.11232558571E+01  0.62903213381E+02  0.00000000000E+00 0.  1.
<mgrwt>
<rscale>  0 0.43625381E+03</rscale>
<asrwt>0</asrwt>
<pdfrwt beam="1">  1        2 0.12057224E+00 0.71081602E+03</pdfrwt>
<pdfrwt beam="2">  1       -2 0.33267510E-01 0.71081602E+03</pdfrwt>
<totfact> 0.30142792E+02</totfact>
</mgrwt>
</event>
<event>
 8    1  0.1273312E-005  0.1407233E+03  0.7546771E-02  0.1217373E+00
         -1   -1    0    0    0  501 -0.00000000000E+00  0.00000000000E+00  0.18502142592E+03  0.18502142592E+03  0.00000000000E+00 0.  1.
          1   -1    0    0  501    0  0.00000000000E+00 -0.00000000000E+00 -0.10159228320E+03  0.10159228320E+03  0.00000000000E+00 0. -1.
         23    2    1    2    0    0  0.52875934741E+02 -0.37197497182E+02  0.71594392140E+02  0.14539366143E+03  0.10878438089E+03 0.  0.
         23    2    1    2    0    0 -0.52875934741E+02  0.37197497182E+02  0.11834750585E+02  0.14122004769E+03  0.12499408897E+03 0.  0.
          5    1    4    4  502    0 -0.73964523650E+02  0.15888883716E+02  0.51234073532E+02  0.91488948377E+02  0.47000000000E+01 0.  1.
         -5    1    4    4    0  502  0.21088588909E+02  0.21308613465E+02 -0.39399322947E+02  0.49731099311E+02  0.47000000000E+01 0.  1.
        -11    1    3    3    0    0  0.20659608663E+02  0.90755444944E+01 -0.24918922182E+02  0.33617519550E+02  0.00000000000E+00 0.  1.
         11    1    3    3    0    0  0.32216326078E+02 -0.46273041676E+02  0.96513314322E+02  0.11177614188E+03  0.00000000000E+00 0. -1.
<mgrwt>
<rscale>  0 0.13703624E+03</rscale>
<asrwt>0</asrwt>
<pdfrwt beam="2">  1        1 0.15629582E-01 0.14072328E+03</pdfrwt>
<pdfrwt beam="1">  1       -1 0.28464835E-01 0.14072328E+03</pdfrwt>
<totfact> 0.37955714E+03</totfact>
</mgrwt>
</event>
<event>
 8    1  0.1273312E-005  0.1352508E+03  0.7546771E-02  0.1231938E+00
         -1   -1    0    0    0  501 -0.00000000000E+00  0.00000000000E+00  0.75258001700E+01  0.75258001700E+01  0.00000000000E+00 0.  1.
          1   -1    0    0  501    0  0.00000000000E+00 -0.00000000000E+00 -0.22016828035E+04  0.22016828035E+04  0.00000000000E+00 0. -1.
         23    2    1    2    0    0 -0.40939703420E+02  0.31498753199E+02 -0.58592734495E+03  0.59530172572E+03  0.91679116040E+02 0.  0.
         23    2    1    2    0    0  0.40939703420E+02 -0.31498753199E+02 -0.16082296583E+04  0.16139068779E+04  0.12499818329E+03 0.  0.
          5    1    4    4  502    0  0.44427124427E+02 -0.56571013799E+02 -0.47990532813E+03  0.48528884487E+03  0.47000000000E+01 0.  1.
         -5    1    4    4    0  502 -0.34874210067E+01  0.25072260599E+02 -0.11283243302E+04  0.11286180330E+04  0.47000000000E+01 0.  1.
        -11    1    3    3    0    0  0.17758778852E+02  0.41996934068E+02 -0.25186990194E+03  0.25596399004E+03  0.00000000000E+00 0.  1.
         11    1    3    3    0    0 -0.58698482272E+02 -0.10498180869E+02 -0.33405744302E+03  0.33933773568E+03  0.00000000000E+00 0. -1.
<mgrwt>
<rscale>  0 0.12702507E+03</rscale>
<asrwt>0</asrwt>
<pdfrwt beam="2">  1        1 0.33872070E+00 0.13525079E+03</pdfrwt>
<pdfrwt beam="1">  1       -1 0.11578145E-02 0.13525079E+03</pdfrwt>
<totfact> 0.37720653E+03</totfact>
</mgrwt>
</event>
<event>
 8    1  0.1273312E-005  0.1743895E+03  0.7546771E-02  0.1179514E+00
          1   -1    0    0  501    0  0.00000000000E+00  0.00000000000E+00  0.32683746774E+03  0.32683746774E+03  0.00000000000E+00 0. -1.
         -1   -1    0    0    0  501 -0.00000000000E+00 -0.00000000000E+00 -0.82884815980E+02  0.82884815980E+02  0.00000000000E+00 0.  1.
         23    2    1    2    0    0  0.24485002850E+01  0.12159179208E+03  0.14166733125E+03  0.20754910263E+03  0.90644570728E+02 0.  0.
         23    2    1    2    0    0 -0.24485002850E+01 -0.12159179208E+03  0.10228532051E+03  0.20217318110E+03  0.12498459629E+03 0.  0.
          5    1    4    4  502    0 -0.39050812032E+02 -0.13021290862E+03  0.73716080134E+02  0.15471431078E+03  0.47000000000E+01 0. -1.
         -5    1    4    4    0  502  0.36602311747E+02  0.86211165417E+01  0.28569240379E+02  0.47458870314E+02  0.47000000000E+01 0. -1.
        -11    1    3    3    0    0  0.44965433630E+02  0.58654331647E+02  0.53859025168E+02  0.91449523971E+02  0.00000000000E+00 0.  1.
         11    1    3    3    0    0 -0.42516933345E+02  0.62937460431E+02  0.87808306083E+02  0.11609957865E+03  0.00000000000E+00 0. -1.
<mgrwt>
<rscale>  0 0.16841191E+03</rscale>
<asrwt>0</asrwt>
<pdfrwt beam="1">  1        1 0.50282687E-01 0.17438953E+03</pdfrwt>
<pdfrwt beam="2">  1       -1 0.12751510E-01 0.17438953E+03</pdfrwt>
<totfact> 0.32018187E+03</totfact>
</mgrwt>
</event>
<event>
 8    1  0.1273312E-005  0.1501936E+03  0.7546771E-02  0.1209105E+00
          1   -1    0    0  501    0  0.00000000000E+00  0.00000000000E+00  0.54694752075E+03  0.54694752075E+03  0.00000000000E+00 0. -1.
         -1   -1    0    0    0  501 -0.00000000000E+00 -0.00000000000E+00 -0.34564133253E+02  0.34564133253E+02  0.00000000000E+00 0.  1.
         23    2    1    2    0    0 -0.63374668661E+02 -0.54015495346E+02  0.21081304848E+03  0.24460992244E+03  0.91966572094E+02 0.  0.
         23    2    1    2    0    0  0.63374668661E+02  0.54015495346E+02  0.30157033901E+03  0.33690173156E+03  0.12499633990E+03 0.  0.
          5    1    4    4  502    0 -0.24357415782E+02 -0.20147502029E+02  0.98345839926E+02  0.10340792896E+03  0.47000000000E+01 0. -1.
         -5    1    4    4    0  502  0.87732084443E+02  0.74162997375E+02  0.20322449909E+03  0.23349380259E+03  0.47000000000E+01 0. -1.
        -11    1    3    3    0    0 -0.93693641561E+01  0.22486524530E+02  0.80738951532E+02  0.84333902226E+02  0.00000000000E+00 0. -1.
         11    1    3    3    0    0 -0.54005304505E+02 -0.76502019876E+02  0.13007409695E+03  0.16027602022E+03  0.00000000000E+00 0.  1.
<mgrwt>
<rscale>  0 0.14318579E+03</rscale>
<asrwt>0</asrwt>
<pdfrwt beam="1">  1        1 0.84145766E-01 0.15019357E+03</pdfrwt>
<pdfrwt beam="2">  1       -1 0.53175594E-02 0.15019357E+03</pdfrwt>
<totfact> 0.62028237E+03</totfact>
</mgrwt>
</event>
<event>
 8    1  0.1273312E-005  0.2196482E+03  0.7546771E-02  0.1137991E+00
         -1   -1    0    0    0  501 -0.00000000000E+00  0.00000000000E+00  0.10142865106E+03  0.10142865106E+03  0.00000000000E+00 0.  1.
          1   -1    0    0  501    0  0.00000000000E+00 -0.00000000000E+00 -0.43436621778E+03  0.43436621778E+03  0.00000000000E+00 0. -1.
         23    2    1    2    0    0  0.13523283870E+03 -0.11971800337E+03 -0.15327666403E+03  0.25202844631E+03  0.86048132004E+02 0.  0.
         23    2    1    2    0    0 -0.13523283870E+03  0.11971800337E+03 -0.17966090269E+03  0.28376642252E+03  0.12500008640E+03 0.  0.
          5    1    4    4  502    0 -0.31682276147E+02  0.25291891607E+02 -0.12797656000E+03  0.13432623091E+03  0.47000000000E+01 0. -1.
         -5    1    4    4    0  502 -0.10355056256E+03  0.94426111761E+02 -0.51684342698E+02  0.14944019161E+03  0.47000000000E+01 0. -1.
        -11    1    3    3    0    0  0.12781697469E+03 -0.10111701809E+03 -0.16235170250E+03  0.23004326913E+03  0.00000000000E+00 0. -1.
         11    1    3    3    0    0  0.74158640090E+01 -0.18600985280E+02  0.90750384753E+01  0.21985177182E+02  0.00000000000E+00 0.  1.
<mgrwt>
<rscale>  0 0.21457872E+03</rscale>
<asrwt>0</asrwt>
<pdfrwt beam="2">  1        1 0.66825573E-01 0.21964822E+03</pdfrwt>
<pdfrwt beam="1">  1       -1 0.15604408E-01 0.21964822E+03</pdfrwt>
<totfact> 0.16342976E+03</totfact>
</mgrwt>
</event>
<event>
 8    1  0.1273312E-005  0.3341397E+03  0.7546771E-02  0.1070480E+00
          3   -1    0    0  501    0  0.00000000000E+00  0.00000000000E+00  0.16063007845E+03  0.16063007845E+03  0.00000000000E+00 0. -1.
         -3   -1    0    0    0  501 -0.00000000000E+00 -0.00000000000E+00 -0.75739862765E+03  0.75739862765E+03  0.00000000000E+00 0.  1.
         23    2    1    2    0    0 -0.17296904267E+03 -0.25710804267E+03 -0.44696371708E+03  0.55184453671E+03  0.93450484142E+02 0.  0.
         23    2    1    2    0    0  0.17296904267E+03  0.25710804267E+03 -0.14980483211E+03  0.36618416939E+03  0.12500609128E+03 0.  0.
          5    1    4    4  502    0  0.10644182328E+03  0.19834137880E+03 -0.46497989374E+02  0.22989849348E+03  0.47000000000E+01 0.  1.
         -5    1    4    4    0  502  0.66527219388E+02  0.58766663871E+02 -0.10330684274E+03  0.13628567591E+03  0.47000000000E+01 0.  1.
        -11    1    3    3    0    0 -0.17121543664E+03 -0.18738618566E+03 -0.34523691450E+03  0.42850535055E+03  0.00000000000E+00 0.  1.
         11    1    3    3    0    0 -0.17536060287E+01 -0.69721857011E+02 -0.10172680259E+03  0.12333918616E+03  0.00000000000E+00 0. -1.
<mgrwt>
<rscale>  0 0.33148842E+03</rscale>
<asrwt>0</asrwt>
<pdfrwt beam="1">  1        3 0.24712320E-01 0.33413973E+03</pdfrwt>
<pdfrwt beam="2">  1       -3 0.11652287E+00 0.33413973E+03</pdfrwt>
<totfact> 0.24380319E+01</totfact>
</mgrwt>
</event>
<event>
 8    1  0.1273312E-005  0.1427693E+03  0.7546771E-02  0.1216471E+00
         -2   -1    0    0    0  501 -0.00000000000E+00  0.00000000000E+00  0.23937651836E+02  0.23937651836E+02  0.00000000000E+00 0.  1.
          2   -1    0    0  501    0  0.00000000000E+00 -0.00000000000E+00 -0.74206787505E+03  0.74206787505E+03  0.00000000000E+00 0. -1.
         23    2    1    2    0    0  0.82577765976E+02 -0.15330037571E+02 -0.35058719085E+03  0.37170749118E+03  0.90559279634E+02 0.  0.
         23    2    1    2    0    0 -0.82577765976E+02  0.15330037571E+02 -0.36754303236E+03  0.39429803570E+03  0.11545112747E+03 0.  0.
          5    1    4    4  502    0 -0.18454963933E+02 -0.38015039421E+02 -0.22578583259E+03  0.22975434950E+03  0.47000000000E+01 0. -1.
         -5    1    4    4    0  502 -0.64122802044E+02  0.53345076991E+02 -0.14175719978E+03  0.16454368620E+03  0.47000000000E+01 0.  1.
        -11    1    3    3    0    0  0.60149555512E+02  0.30501466529E+02 -0.24975094660E+03  0.25869643178E+03  0.00000000000E+00 0. -1.
         11    1    3    3    0    0  0.22428210464E+02 -0.45831504100E+02 -0.10083624425E+03  0.11301105940E+03  0.00000000000E+00 0.  1.
<mgrwt>
<rscale>  0 0.13769014E+03</rscale>
<asrwt>0</asrwt>
<pdfrwt beam="2">  1        2 0.11416429E+00 0.14276926E+03</pdfrwt>
<pdfrwt beam="1">  1       -2 0.36827156E-02 0.14276926E+03</pdfrwt>
<totfact> 0.11654284E+04</totfact>
</mgrwt>
</event>
<event>
 8    1  0.1273312E-005  0.1431825E+03  0.7546771E-02  0.1219245E+00
          3   -1    0    0  501    0  0.00000000000E+00  0.00000000000E+00  0.15155708943E+03  0.15155708943E+03  0.00000000000E+00 0. -1.
         -3   -1    0    0    0  501 -0.00000000000E+00 -0.00000000000E+00 -0.11062357792E+03  0.11062357792E+03  0.00000000000E+00 0.  1.
         23    2    1    2    0    0 -0.62049726293E+02  0.32054790117E+02  0.24442526982E+02  0.11805158045E+03  0.91984022629E+02 0.  0.
         23    2    1    2    0    0  0.62049726293E+02 -0.32054790117E+02  0.16490984532E+02  0.14412908690E+03  0.12499425193E+03 0.  0.
          5    1    4    4  502    0  0.81659208163E+02 -0.65038681196E+02  0.13172420182E+02  0.10532738952E+03  0.47000000000E+01 0.  1.
         -5    1    4    4    0  502 -0.19609481870E+02  0.32983891079E+02  0.33185643497E+01  0.38801697376E+02  0.47000000000E+01 0.  1.
        -11    1    3    3    0    0 -0.43236771022E+02  0.30988761114E+02 -0.29559627148E+02  0.60856332792E+02  0.00000000000E+00 0.  1.
         11    1    3    3    0    0 -0.18812955272E+02  0.10660290025E+01  0.54002154131E+02  0.57195247658E+02  0.00000000000E+00 0. -1.
<mgrwt>
<rscale>  0 0.13569283E+03</rscale>
<asrwt>0</asrwt>
<pdfrwt beam="1">  1        3 0.23316475E-01 0.14318254E+03</pdfrwt>
<pdfrwt beam="2">  1       -3 0.17019012E-01 0.14318254E+03</pdfrwt>
<totfact> 0.11805818E+03</totfact>
</mgrwt>
</event>
<event>
 8    1  0.1273312E-005  0.1470050E+03  0.7546771E-02  0.1212116E+00
         -1   -1    0    0    0  501 -0.00000000000E+00  0.00000000000E+00  0.25904242868E+03  0.25904242868E+03  0.00000000000E+00 0.  1.
          1   -1    0    0  501    0  0.00000000000E+00 -0.00000000000E+00 -0.93281723392E+02  0.93281723392E+02  0.00000000000E+00 0. -1.
         23    2    1    2    0    0  0.59586687118E+02  0.49345261877E+02  0.16356241720E+03  0.20530273441E+03  0.97010413268E+02 0.  0.
         23    2    1    2    0    0 -0.59586687118E+02 -0.49345261877E+02  0.21982880836E+01  0.14702141766E+03  0.12499974652E+03 0.  0.
          5    1    4    4  502    0  0.34410657206E+02 -0.90213521464E+00 -0.18204608398E+02  0.39222505583E+02  0.47000000000E+01 0.  1.
         -5    1    4    4    0  502 -0.93997344323E+02 -0.48443126662E+02  0.20402896482E+02  0.10779891208E+03  0.47000000000E+01 0.  1.
        -11    1    3    3    0    0  0.55854070799E+02  0.38350233784E+02  0.17581761308E+03  0.18842040953E+03  0.00000000000E+00 0.  1.
         11    1    3    3    0    0  0.37326163189E+01  0.10995028094E+02 -0.12255195879E+02  0.16882324881E+02  0.00000000000E+00 0. -1.
<mgrwt>
<rscale>  0 0.14090518E+03</rscale>
<asrwt>0</asrwt>
<pdfrwt beam="2">  1        1 0.14351034E-01 0.14700498E+03</pdfrwt>
<pdfrwt beam="1">  1       -1 0.39852681E-01 0.14700498E+03</pdfrwt>
<totfact> 0.23897259E+03</totfact>
</mgrwt>
</event>
<event>
 8    1  0.1273312E-005  0.1286519E+03  0.7546771E-02  0.1243091E+00
          1   -1    0    0  501    0  0.00000000000E+00  0.00000000000E+00  0.38487379050E+03  0.38487379050E+03  0.00000000000E+00 0. -1.
         -1   -1    0    0    0  501 -0.00000000000E+00 -0.00000000000E+00 -0.34495218392E+02  0.34495218392E+02  0.00000000000E+00 0.  1.
         23    2    1    2    0    0  0.25195588743E+02 -0.17128530966E+02  0.11147728810E+03  0.14802949891E+03  0.92505905333E+02 0.  0.
         23    2    1    2    0    0 -0.25195588743E+02  0.17128530966E+02  0.23890128401E+03  0.27133950998E+03  0.12499240741E+03 0.  0.
          5    1    4    4  502    0 -0.10890173674E+02 -0.18220446976E+02  0.23111589562E+03  0.23213622677E+03  0.47000000000E+01 0.  1.
         -5    1    4    4    0  502 -0.14305415070E+02  0.35348977941E+02  0.77853883860E+01  0.39203283206E+02  0.47000000000E+01 0.  1.
        -11    1    3    3    0    0  0.28713164940E+02 -0.27112397265E+02  0.12486584706E+03  0.13096185585E+03  0.00000000000E+00 0. -1.
         11    1    3    3    0    0 -0.35175761964E+01  0.99838662996E+01 -0.13388558961E+02  0.17067643060E+02  0.00000000000E+00 0.  1.
<mgrwt>
<rscale>  0 0.12000377E+03</rscale>
<asrwt>0</asrwt>
<pdfrwt beam="1">  1        1 0.59211350E-01 0.12865188E+03</pdfrwt>
<pdfrwt beam="2">  1       -1 0.53069569E-02 0.12865188E+03</pdfrwt>
<totfact> 0.96871386E+03</totfact>
</mgrwt>
</event>
<event>
 8    1  0.1273312E-005  0.1778774E+03  0.7546771E-02  0.1175427E+00
          1   -1    0    0  501    0  0.00000000000E+00  0.00000000000E+00  0.13110979053E+04  0.13110979053E+04  0.00000000000E+00 0. -1.
         -1   -1    0    0    0  501 -0.00000000000E+00 -0.00000000000E+00 -0.23829203042E+02  0.23829203042E+02  0.00000000000E+00 0.  1.
         23    2    1    2    0    0 -0.12440740480E+03  0.23146113267E+02  0.39238496145E+03  0.42253614830E+03  0.92508884535E+02 0.  0.
         23    2    1    2    0    0  0.12440740480E+03 -0.23146113267E+02  0.89488374080E+03  0.91239096004E+03  0.12500963755E+03 0.  0.
          5    1    4    4  502    0  0.12809181083E+03 -0.43271945422E+02  0.53307378301E+03  0.54997247331E+03  0.47000000000E+01 0.  1.
         -5    1    4    4    0  502 -0.36844060289E+01  0.20125832155E+02  0.36180995779E+03  0.36241848673E+03  0.47000000000E+01 0.  1.
        -11    1    3    3    0    0 -0.62973558704E+02 -0.31491290315E+02  0.13378147598E+03  0.15117821859E+03  0.00000000000E+00 0.  1.
         11    1    3    3    0    0 -0.61433846095E+02  0.54637403582E+02  0.25860348547E+03  0.27135792971E+03  0.00000000000E+00 0. -1.
<mgrwt>
<rscale>  0 0.17234274E+03</rscale>
<asrwt>0</asrwt>
<pdfrwt beam="1">  1        1 0.20170731E+00 0.17787736E+03</pdfrwt>
<pdfrwt beam="2">  1       -1 0.36660323E-02 0.17787736E+03</pdfrwt>
<totfact> 0.26744325E+03</totfact>
</mgrwt>
</event>
<event>
 7    1  0.1273312E-005  0.1190536E+03  0.7546771E-02  0.1302925E+00
          2   -1    0    0  501    0  0.00000000000E+00  0.00000000000E+00  0.42363051465E+03  0.42363051465E+03  0.00000000000E+00 0. -1.
         -2   -1    0    0    0  501 -0.00000000000E+00 -0.00000000000E+00 -0.21032774946E+02  0.21032774946E+02  0.00000000000E+00 0.  1.
         23    2    1    2    0    0 -0.17765947323E+02 -0.29714105290E+02  0.38318136492E+03  0.40125020750E+03  0.11390879537E+03 0.  0.
          5    1    3    3  502    0  0.73335880581E+01 -0.33262144265E+02  0.37125558716E+03  0.37284440823E+03  0.47000000000E+01 0. -1.
         -5    1    3    3    0  502 -0.25099535381E+02  0.35480389759E+01  0.11925777761E+02  0.28405799270E+02  0.47000000000E+01 0.  1.
        -11    1    1    2    0    0 -0.89152284849E+00  0.10355588869E+02  0.25367569409E+00  0.10396989236E+02  0.00000000000E+00 0. -1.
         11    1    1    2    0    0  0.18657470172E+02  0.19358516421E+02  0.19162699093E+02  0.33016092860E+02  0.00000000000E+00 0.  1.
<mgrwt>
<rscale>  0 0.89969725E+02</rscale>
<asrwt>0</asrwt>
<pdfrwt beam="1">  1        2 0.65173919E-01 0.11905365E+03</pdfrwt>
<pdfrwt beam="2">  1       -2 0.32358119E-02 0.11905365E+03</pdfrwt>
<totfact> 0.26129555E+04</totfact>
</mgrwt>
</event>
<event>
 8    1  0.1273312E-005  0.2619372E+03  0.7546771E-02  0.1108131E+00
          1   -1    0    0  501    0  0.00000000000E+00  0.00000000000E+00  0.13157602597E+03  0.13157602597E+03  0.00000000000E+00 0. -1.
         -1   -1    0    0    0  501 -0.00000000000E+00 -0.00000000000E+00 -0.50407941461E+03  0.50407941461E+03  0.00000000000E+00 0.  1.
         23    2    1    2    0    0  0.19746320810E+03 -0.11830701851E+03 -0.13617884721E+03  0.28286603501E+03  0.92088251966E+02 0.  0.
         23    2    1    2    0    0 -0.19746320810E+03  0.11830701851E+03 -0.23632454143E+03  0.35278940557E+03  0.12499122617E+03 0.  0.
          5    1    4    4  502    0 -0.15154281496E+03  0.21050899068E+02 -0.15525008091E+03  0.21802073925E+03  0.47000000000E+01 0. -1.
         -5    1    4    4    0  502 -0.45920393139E+02  0.97256119443E+02 -0.81074460519E+02  0.13476866633E+03  0.47000000000E+01 0. -1.
        -11    1    3    3    0    0  0.11366082667E+03 -0.17481403602E+02 -0.46602209513E+02  0.12408121905E+03  0.00000000000E+00 0. -1.
         11    1    3    3    0    0  0.83802381435E+02 -0.10082561491E+03 -0.89576637702E+02  0.15878481596E+03  0.00000000000E+00 0.  1.
<mgrwt>
<rscale>  0 0.25836247E+03</rscale>
<asrwt>0</asrwt>
<pdfrwt beam="1">  1        1 0.20242466E-01 0.26193716E+03</pdfrwt>
<pdfrwt beam="2">  1       -1 0.77550678E-01 0.26193716E+03</pdfrwt>
<totfact> 0.43883590E+02</totfact>
</mgrwt>
</event>
<event>
 8    1  0.1273312E-005  0.1817246E+03  0.7546771E-02  0.1171148E+00
          1   -1    0    0  501    0  0.00000000000E+00  0.00000000000E+00  0.37110645853E+02  0.37110645853E+02  0.00000000000E+00 0. -1.
         -1   -1    0    0    0  501 -0.00000000000E+00 -0.00000000000E+00 -0.86440172295E+03  0.86440172295E+03  0.00000000000E+00 0.  1.
         23    2    1    2    0    0  0.11686653690E+03 -0.61113100022E+02 -0.51839399464E+03  0.54312536476E+03  0.94128793249E+02 0.  0.
         23    2    1    2    0    0 -0.11686653690E+03  0.61113100022E+02 -0.30889708246E+03  0.35838700405E+03  0.12502495222E+03 0.  0.
          5    1    4    4  502    0 -0.11326943671E+03  0.85799212060E+02 -0.19283243527E+03  0.23957860542E+03  0.47000000000E+01 0. -1.
         -5    1    4    4    0  502 -0.35971001895E+01 -0.24686112038E+02 -0.11606464719E+03  0.11880839863E+03  0.47000000000E+01 0. -1.
        -11    1    3    3    0    0  0.56071506138E+02  0.90089670273E+01 -0.10430049024E+03  0.11875928407E+03  0.00000000000E+00 0. -1.
         11    1    3    3    0    0  0.60795030766E+02 -0.70122067049E+02 -0.41409350440E+03  0.42436608069E+03  0.00000000000E+00 0.  1.
<mgrwt>
<rscale>  0 0.17658643E+03</rscale>
<asrwt>0</asrwt>
<pdfrwt beam="1">  1        1 0.57093303E-02 0.18172462E+03</pdfrwt>
<pdfrwt beam="2">  1       -1 0.13298488E+00 0.18172462E+03</pdfrwt>
<totfact> 0.70845323E+02</totfact>
</mgrwt>
</event>
<event>
 8    1  0.1273312E-005  0.1531803E+03  0.7546771E-02  0.1205090E+00
         -3   -1    0    0    0  501 -0.00000000000E+00  0.00000000000E+00  0.65852613467E+03  0.65852613467E+03  0.00000000000E+00 0.  1.
          3   -1    0    0  501    0  0.00000000000E+00 -0.00000000000E+00 -0.34124860964E+02  0.34124860964E+02  0.00000000000E+00 0. -1.
         23    2    1    2    0    0  0.60859403301E+02 -0.64543479952E+02  0.40851952540E+03  0.42794525421E+03  0.91538025966E+02 0.  0.
         23    2    1    2    0    0 -0.60859403301E+02  0.64543479952E+02  0.21588174831E+03  0.26470574142E+03  0.12487783035E+03 0.  0.
          5    1    4    4  502    0 -0.60712070781E+02  0.87326949753E+01  0.26087054038E+02  0.66819457409E+02  0.47000000000E+01 0.  1.
         -5    1    4    4    0  502 -0.14733251979E+00  0.55810784976E+02  0.18979469427E+03  0.19788628401E+03  0.47000000000E+01 0.  1.
        -11    1    3    3    0    0 -0.22414664688E+02 -0.63521668051E+00  0.66399762188E+02  0.70083871982E+02  0.00000000000E+00 0.  1.
         11    1    3    3    0    0  0.83274067989E+02 -0.63908263271E+02  0.34211976321E+03  0.35786138223E+03  0.00000000000E+00 0. -1.
<mgrwt>
<rscale>  0 0.14630369E+03</rscale>
<asrwt>0</asrwt>
<pdfrwt beam="2">  1        3 0.52499791E-02 0.15318029E+03</pdfrwt>
<pdfrwt beam="1">  1       -3 0.10131170E+00 0.15318029E+03</pdfrwt>
<totfact> 0.43752303E+02</totfact>
</mgrwt>
</event>
<event>
 8    1  0.1273312E-005  0.2022249E+03  0.7546771E-02  0.1152137E+00
          2   -1    0    0  501    0  0.00000000000E+00  0.00000000000E+00  0.21738925143E+03  0.21738925143E+03  0.00000000000E+00 0. -1.
         -2   -1    0    0    0  501 -0.00000000000E+00 -0.00000000000E+00 -0.17133015678E+03  0.17133015678E+03  0.00000000000E+00 0.  1.
         23    2    1    2    0    0 -0.82895717386E+02 -0.13564014450E+03  0.82451644303E+01  0.18298946038E+03  0.90261902882E+02 0.  0.
         23    2    1    2    0    0  0.82895717386E+02  0.13564014450E+03  0.37813930222E+02  0.20572994783E+03  0.12499987742E+03 0.  0.
          5    1    4    4  502    0  0.10209650582E+03  0.94559023273E+02  0.63904550951E+02  0.15320243802E+03  0.47000000000E+01 0. -1.
         -5    1    4    4    0  502 -0.19200788429E+02  0.41081121228E+02 -0.26090620729E+02  0.52527509818E+02  0.47000000000E+01 0. -1.
        -11    1    3    3    0    0 -0.66161636206E+02 -0.11602107012E+03  0.42459026306E+02  0.14014642247E+03  0.00000000000E+00 0. -1.
         11    1    3    3    0    0 -0.16734081180E+02 -0.19619074383E+02 -0.34213861876E+02  0.42843037906E+02  0.00000000000E+00 0.  1.
<mgrwt>
<rscale>  0 0.19718424E+03</rscale>
<asrwt>0</asrwt>
<pdfrwt beam="1">  1        2 0.33444500E-01 0.20222492E+03</pdfrwt>
<pdfrwt beam="2">  1       -2 0.26358486E-01 0.20222492E+03</pdfrwt>
<totfact> 0.19881086E+03</totfact>
</mgrwt>
</event>
<event>
 8    1  0.1273312E-005  0.1789646E+03  0.7546771E-02  0.1174513E+00
         -2   -1    0    0    0  501 -0.00000000000E+00  0.00000000000E+00  0.16243858413E+02  0.16243858413E+02  0.00000000000E+00 0.  1.
          2   -1    0    0  501    0  0.00000000000E+00 -0.00000000000E+00 -0.24174324875E+04  0.24174324875E+04  0.00000000000E+00 0. -1.
         23    2    1    2    0    0  0.56690038275E+02 -0.11484707740E+03 -0.50064339163E+03  0.52472361986E+03  0.91035487772E+02 0.  0.
         23    2    1    2    0    0 -0.56690038275E+02  0.11484707740E+03 -0.19005452375E+04  0.19089527261E+04  0.12499879615E+03 0.  0.
          5    1    4    4  502    0 -0.45841920579E+02  0.76088165340E+02 -0.50199821472E+03  0.50981877974E+03  0.47000000000E+01 0.  1.
         -5    1    4    4    0  502 -0.10848117695E+02  0.38758912061E+02 -0.13985470228E+04  0.13991339464E+04  0.47000000000E+01 0.  1.
        -11    1    3    3    0    0  0.61304788590E+02 -0.83072466585E+02 -0.46676693182E+03  0.47804882643E+03  0.00000000000E+00 0. -1.
         11    1    3    3    0    0 -0.46147503152E+01 -0.31774610816E+02 -0.33876459804E+02  0.46674793431E+02  0.00000000000E+00 0.  1.
<mgrwt>
<rscale>  0 0.17323784E+03</rscale>
<asrwt>0</asrwt>
<pdfrwt beam="2">  1        2 0.37191292E+00 0.17896455E+03</pdfrwt>
<pdfrwt beam="1">  1       -2 0.24990536E-02 0.17896455E+03</pdfrwt>
<totfact> 0.24908759E+03</totfact>
</mgrwt>
</event>
<event>
 8    1  0.1273312E-005  0.1258913E+03  0.7546771E-02  0.1249502E+00
          4   -1    0    0  501    0  0.00000000000E+00  0.00000000000E+00  0.53777617662E+02  0.53777617662E+02  0.00000000000E+00 0. -1.
         -4   -1    0    0    0  501 -0.00000000000E+00 -0.00000000000E+00 -0.21993420635E+03  0.21993420635E+03  0.00000000000E+00 0.  1.
         23    2    1    2    0    0 -0.88182716277E+01  0.12052180098E+02 -0.63536250290E+02  0.11129401690E+03  0.90147025113E+02 0.  0.
         23    2    1    2    0    0  0.88182716277E+01 -0.12052180098E+02 -0.10262033840E+03  0.16241780712E+03  0.12500237300E+03 0.  0.
          5    1    4    4  502    0  0.23494696243E+02 -0.28045884902E+02 -0.12533431237E+03  0.13064973122E+03  0.47000000000E+01 0.  1.
         -5    1    4    4    0  502 -0.14676424615E+02  0.15993704804E+02  0.22713973966E+02  0.31768075896E+02  0.47000000000E+01 0.  1.
        -11    1    3    3    0    0 -0.10302405779E+02 -0.38376900867E+02 -0.36977325572E+02  0.54279357876E+02  0.00000000000E+00 0.  1.
         11    1    3    3    0    0  0.14841341517E+01  0.50429080965E+02 -0.26558924718E+02  0.57014659022E+02  0.00000000000E+00 0. -1.
<mgrwt>
<rscale>  0 0.11619950E+03</rscale>
<asrwt>0</asrwt>
<pdfrwt beam="1">  1        4 0.82734797E-02 0.12589126E+03</pdfrwt>
<pdfrwt beam="2">  1       -4 0.33836031E-01 0.12589126E+03</pdfrwt>
<totfact> 0.14275029E+03</totfact>
</mgrwt>
</event>
<event>
 8    1  0.1273312E-005  0.1505608E+03  0.7546771E-02  0.1205754E+00
         -2   -1    0    0    0  501 -0.00000000000E+00  0.00000000000E+00  0.66968936267E+02  0.66968936267E+02  0.00000000000E+00 0. -1.
          2   -1    0    0  501    0  0.00000000000E+00 -0.00000000000E+00 -0.53295873061E+03  0.53295873061E+03  0.00000000000E+00 0.  1.
         23    2    1    2    0    0  0.78661933924E+02 -0.55873684915E+02 -0.25966628886E+02  0.13485891319E+03  0.90570923241E+02 0.  0.
         23    2    1    2    0    0 -0.78661933924E+02  0.55873684915E+02 -0.44002316546E+03  0.46506875369E+03  0.11558110141E+03 0.  0.
          5    1    4    4  502    0 -0.71968102705E+02 -0.12144250353E+02 -0.30517076009E+03  0.31381232199E+03  0.47000000000E+01 0. -1.
         -5    1    4    4    0  502 -0.66938312190E+01  0.68017935268E+02 -0.13485240538E+03  0.15125643170E+03  0.47000000000E+01 0.  1.
        -11    1    3    3    0    0 -0.11233631098E+02  0.66687897383E+01  0.13183259960E+02  0.18559783603E+02  0.00000000000E+00 0.  1.
         11    1    3    3    0    0  0.89895565022E+02 -0.62542474653E+02 -0.39149888846E+02  0.11629912959E+03  0.00000000000E+00 0. -1.
<mgrwt>
<rscale>  0 0.14578169E+03</rscale>
<asrwt>0</asrwt>
<pdfrwt beam="2">  1        2 0.81993654E-01 0.15056082E+03</pdfrwt>
<pdfrwt beam="1">  1       -2 0.10302913E-01 0.15056082E+03</pdfrwt>
<totfact> 0.35722223E+03</totfact>
</mgrwt>
</event>
<event>
 8    1  0.1273312E-005  0.1294110E+03  0.7546771E-02  0.1242519E+00
         -2   -1    0    0    0  501 -0.00000000000E+00  0.00000000000E+00  0.35730776205E+02  0.35730776205E+02  0.00000000000E+00 0.  1.
          2   -1    0    0  501    0  0.00000000000E+00 -0.00000000000E+00 -0.35809423822E+03  0.35809423822E+03  0.00000000000E+00 0. -1.
         23    2    1    2    0    0  0.10137909385E+02  0.31944415945E+02 -0.13562913070E+03  0.16663145762E+03  0.90816070490E+02 0.  0.
         23    2    1    2    0    0 -0.10137909385E+02 -0.31944415945E+02 -0.18673433132E+03  0.22719355681E+03  0.12499591531E+03 0.  0.
          5    1    4    4  502    0  0.90039874071E+01  0.46210717700E+02 -0.86265013130E+02  0.98388234611E+02  0.47000000000E+01 0.  1.
         -5    1    4    4    0  502 -0.19141896792E+02 -0.78155133645E+02 -0.10046931819E+03  0.12880532219E+03  0.47000000000E+01 0.  1.
        -11    1    3    3    0    0 -0.30362661851E+02  0.86772986622E+01 -0.10764620673E+03  0.11218240758E+03  0.00000000000E+00 0. -1.
         11    1    3    3    0    0  0.40500571236E+02  0.23267117283E+02 -0.27982923968E+02  0.54449050046E+02  0.00000000000E+00 0.  1.
<mgrwt>
<rscale>  0 0.12035117E+03</rscale>
<asrwt>0</asrwt>
<pdfrwt beam="2">  1        2 0.55091422E-01 0.12941098E+03</pdfrwt>
<pdfrwt beam="1">  1       -2 0.54970424E-02 0.12941098E+03</pdfrwt>
<totfact> 0.14321277E+04</totfact>
</mgrwt>
</event>
<event>
 8    1  0.1273312E-005  0.1454405E+03  0.7546771E-02  0.1213748E+00
          2   -1    0    0  501    0  0.00000000000E+00  0.00000000000E+00  0.50293259712E+03  0.50293259712E+03  0.00000000000E+00 0. -1.
         -2   -1    0    0    0  501 -0.00000000000E+00 -0.00000000000E+00 -0.36574014552E+02  0.36574014552E+02  0.00000000000E+00 0.  1.
         23    2    1    2    0    0  0.65896600443E+02  0.34457828377E+02  0.18171959060E+03  0.21986261436E+03  0.98933592370E+02 0.  0.
         23    2    1    2    0    0 -0.65896600443E+02 -0.34457828377E+02  0.28463899197E+03  0.31964399731E+03  0.12499290133E+03 0.  0.
          5    1    4    4  502    0 -0.44571422765E+01 -0.12769818991E+02  0.24022453496E+03  0.24065089152E+03  0.47000000000E+01 0.  1.
         -5    1    4    4    0  502 -0.61439458167E+02 -0.21688009386E+02  0.44414457014E+02  0.78993105793E+02  0.47000000000E+01 0.  1.
        -11    1    3    3    0    0  0.83057971340E+02  0.52388996531E+02  0.15409896661E+03  0.18272855571E+03  0.00000000000E+00 0.  1.
         11    1    3    3    0    0 -0.17161370897E+02 -0.17931168154E+02  0.27620623985E+02  0.37134058649E+02  0.00000000000E+00 0. -1.
<mgrwt>
<rscale>  0 0.13968914E+03</rscale>
<asrwt>0</asrwt>
<pdfrwt beam="1">  1        2 0.77374241E-01 0.14544047E+03</pdfrwt>
<pdfrwt beam="2">  1       -2 0.56267718E-02 0.14544047E+03</pdfrwt>
<totfact> 0.96729847E+03</totfact>
</mgrwt>
</event>
<event>
 8    1  0.1273312E-005  0.2440618E+03  0.7546771E-02  0.1119810E+00
          2   -1    0    0  501    0  0.00000000000E+00  0.00000000000E+00  0.20396871326E+04  0.20396871326E+04  0.00000000000E+00 0. -1.
         -2   -1    0    0    0  501 -0.00000000000E+00 -0.00000000000E+00 -0.32563510459E+02  0.32563510459E+02  0.00000000000E+00 0.  1.
         23    2    1    2    0    0 -0.20422643328E+03 -0.47284401893E+02  0.55981947239E+03  0.60451243258E+03  0.89962151833E+02 0.  0.
         23    2    1    2    0    0  0.20422643328E+03  0.47284401893E+02  0.14473041498E+04  0.14677382105E+04  0.12498760700E+03 0.  0.
          5    1    4    4  502    0  0.45931859250E+02  0.43614323816E+02  0.18642429215E+03  0.19694682439E+03  0.47000000000E+01 0. -1.
         -5    1    4    4    0  502  0.15829457403E+03  0.36700780772E+01  0.12608798577E+04  0.12707913861E+04  0.47000000000E+01 0. -1.
        -11    1    3    3    0    0 -0.57155627822E+02 -0.16816485608E+02  0.28664892251E+03  0.29277493875E+03  0.00000000000E+00 0. -1.
         11    1    3    3    0    0 -0.14707080546E+03 -0.30467916285E+02  0.27317054987E+03  0.31173749383E+03  0.00000000000E+00 0.  1.
<mgrwt>
<rscale>  0 0.23997407E+03</rscale>
<asrwt>0</asrwt>
<pdfrwt beam="1">  1        2 0.31379792E+00 0.24406178E+03</pdfrwt>
<pdfrwt beam="2">  1       -2 0.50097724E-02 0.24406178E+03</pdfrwt>
<totfact> 0.13857021E+03</totfact>
</mgrwt>
</event>
<event>
 8    1  0.1273312E-005  0.1361863E+03  0.7546771E-02  0.1231054E+00
          1   -1    0    0  501    0  0.00000000000E+00  0.00000000000E+00  0.50406263262E+03  0.50406263262E+03  0.00000000000E+00 0. -1.
         -1   -1    0    0    0  501 -0.00000000000E+00 -0.00000000000E+00 -0.29259329911E+02  0.29259329911E+02  0.00000000000E+00 0.  1.
         23    2    1    2    0    0 -0.50333265504E+02 -0.19585380711E+02  0.17558359793E+03  0.20456802403E+03  0.90008065410E+02 0.  0.
         23    2    1    2    0    0  0.50333265504E+02  0.19585380711E+02  0.29921970478E+03  0.32875393850E+03  0.12501878099E+03 0.  0.
          5    1    4    4  502    0 -0.37636739958E+02  0.85979247479E+01  0.15147433760E+03  0.15638738266E+03  0.47000000000E+01 0.  1.
         -5    1    4    4    0  502  0.87970005462E+02  0.10987455963E+02  0.14774536718E+03  0.17236655584E+03  0.47000000000E+01 0.  1.
        -11    1    3    3    0    0 -0.42107408116E+02  0.57669437270E+01  0.20455651336E+02  0.47166991952E+02  0.00000000000E+00 0.  1.
         11    1    3    3    0    0 -0.82258573873E+01 -0.25352324438E+02  0.15512794659E+03  0.15740103207E+03  0.00000000000E+00 0. -1.
<mgrwt>
<rscale>  0 0.12760432E+03</rscale>
<asrwt>0</asrwt>
<pdfrwt beam="1">  1        1 0.77548091E-01 0.13618634E+03</pdfrwt>
<pdfrwt beam="2">  1       -1 0.45014358E-02 0.13618634E+03</pdfrwt>
<totfact> 0.87893426E+03</totfact>
</mgrwt>
</event>
<event>
 8    1  0.1273312E-005  0.1889909E+03  0.7546771E-02  0.1164310E+00
         -1   -1    0    0    0  501 -0.00000000000E+00  0.00000000000E+00  0.12723511139E+03  0.12723511139E+03  0.00000000000E+00 0.  1.
          1   -1    0    0  501    0  0.00000000000E+00 -0.00000000000E+00 -0.31219696472E+03  0.31219696472E+03  0.00000000000E+00 0. -1.
         23    2    1    2    0    0  0.12771398814E+03  0.61506852334E+02  0.87884859067E+01  0.16877219726E+03  0.91174894751E+02 0.  0.
         23    2    1    2    0    0 -0.12771398814E+03 -0.61506852334E+02 -0.19375033924E+03  0.27065987885E+03  0.12499448154E+03 0.  0.
          5    1    4    4  502    0 -0.93595990221E+02 -0.33192712436E+02 -0.34418855035E+02  0.10520795182E+03  0.47000000000E+01 0. -1.
         -5    1    4    4    0  502 -0.34117997917E+02 -0.28314139898E+02 -0.15933148420E+03  0.16545192703E+03  0.47000000000E+01 0. -1.
        -11    1    3    3    0    0  0.94880731110E+01 -0.53024331352E+01  0.29468863638E+02  0.31409445277E+02  0.00000000000E+00 0.  1.
         11    1    3    3    0    0  0.11822591503E+03  0.66809285469E+02 -0.20680377731E+02  0.13736275198E+03  0.00000000000E+00 0. -1.
<mgrwt>
<rscale>  0 0.18365746E+03</rscale>
<asrwt>0</asrwt>
<pdfrwt beam="2">  1        1 0.48030301E-01 0.18899094E+03</pdfrwt>
<pdfrwt beam="1">  1       -1 0.19574633E-01 0.18899094E+03</pdfrwt>
<totfact> 0.17232835E+03</totfact>
</mgrwt>
</event>
<event>
 8    1  0.1273312E-005  0.1600440E+03  0.7546771E-02  0.1196607E+00
          2   -1    0    0  501    0  0.00000000000E+00  0.00000000000E+00  0.11638413586E+04  0.11638413586E+04  0.00000000000E+00 0. -1.
         -2   -1    0    0    0  501 -0.00000000000E+00 -0.00000000000E+00 -0.20899234059E+02  0.20899234059E+02  0.00000000000E+00 0.  1.
         23    2    1    2    0    0  0.78043873286E+02  0.62428186588E+02  0.33187334019E+03  0.35803227224E+03  0.89772319779E+02 0.  0.
         23    2    1    2    0    0 -0.78043873286E+02 -0.62428186588E+02  0.81106878434E+03  0.82670832041E+03  0.12500379779E+03 0.  0.
          5    1    4    4  502    0  0.25010216618E+02 -0.38646719855E+02  0.14291518535E+03  0.15021957294E+03  0.47000000000E+01 0. -1.
         -5    1    4    4    0  502 -0.10305408990E+03 -0.23781466732E+02  0.66815359899E+03  0.67648874747E+03  0.47000000000E+01 0. -1.
        -11    1    3    3    0    0  0.40064340652E+02  0.30732229686E+02  0.28647183398E+03  0.29088783577E+03  0.00000000000E+00 0. -1.
         11    1    3    3    0    0  0.37979532635E+02  0.31695956902E+02  0.45401506208E+02  0.67144436471E+02  0.00000000000E+00 0.  1.
<mgrwt>
<rscale>  0 0.15319010E+03</rscale>
<asrwt>0</asrwt>
<pdfrwt beam="1">  1        2 0.17905247E+00 0.16004398E+03</pdfrwt>
<pdfrwt beam="2">  1       -2 0.32152677E-02 0.16004398E+03</pdfrwt>
<totfact> 0.78367543E+03</totfact>
</mgrwt>
</event>
<event>
 8    1  0.1273312E-005  0.1296951E+03  0.7546771E-02  0.1242200E+00
          2   -1    0    0  501    0  0.00000000000E+00  0.00000000000E+00  0.12137705042E+03  0.12137705042E+03  0.00000000000E+00 0.  1.
         -2   -1    0    0    0  501 -0.00000000000E+00 -0.00000000000E+00 -0.10812453919E+03  0.10812453919E+03  0.00000000000E+00 0. -1.
         23    2    1    2    0    0 -0.15951860756E+01  0.34556965455E+02 -0.11481465611E+02  0.97469076982E+02  0.90397281127E+02 0.  0.
         23    2    1    2    0    0  0.15951860756E+01 -0.34556965455E+02  0.24733976838E+02  0.13203251263E+03  0.12499634515E+03 0.  0.
          5    1    4    4  502    0 -0.43444396378E+02 -0.62510209365E+02  0.10877429792E+02  0.77041224876E+02  0.47000000000E+01 0. -1.
         -5    1    4    4    0  502  0.45039582454E+02  0.27953243910E+02  0.13856547045E+02  0.54991287753E+02  0.47000000000E+01 0. -1.
        -11    1    3    3    0    0 -0.19445810670E+02  0.24928180637E+02  0.34752660106E+02  0.46981923406E+02  0.00000000000E+00 0.  1.
         11    1    3    3    0    0  0.17850624594E+02  0.96287848179E+01 -0.46234125717E+02  0.50487153577E+02  0.00000000000E+00 0. -1.
<mgrwt>
<rscale>  0 0.12054544E+03</rscale>
<asrwt>0</asrwt>
<pdfrwt beam="1">  1        2 0.18673393E-01 0.12969508E+03</pdfrwt>
<pdfrwt beam="2">  1       -2 0.16634544E-01 0.12969508E+03</pdfrwt>
<totfact> 0.81447546E+03</totfact>
</mgrwt>
</event>
<event>
 8    1  0.1273312E-005  0.1519913E+03  0.7546771E-02  0.1205983E+00
          1   -1    0    0  501    0  0.00000000000E+00  0.00000000000E+00  0.83845322454E+02  0.83845322454E+02  0.00000000000E+00 0. -1.
         -1   -1    0    0    0  501 -0.00000000000E+00 -0.00000000000E+00 -0.23446525845E+03  0.23446525845E+03  0.00000000000E+00 0.  1.
         23    2    1    2    0    0 -0.35232031902E+02  0.78970184629E+02 -0.77612961672E+02  0.14969450473E+03  0.94377363780E+02 0.  0.
         23    2    1    2    0    0  0.35232031902E+02 -0.78970184629E+02 -0.73006974324E+02  0.16861607618E+03  0.12499510676E+03 0.  0.
          5    1    4    4  502    0  0.66233652469E+02 -0.33028246405E+02  0.32459223671E+01  0.74231986313E+02  0.47000000000E+01 0. -1.
         -5    1    4    4    0  502 -0.31001620566E+02 -0.45941938224E+02 -0.76252896692E+02  0.94384089864E+02  0.47000000000E+01 0. -1.
        -11    1    3    3    0    0 -0.21958539886E+02  0.82277334474E+02 -0.16083336709E+02  0.86662627249E+02  0.00000000000E+00 0. -1.
         11    1    3    3    0    0 -0.13273492016E+02 -0.33071498449E+01 -0.61529624963E+02  0.63031877479E+02  0.00000000000E+00 0.  1.
<mgrwt>
<rscale>  0 0.14560250E+03</rscale>
<asrwt>0</asrwt>
<pdfrwt beam="1">  1        1 0.12899280E-01 0.15199132E+03</pdfrwt>
<pdfrwt beam="2">  1       -1 0.36071578E-01 0.15199132E+03</pdfrwt>
<totfact> 0.32727246E+03</totfact>
</mgrwt>
</event>
<event>
 8    1  0.1273312E-005  0.1304211E+03  0.7546771E-02  0.1240029E+00
         -2   -1    0    0    0  501 -0.00000000000E+00  0.00000000000E+00  0.95166180924E+02  0.95166180924E+02  0.00000000000E+00 0.  1.
          2   -1    0    0  501    0  0.00000000000E+00 -0.00000000000E+00 -0.19569945995E+03  0.19569945995E+03  0.00000000000E+00 0. -1.
         23    2    1    2    0    0 -0.23764133414E+02 -0.28633722861E+02  0.32427199432E+02  0.10461805406E+03  0.92243101913E+02 0.  0.
         23    2    1    2    0    0  0.23764133414E+02  0.28633722861E+02 -0.13296047846E+03  0.18624758682E+03  0.12500020256E+03 0.  0.
          5    1    4    4  502    0  0.45011599616E+02  0.30353785754E+02 -0.31170955345E+01  0.54582073011E+02  0.47000000000E+01 0. -1.
         -5    1    4    4    0  502 -0.21247466201E+02 -0.17200628931E+01 -0.12984338293E+03  0.13166551381E+03  0.47000000000E+01 0. -1.
        -11    1    3    3    0    0  0.27790468679E+02  0.73625348180E+01  0.30207103915E+02  0.41701153405E+02  0.00000000000E+00 0.  1.
         11    1    3    3    0    0 -0.51554602094E+02 -0.35996257679E+02  0.22200955172E+01  0.62916900655E+02  0.00000000000E+00 0. -1.
<mgrwt>
<rscale>  0 0.12187911E+03</rscale>
<asrwt>0</asrwt>
<pdfrwt beam="2">  1        2 0.30107609E-01 0.13042114E+03</pdfrwt>
<pdfrwt beam="1">  1       -2 0.14640951E-01 0.13042114E+03</pdfrwt>
<totfact> 0.59157522E+03</totfact>
</mgrwt>
</event>
<event>
 8    1  0.1273312E-005  0.1371440E+03  0.7546771E-02  0.1229234E+00
         -1   -1    0    0    0  501 -0.00000000000E+00  0.00000000000E+00  0.37741678860E+02  0.37741678860E+02  0.00000000000E+00 0.  1.
          1   -1    0    0  501    0  0.00000000000E+00 -0.00000000000E+00 -0.39549348946E+03  0.39549348946E+03  0.00000000000E+00 0. -1.
         23    2    1    2    0    0 -0.88788333169E+00 -0.56359116242E+02 -0.14313294341E+03  0.17853981856E+03  0.90621680625E+02 0.  0.
         23    2    1    2    0    0  0.88788333169E+00  0.56359116242E+02 -0.21461886719E+03  0.25469534976E+03  0.12502529631E+03 0.  0.
          5    1    4    4  502    0 -0.60916237984E+02  0.39959904853E+02 -0.11664266593E+03  0.13760517272E+03  0.47000000000E+01 0. -1.
         -5    1    4    4    0  502  0.61804121316E+02  0.16399211389E+02 -0.97976201259E+02  0.11709017704E+03  0.47000000000E+01 0. -1.
        -11    1    3    3    0    0 -0.41434812013E+02 -0.49231756511E+02 -0.73876365195E+02  0.97971050980E+02  0.00000000000E+00 0.  1.
         11    1    3    3    0    0  0.40546928681E+02 -0.71273597310E+01 -0.69256578218E+02  0.80568767576E+02  0.00000000000E+00 0. -1.
<mgrwt>
<rscale>  0 0.12880871E+03</rscale>
<asrwt>0</asrwt>
<pdfrwt beam="2">  1        1 0.60845151E-01 0.13714395E+03</pdfrwt>
<pdfrwt beam="1">  1       -1 0.58064122E-02 0.13714395E+03</pdfrwt>
<totfact> 0.82285840E+03</totfact>
</mgrwt>
</event>
<event>
 8    1  0.1273312E-005  0.1552756E+03  0.7546771E-02  0.1202472E+00
          2   -1    0    0  501    0  0.00000000000E+00  0.00000000000E+00  0.99019437050E+03  0.99019437050E+03  0.00000000000E+00 0. -1.
         -2   -1    0    0    0  501 -0.00000000000E+00 -0.00000000000E+00 -0.20586370720E+02  0.20586370720E+02  0.00000000000E+00 0.  1.
         23    2    1    2    0    0  0.88037764642E+02 -0.25059905676E+02  0.47833812982E+03  0.49555593243E+03  0.91595135530E+02 0.  0.
         23    2    1    2    0    0 -0.88037764642E+02  0.25059905676E+02  0.49126986996E+03  0.51522480879E+03  0.12542675785E+03 0.  0.
          5    1    4    4  502    0 -0.59792995740E+02 -0.67300219227E+01  0.72759375580E+02  0.94533127894E+02  0.47000000000E+01 0.  1.
         -5    1    4    4    0  502 -0.28244768901E+02  0.31789927599E+02  0.41851049438E+03  0.42069168090E+03  0.47000000000E+01 0.  1.
        -11    1    3    3    0    0  0.10057816753E+03 -0.41128308624E+02  0.41671241935E+03  0.43064689247E+03  0.00000000000E+00 0. -1.
         11    1    3    3    0    0 -0.12540402885E+02  0.16068402948E+02  0.61625710470E+02  0.64909039962E+02  0.00000000000E+00 0.  1.
<mgrwt>
<rscale>  0 0.14838453E+03</rscale>
<asrwt>0</asrwt>
<pdfrwt beam="1">  1        2 0.15233756E+00 0.15527562E+03</pdfrwt>
<pdfrwt beam="2">  1       -2 0.31671347E-02 0.15527562E+03</pdfrwt>
<totfact> 0.10099266E+04</totfact>
</mgrwt>
</event>
<event>
 8    1  0.1273312E-005  0.1380620E+03  0.7546771E-02  0.1227417E+00
          2   -1    0    0  501    0  0.00000000000E+00  0.00000000000E+00  0.67464681597E+02  0.67464681597E+02  0.00000000000E+00 0. -1.
         -2   -1    0    0    0  501 -0.00000000000E+00 -0.00000000000E+00 -0.23899552875E+03  0.23899552875E+03  0.00000000000E+00 0.  1.
         23    2    1    2    0    0  0.50937347238E+02 -0.28960989965E+02 -0.39925937245E+02  0.11572224933E+03  0.91456034476E+02 0.  0.
         23    2    1    2    0    0 -0.50937347238E+02  0.28960989965E+02 -0.13160490991E+03  0.19073796102E+03  0.12501106022E+03 0.  0.
          5    1    4    4  502    0  0.32850621269E+02 -0.21961560425E+02 -0.34606447130E+02  0.52736795855E+02  0.47000000000E+01 0. -1.
         -5    1    4    4    0  502 -0.83787968507E+02  0.50922550390E+02 -0.96998462782E+02  0.13800116516E+03  0.47000000000E+01 0. -1.
        -11    1    3    3    0    0  0.37997653665E+02 -0.27805759315E+02 -0.69197394697E+02  0.83697439435E+02  0.00000000000E+00 0.  1.
         11    1    3    3    0    0  0.12939693573E+02 -0.11552306495E+01  0.29271457451E+02  0.32024809897E+02  0.00000000000E+00 0. -1.
<mgrwt>
<rscale>  0 0.13002584E+03</rscale>
<asrwt>0</asrwt>
<pdfrwt beam="1">  1        2 0.10379182E-01 0.13806201E+03</pdfrwt>
<pdfrwt beam="2">  1       -2 0.36768543E-01 0.13806201E+03</pdfrwt>
<totfact> 0.40911237E+03</totfact>
</mgrwt>
</event>
<event>
 8    1  0.1273312E-005  0.1341765E+03  0.7546771E-02  0.1236186E+00
         -1   -1    0    0    0  501 -0.00000000000E+00  0.00000000000E+00  0.19510121710E+03  0.19510121710E+03  0.00000000000E+00 0.  1.
          1   -1    0    0  501    0  0.00000000000E+00 -0.00000000000E+00 -0.69546598675E+02  0.69546598675E+02  0.00000000000E+00 0. -1.
         23    2    1    2    0    0  0.59974929296E+01  0.48395518991E+02  0.52238197696E+02  0.11174711547E+03  0.85909791860E+02 0.  0.
         23    2    1    2    0    0 -0.59974929296E+01 -0.48395518991E+02  0.73316420730E+02  0.15290070031E+03  0.12500092170E+03 0.  0.
          5    1    4    4  502    0  0.46147420437E+00  0.42167344937E+02  0.15572605251E+02  0.45198384615E+02  0.47000000000E+01 0.  1.
         -5    1    4    4    0  502 -0.64589671340E+01 -0.90562863927E+02  0.57743815479E+02  0.10770231569E+03  0.47000000000E+01 0.  1.
        -11    1    3    3    0    0  0.13783672624E+02 -0.11832214863E+02  0.47474899007E+02  0.50831653281E+02  0.00000000000E+00 0.  1.
         11    1    3    3    0    0 -0.77861796942E+01  0.60227733853E+02  0.47632986893E+01  0.60915462189E+02  0.00000000000E+00 0. -1.
<mgrwt>
<rscale>  0 0.12428842E+03</rscale>
<asrwt>0</asrwt>
<pdfrwt beam="2">  1        1 0.10699477E-01 0.13417648E+03</pdfrwt>
<pdfrwt beam="1">  1       -1 0.30015572E-01 0.13417648E+03</pdfrwt>
<totfact> 0.56816320E+03</totfact>
</mgrwt>
</event>
<event>
 8    1  0.1273312E-005  0.1487961E+03  0.7546771E-02  0.1210986E+00
          1   -1    0    0  501    0  0.00000000000E+00  0.00000000000E+00  0.16640767133E+02  0.16640767133E+02  0.00000000000E+00 0. -1.
         -1   -1    0    0    0  501 -0.00000000000E+00 -0.00000000000E+00 -0.11194241670E+04  0.11194241670E+04  0.00000000000E+00 0.  1.
         23    2    1    2    0    0 -0.79610718291E+02 -0.13296067623E+02 -0.43753411202E+03  0.45437812856E+03  0.92242791901E+02 0.  0.
         23    2    1    2    0    0  0.79610718291E+02  0.13296067623E+02 -0.66524928789E+03  0.68168680561E+03  0.12500253606E+03 0.  0.
          5    1    4    4  502    0 -0.62653517926E+01 -0.12233629849E+02 -0.49882708781E+01  0.15358684146E+02  0.47000000000E+01 0.  1.
         -5    1    4    4    0  502  0.85876070084E+02  0.25529697472E+02 -0.66026101701E+03  0.66632812146E+03  0.47000000000E+01 0.  1.
        -11    1    3    3    0    0 -0.50122638746E+02 -0.51274461084E+02 -0.21272107497E+03  0.22448074530E+03  0.00000000000E+00 0.  1.
         11    1    3    3    0    0 -0.29488079545E+02  0.37978393460E+02 -0.22481303705E+03  0.22989738326E+03  0.00000000000E+00 0. -1.
<mgrwt>
<rscale>  0 0.14175542E+03</rscale>
<asrwt>0</asrwt>
<pdfrwt beam="1">  1        1 0.25601170E-02 0.14879612E+03</pdfrwt>
<pdfrwt beam="2">  1       -1 0.17221917E+00 0.14879612E+03</pdfrwt>
<totfact> 0.10876689E+03</totfact>
</mgrwt>
</event>
<event>
 8    1  0.1273312E-005  0.1419592E+03  0.7546771E-02  0.1221359E+00
          1   -1    0    0  501    0  0.00000000000E+00  0.00000000000E+00  0.11976378457E+03  0.11976378457E+03  0.00000000000E+00 0. -1.
         -1   -1    0    0    0  501 -0.00000000000E+00 -0.00000000000E+00 -0.14367224989E+03  0.14367224989E+03  0.00000000000E+00 0.  1.
         23    2    1    2    0    0 -0.45621197786E+02 -0.49461889775E+02 -0.40787222907E+02  0.12047690436E+03  0.91232202119E+02 0.  0.
         23    2    1    2    0    0  0.45621197786E+02  0.49461889775E+02  0.16878757582E+02  0.14295913011E+03  0.12499859277E+03 0.  0.
          5    1    4    4  502    0 -0.22498705498E+02 -0.28767957995E+02  0.12996901384E+02  0.39048644047E+02  0.47000000000E+01 0.  1.
         -5    1    4    4    0  502  0.68119903284E+02  0.78229847770E+02  0.38818561977E+01  0.10391048606E+03  0.47000000000E+01 0.  1.
        -11    1    3    3    0    0  0.16193842460E+01 -0.57742052971E+02 -0.43692999585E+02  0.72428207898E+02  0.00000000000E+00 0.  1.
         11    1    3    3    0    0 -0.47240582032E+02  0.82801631964E+01  0.29057766780E+01  0.48048696459E+02  0.00000000000E+00 0. -1.
<mgrwt>
<rscale>  0 0.13419619E+03</rscale>
<asrwt>0</asrwt>
<pdfrwt beam="1">  1        1 0.18425198E-01 0.14195922E+03</pdfrwt>
<pdfrwt beam="2">  1       -1 0.22103423E-01 0.14195922E+03</pdfrwt>
<totfact> 0.46596321E+03</totfact>
</mgrwt>
</event>
<event>
 8    1  0.1273312E-005  0.1447027E+03  0.7546771E-02  0.1217257E+00
          2   -1    0    0  501    0  0.00000000000E+00  0.00000000000E+00  0.40263061530E+03  0.40263061530E+03  0.00000000000E+00 0. -1.
         -2   -1    0    0    0  501 -0.00000000000E+00 -0.00000000000E+00 -0.42449645274E+02  0.42449645274E+02  0.00000000000E+00 0.  1.
         23    2    1    2    0    0  0.17045346669E+02 -0.70876784124E+02  0.16661076409E+03  0.20340220025E+03  0.91100197513E+02 0.  0.
         23    2    1    2    0    0 -0.17045346669E+02  0.70876784124E+02  0.19357020594E+03  0.24167806032E+03  0.12499919137E+03 0.  0.
          5    1    4    4  502    0  0.49854482047E+01  0.53424532551E+02  0.86224429334E+01  0.54547886249E+02  0.47000000000E+01 0. -1.
         -5    1    4    4    0  502 -0.22030794874E+02  0.17452251572E+02  0.18494776300E+03  0.18713017407E+03  0.47000000000E+01 0. -1.
        -11    1    3    3    0    0  0.48129033914E+01 -0.42883498370E+02  0.10609404007E+02  0.44437798380E+02  0.00000000000E+00 0.  1.
         11    1    3    3    0    0  0.12232443278E+02 -0.27993285754E+02  0.15600136008E+03  0.15896440187E+03  0.00000000000E+00 0. -1.
<mgrwt>
<rscale>  0 0.13712065E+03</rscale>
<asrwt>0</asrwt>
<pdfrwt beam="1">  1        2 0.61943169E-01 0.14470266E+03</pdfrwt>
<pdfrwt beam="2">  1       -2 0.65307150E-02 0.14470266E+03</pdfrwt>
<totfact> 0.98156340E+03</totfact>
</mgrwt>
</event>
<event>
 7    1  0.1273312E-005  0.1329285E+03  0.7546771E-02  0.1240119E+00
          1   -1    0    0  501    0  0.00000000000E+00  0.00000000000E+00  0.78450780272E+03  0.78450780272E+03  0.00000000000E+00 0. -1.
         -1   -1    0    0    0  501 -0.00000000000E+00 -0.00000000000E+00 -0.20159205871E+02  0.20159205871E+02  0.00000000000E+00 0.  1.
         23    2    1    2    0    0 -0.22998717151E+02 -0.96887421470E+01  0.15640582328E+03  0.18236130289E+03  0.90388331774E+02 0.  0.
          5    1    1    2  502    0 -0.38613805611E+02  0.11041487869E+02  0.46264513926E+03  0.46440882347E+03  0.47000000000E+01 0. -1.
         -5    1    1    2    0  502  0.61612522762E+02 -0.13527457222E+01  0.14529763431E+03  0.15789688223E+03  0.47000000000E+01 0.  1.
        -11    1    3    3    0    0 -0.32835068570E+02 -0.45151725381E+02  0.10775725784E+03  0.12136081184E+03  0.00000000000E+00 0. -1.
         11    1    3    3    0    0  0.98363514196E+01  0.35462983234E+02  0.48648565438E+02  0.61000491050E+02  0.00000000000E+00 0.  1.
<mgrwt>
<rscale>  0 0.12182313E+03</rscale>
<asrwt>0</asrwt>
<pdfrwt beam="1">  1        1 0.12069348E+00 0.13292846E+03</pdfrwt>
<pdfrwt beam="2">  1       -1 0.31014169E-02 0.13292846E+03</pdfrwt>
<totfact> 0.82045738E+03</totfact>
</mgrwt>
</event>
<event>
 7    1  0.1273312E-005  0.2799108E+03  0.7546771E-02  0.1114839E+00
         -2   -1    0    0    0  501 -0.00000000000E+00  0.00000000000E+00  0.40373841794E+03  0.40373841794E+03  0.00000000000E+00 0.  1.
          2   -1    0    0  501    0  0.00000000000E+00 -0.00000000000E+00 -0.30114378933E+03  0.30114378933E+03  0.00000000000E+00 0. -1.
         23    2    1    2    0    0  0.88433933945E+02  0.11686557566E+03  0.31156486441E+03  0.35557060020E+03  0.88767468971E+02 0.  0.
          5    1    1    2  502    0  0.15416318716E+02 -0.12813672871E+03 -0.20789184775E+03  0.24474025923E+03  0.47000000000E+01 0. -1.
         -5    1    1    2    0  502 -0.10385025266E+03  0.11271153046E+02 -0.10783880515E+01  0.10457134784E+03  0.47000000000E+01 0.  1.
        -11    1    3    3    0    0  0.10149320062E+03  0.10038759838E+03  0.29833279357E+03  0.33072797795E+03  0.00000000000E+00 0.  1.
         11    1    3    3    0    0 -0.13059266679E+02  0.16477977285E+02  0.13232070833E+02  0.24842622247E+02  0.00000000000E+00 0. -1.
<mgrwt>
<rscale>  0 0.24758830E+03</rscale>
<asrwt>0</asrwt>
<pdfrwt beam="2">  1        2 0.46329814E-01 0.27991077E+03</pdfrwt>
<pdfrwt beam="1">  1       -2 0.62113602E-01 0.27991077E+03</pdfrwt>
<totfact> 0.26946881E+02</totfact>
</mgrwt>
</event>
<event>
 8    1  0.1273312E-005  0.1306374E+03  0.7546771E-02  0.1239548E+00
          1   -1    0    0  501    0  0.00000000000E+00  0.00000000000E+00  0.19119777598E+03  0.19119777598E+03  0.00000000000E+00 0. -1.
         -1   -1    0    0    0  501 -0.00000000000E+00 -0.00000000000E+00 -0.71601209922E+02  0.71601209922E+02  0.00000000000E+00 0.  1.
         23    2    1    2    0    0  0.33258174051E+02  0.18280638806E+02  0.29860376090E+02  0.10431010364E+03  0.92459005858E+02 0.  0.
         23    2    1    2    0    0 -0.33258174051E+02 -0.18280638806E+02  0.89736189967E+02  0.15848888226E+03  0.12500341641E+03 0.  0.
          5    1    4    4  502    0 -0.34300146141E+02 -0.68101540107E+02  0.34130312087E+02  0.83673699532E+02  0.47000000000E+01 0.  1.
         -5    1    4    4    0  502  0.10419720901E+01  0.49820901301E+02  0.55605877880E+02  0.74815182731E+02  0.47000000000E+01 0.  1.
        -11    1    3    3    0    0  0.51732199159E+02 -0.16278445480E+01  0.48850146241E+02  0.71170268339E+02  0.00000000000E+00 0. -1.
         11    1    3    3    0    0 -0.18474025109E+02  0.19908483354E+02 -0.18989770151E+02  0.33139835298E+02  0.00000000000E+00 0.  1.
<mgrwt>
<rscale>  0 0.12217737E+03</rscale>
<asrwt>0</asrwt>
<pdfrwt beam="1">  1        1 0.29415042E-01 0.13063744E+03</pdfrwt>
<pdfrwt beam="2">  1       -1 0.11015571E-01 0.13063744E+03</pdfrwt>
<totfact> 0.76907198E+03</totfact>
</mgrwt>
</event>
<event>
 7    1  0.1273312E-005  0.1418342E+03  0.7546771E-02  0.1227263E+00
         -2   -1    0    0    0  501 -0.00000000000E+00  0.00000000000E+00  0.16662640971E+03  0.16662640971E+03  0.00000000000E+00 0.  1.
          2   -1    0    0  501    0  0.00000000000E+00 -0.00000000000E+00 -0.89015493842E+02  0.89015493842E+02  0.00000000000E+00 0. -1.
         23    2    1    2    0    0 -0.13544388185E+01  0.42637012773E+02  0.44960705066E+02  0.11009820643E+03  0.90996707057E+02 0.  0.
          5    1    1    2  502    0 -0.29415250853E+02  0.33943805244E+02 -0.17977009714E+02  0.48607630836E+02  0.47000000000E+01 0. -1.
         -5    1    1    2    0  502  0.30769689672E+02 -0.76580818018E+02  0.50627220516E+02  0.96936066291E+02  0.47000000000E+01 0.  1.
        -11    1    3    3    0    0  0.73740573535E+01  0.51478459263E+02 -0.10678305910E+02  0.53088932058E+02  0.00000000000E+00 0.  1.
         11    1    3    3    0    0 -0.87284961720E+01 -0.88414464897E+01  0.55639010976E+02  0.57009274367E+02  0.00000000000E+00 0. -1.
<mgrwt>
<rscale>  0 0.13012976E+03</rscale>
<asrwt>0</asrwt>
<pdfrwt beam="2">  1        2 0.13694691E-01 0.14183417E+03</pdfrwt>
<pdfrwt beam="1">  1       -2 0.25634832E-01 0.14183417E+03</pdfrwt>
<totfact> 0.56332940E+03</totfact>
</mgrwt>
</event>
<event>
 8    1  0.1273312E-005  0.1125123E+03  0.7546771E-02  0.1263737E+00
          1   -1    0    0  501    0  0.00000000000E+00  0.00000000000E+00  0.70185548983E+02  0.70185548983E+02  0.00000000000E+00 0. -1.
         -1   -1    0    0    0  501 -0.00000000000E+00 -0.00000000000E+00 -0.15785252931E+03  0.15785252931E+03  0.00000000000E+00 0.  1.
         23    2    1    2    0    0 -0.43602256980E+01 -0.10835005520E+02 -0.27501718894E+02  0.10044940072E+03  0.95902704077E+02 0.  0.
         23    2    1    2    0    0  0.43602256980E+01  0.10835005520E+02 -0.60165261436E+02  0.12758867758E+03  0.11190443713E+03 0.  0.
          5    1    4    4  502    0 -0.28372490262E+02 -0.41345483881E+02 -0.32196747892E+02  0.59775980258E+02  0.47000000000E+01 0. -1.
         -5    1    4    4    0  502  0.32732715960E+02  0.52180489402E+02 -0.27968513544E+02  0.67812697323E+02  0.47000000000E+01 0.  1.
        -11    1    3    3    0    0  0.32952291742E+02  0.22313202142E+01 -0.46139436514E+02  0.56742223456E+02  0.00000000000E+00 0.  1.
         11    1    3    3    0    0 -0.37312517440E+02 -0.13066325735E+02  0.18637717620E+02  0.43707177259E+02  0.00000000000E+00 0. -1.
<mgrwt>
<rscale>  0 0.10830709E+03</rscale>
<asrwt>0</asrwt>
<pdfrwt beam="1">  1        1 0.10797777E-01 0.11251227E+03</pdfrwt>
<pdfrwt beam="2">  1       -1 0.24285004E-01 0.11251227E+03</pdfrwt>
<totfact> 0.78633389E+03</totfact>
</mgrwt>
</event>
<event>
 8    1  0.1273312E-005  0.1436087E+03  0.7546771E-02  0.1219028E+00
         -1   -1    0    0    0  501 -0.00000000000E+00  0.00000000000E+00  0.53379411585E+03  0.53379411585E+03  0.00000000000E+00 0.  1.
          1   -1    0    0  501    0  0.00000000000E+00 -0.00000000000E+00 -0.32016915654E+02  0.32016915654E+02  0.00000000000E+00 0. -1.
         23    2    1    2    0    0 -0.52897794491E+02  0.46919856283E+02  0.26521470438E+03  0.28907057394E+03  0.90682455445E+02 0.  0.
         23    2    1    2    0    0  0.52897794491E+02 -0.46919856283E+02  0.23656249582E+03  0.27674045756E+03  0.12499526730E+03 0.  0.
          5    1    4    4  502    0  0.80508736028E+02 -0.68287964816E+02  0.19850724839E+03  0.22488245903E+03  0.47000000000E+01 0. -1.
         -5    1    4    4    0  502 -0.27610941537E+02  0.21368108533E+02  0.38055247426E+02  0.51857998530E+02  0.47000000000E+01 0. -1.
        -11    1    3    3    0    0  0.20712743655E+02  0.23812712842E+02  0.39656649753E+02  0.50682471450E+02  0.00000000000E+00 0. -1.
         11    1    3    3    0    0 -0.73610538146E+02  0.23107143442E+02  0.22555805462E+03  0.23838810249E+03  0.00000000000E+00 0.  1.
<mgrwt>
<rscale>  0 0.13584751E+03</rscale>
<asrwt>0</asrwt>
<pdfrwt beam="2">  1        1 0.49256797E-02 0.14360873E+03</pdfrwt>
<pdfrwt beam="1">  1       -1 0.82122165E-01 0.14360873E+03</pdfrwt>
<totfact> 0.25451309E+03</totfact>
</mgrwt>
</event>
<event>
 8    1  0.1273312E-005  0.1315241E+03  0.7546771E-02  0.1239554E+00
         -2   -1    0    0    0  501 -0.00000000000E+00  0.00000000000E+00  0.47706908644E+03  0.47706908644E+03  0.00000000000E+00 0.  1.
          2   -1    0    0  501    0  0.00000000000E+00 -0.00000000000E+00 -0.28290798140E+02  0.28290798140E+02  0.00000000000E+00 0. -1.
         23    2    1    2    0    0 -0.31767198461E+02  0.25754540564E+02  0.15295156095E+03  0.18161301533E+03  0.88975592628E+02 0.  0.
         23    2    1    2    0    0  0.31767198461E+02 -0.25754540564E+02  0.29582672736E+03  0.32374686925E+03  0.12500452582E+03 0.  0.
          5    1    4    4  502    0  0.18565639300E+02  0.50164771331E+02  0.10608206797E+03  0.11889778126E+03  0.47000000000E+01 0. -1.
         -5    1    4    4    0  502  0.13201559162E+02 -0.75919311895E+02  0.18974465939E+03  0.20484908799E+03  0.47000000000E+01 0. -1.
        -11    1    3    3    0    0  0.14552019101E+02  0.61670450750E+01 -0.44117386051E+01  0.16409056719E+02  0.00000000000E+00 0. -1.
         11    1    3    3    0    0 -0.46319217562E+02  0.19587495489E+02  0.15736329955E+03  0.16520395861E+03  0.00000000000E+00 0.  1.
<mgrwt>
<rscale>  0 0.12217328E+03</rscale>
<asrwt>0</asrwt>
<pdfrwt beam="2">  1        2 0.43524308E-02 0.13152408E+03</pdfrwt>
<pdfrwt beam="1">  1       -2 0.73395238E-01 0.13152408E+03</pdfrwt>
<totfact> 0.31019114E+03</totfact>
</mgrwt>
</event>
<event>
 8    1  0.1273312E-005  0.1685754E+03  0.7546771E-02  0.1185832E+00
          2   -1    0    0  501    0  0.00000000000E+00  0.00000000000E+00  0.40701790550E+03  0.40701790550E+03  0.00000000000E+00 0. -1.
         -2   -1    0    0    0  501 -0.00000000000E+00 -0.00000000000E+00 -0.60952442067E+02  0.60952442067E+02  0.00000000000E+00 0.  1.
         23    2    1    2    0    0  0.10270421601E+03  0.47376711116E+02  0.14549095377E+03  0.20596312453E+03  0.91980880053E+02 0.  0.
         23    2    1    2    0    0 -0.10270421601E+03 -0.47376711116E+02  0.20057450967E+03  0.26200722304E+03  0.12499976902E+03 0.  0.
          5    1    4    4  502    0 -0.12615648090E+03 -0.39924211743E+02  0.19601243391E+03  0.23654252177E+03  0.47000000000E+01 0.  1.
         -5    1    4    4    0  502  0.23452264896E+02 -0.74524993738E+01  0.45620757584E+01  0.25464701272E+02  0.47000000000E+01 0.  1.
        -11    1    3    3    0    0  0.49150403128E+01  0.29978006046E+02  0.83564054883E+02  0.88914508019E+02  0.00000000000E+00 0.  1.
         11    1    3    3    0    0  0.97789175696E+02  0.17398705070E+02  0.61926898884E+02  0.11704861651E+03  0.00000000000E+00 0. -1.
<mgrwt>
<rscale>  0 0.16256370E+03</rscale>
<asrwt>0</asrwt>
<pdfrwt beam="1">  1        2 0.62618138E-01 0.16857536E+03</pdfrwt>
<pdfrwt beam="2">  1       -2 0.93772990E-02 0.16857536E+03</pdfrwt>
<totfact> 0.55939679E+03</totfact>
</mgrwt>
</event>
<event>
 8    1  0.1273312E-005  0.1862849E+03  0.7546771E-02  0.1166991E+00
          1   -1    0    0  501    0  0.00000000000E+00  0.00000000000E+00  0.56475191971E+03  0.56475191971E+03  0.00000000000E+00 0. -1.
         -1   -1    0    0    0  501 -0.00000000000E+00 -0.00000000000E+00 -0.64584386350E+02  0.64584386350E+02  0.00000000000E+00 0.  1.
         23    2    1    2    0    0  0.10829994681E+03  0.85716628344E+02  0.11501248619E+03  0.20149700352E+03  0.91087603956E+02 0.  0.
         23    2    1    2    0    0 -0.10829994681E+03 -0.85716628344E+02  0.38515504716E+03  0.42783930253E+03  0.12500335829E+03 0.  0.
          5    1    4    4  502    0  0.40762649646E+01 -0.26132866485E+02  0.20784819417E+03  0.20957696550E+03  0.47000000000E+01 0.  1.
         -5    1    4    4    0  502 -0.11237621178E+03 -0.59583761859E+02  0.17730685299E+03  0.21826233704E+03  0.47000000000E+01 0.  1.
        -11    1    3    3    0    0  0.58847292465E+02  0.97790006458E+02  0.85995714970E+02  0.14290259685E+03  0.00000000000E+00 0.  1.
         11    1    3    3    0    0  0.49452654346E+02 -0.12073378114E+02  0.29016771222E+02  0.58594406671E+02  0.00000000000E+00 0. -1.
<mgrwt>
<rscale>  0 0.18084181E+03</rscale>
<asrwt>0</asrwt>
<pdfrwt beam="1">  1        1 0.86884908E-01 0.18628489E+03</pdfrwt>
<pdfrwt beam="2">  1       -1 0.99360598E-02 0.18628489E+03</pdfrwt>
<totfact> 0.23306415E+03</totfact>
</mgrwt>
</event>
<event>
 8    1  0.1273312E-005  0.1353395E+03  0.7546771E-02  0.1230718E+00
          1   -1    0    0  501    0  0.00000000000E+00  0.00000000000E+00  0.32517885013E+03  0.32517885013E+03  0.00000000000E+00 0. -1.
         -1   -1    0    0    0  501 -0.00000000000E+00 -0.00000000000E+00 -0.65567772807E+02  0.65567772807E+02  0.00000000000E+00 0.  1.
         23    2    1    2    0    0 -0.11002145248E+02  0.50701004023E+02  0.11741303976E+02  0.10833518854E+03  0.94376987919E+02 0.  0.
         23    2    1    2    0    0  0.11002145248E+02 -0.50701004023E+02  0.24786977335E+03  0.28241143440E+03  0.12500061891E+03 0.  0.
          5    1    4    4  502    0 -0.14902292734E+01 -0.65505080652E+02  0.25335919812E+03  0.26173671819E+03  0.47000000000E+01 0. -1.
         -5    1    4    4    0  502  0.12492374522E+02  0.14804076629E+02 -0.54894247716E+01  0.20674716210E+02  0.47000000000E+01 0. -1.
        -11    1    3    3    0    0  0.25057480710E+02  0.61714680278E+02 -0.55834820130E+01  0.66841262501E+02  0.00000000000E+00 0.  1.
         11    1    3    3    0    0 -0.36059625958E+02 -0.11013676254E+02  0.17324785989E+02  0.41493926043E+02  0.00000000000E+00 0. -1.
<mgrwt>
<rscale>  0 0.12782609E+03</rscale>
<asrwt>0</asrwt>
<pdfrwt beam="1">  1        1 0.50027514E-01 0.13533955E+03</pdfrwt>
<pdfrwt beam="2">  1       -1 0.10087350E-01 0.13533955E+03</pdfrwt>
<totfact> 0.45704565E+03</totfact>
</mgrwt>
</event>
<event>
 8    1  0.1273312E-005  0.1437708E+03  0.7546771E-02  0.1218841E+00
         -1   -1    0    0    0  501 -0.00000000000E+00  0.00000000000E+00  0.47347677592E+02  0.47347677592E+02  0.00000000000E+00 0.  1.
          1   -1    0    0  501    0  0.00000000000E+00 -0.00000000000E+00 -0.98351308624E+03  0.98351308624E+03  0.00000000000E+00 0. -1.
         23    2    1    2    0    0 -0.70214077594E+02 -0.10818352372E+02 -0.37862435417E+02  0.12112549318E+03  0.90502859856E+02 0.  0.
         23    2    1    2    0    0  0.70214077594E+02  0.10818352372E+02 -0.89830297323E+03  0.90973527065E+03  0.12499190979E+03 0.  0.
          5    1    4    4  502    0  0.12671064771E+02  0.60998511982E+02 -0.29083717139E+03  0.29747222494E+03  0.47000000000E+01 0.  1.
         -5    1    4    4    0  502  0.57543012823E+02 -0.50180159609E+02 -0.60746580183E+03  0.61226304571E+03  0.47000000000E+01 0.  1.
        -11    1    3    3    0    0 -0.41882355664E+02  0.34130921731E+02  0.29777403299E+01  0.54110243685E+02  0.00000000000E+00 0.  1.
         11    1    3    3    0    0 -0.28331721930E+02 -0.44949274103E+02 -0.40840175747E+02  0.67015249496E+02  0.00000000000E+00 0. -1.
<mgrwt>
<rscale>  0 0.13598155E+03</rscale>
<asrwt>0</asrwt>
<pdfrwt beam="2">  1        1 0.15130969E+00 0.14377076E+03</pdfrwt>
<pdfrwt beam="1">  1       -1 0.72842589E-02 0.14377076E+03</pdfrwt>
<totfact> 0.16297914E+03</totfact>
</mgrwt>
</event>
<event>
 8    1  0.1273312E-005  0.1476699E+03  0.7546771E-02  0.1212490E+00
         -2   -1    0    0    0  501 -0.00000000000E+00  0.00000000000E+00  0.25535852015E+02  0.25535852015E+02  0.00000000000E+00 0.  1.
          2   -1    0    0  501    0  0.00000000000E+00 -0.00000000000E+00 -0.90891905968E+03  0.90891905968E+03  0.00000000000E+00 0. -1.
         23    2    1    2    0    0  0.61026703174E+02  0.49557953066E+02 -0.18981678248E+03  0.22534223183E+03  0.92565983604E+02 0.  0.
         23    2    1    2    0    0 -0.61026703174E+02 -0.49557953066E+02 -0.69356642518E+03  0.70911267987E+03  0.12500462950E+03 0.  0.
          5    1    4    4  502    0 -0.32434006682E+02 -0.23770486885E+02 -0.64803528321E+03  0.64929871332E+03  0.47000000000E+01 0. -1.
         -5    1    4    4    0  502 -0.28592696493E+02 -0.25787466181E+02 -0.45531141975E+02  0.59813966549E+02  0.47000000000E+01 0. -1.
        -11    1    3    3    0    0  0.66799892941E+02  0.25999645700E+02 -0.60588031270E+02  0.93856895360E+02  0.00000000000E+00 0. -1.
         11    1    3    3    0    0 -0.57731897668E+01  0.23558307366E+02 -0.12922875121E+03  0.13148533647E+03  0.00000000000E+00 0.  1.
<mgrwt>
<rscale>  0 0.14062525E+03</rscale>
<asrwt>0</asrwt>
<pdfrwt beam="2">  1        2 0.13983370E+00 0.14766992E+03</pdfrwt>
<pdfrwt beam="1">  1       -2 0.39285927E-02 0.14766992E+03</pdfrwt>
<totfact> 0.82129489E+03</totfact>
</mgrwt>
</event>
<event>
 8    1  0.1273312E-005  0.1406973E+03  0.7546771E-02  0.1227649E+00
          1   -1    0    0  501    0  0.00000000000E+00  0.00000000000E+00  0.73737493718E+03  0.73737493718E+03  0.00000000000E+00 0. -1.
         -1   -1    0    0    0  501 -0.00000000000E+00 -0.00000000000E+00 -0.22027159028E+02  0.22027159028E+02  0.00000000000E+00 0.  1.
         23    2    1    2    0    0  0.37367803259E+02  0.52686562000E+02  0.19204771858E+03  0.21751771353E+03  0.79116388648E+02 0.  0.
         23    2    1    2    0    0 -0.37367803259E+02 -0.52686562000E+02  0.52330005957E+03  0.54188438268E+03  0.12499402108E+03 0.  0.
          5    1    4    4  502    0 -0.63689745375E+02 -0.54626231814E+02  0.19306015212E+03  0.21055811835E+03  0.47000000000E+01 0.  1.
         -5    1    4    4    0  502  0.26321942116E+02  0.19396698141E+01  0.33023990746E+03  0.33132626433E+03  0.47000000000E+01 0.  1.
        -11    1    3    3    0    0 -0.13416609140E+02  0.42059695906E+02  0.52258553993E+02  0.68410378496E+02  0.00000000000E+00 0.  1.
         11    1    3    3    0    0  0.50784412399E+02  0.10626866094E+02  0.13978916459E+03  0.14910733504E+03  0.00000000000E+00 0. -1.
<mgrwt>
<rscale>  0 0.12986985E+03</rscale>
<asrwt>0</asrwt>
<pdfrwt beam="1">  1        1 0.11344228E+00 0.14069731E+03</pdfrwt>
<pdfrwt beam="2">  1       -1 0.33887943E-02 0.14069731E+03</pdfrwt>
<totfact> 0.79247980E+03</totfact>
</mgrwt>
</event>
<event>
 8    1  0.1273312E-005  0.1261532E+03  0.7546771E-02  0.1248443E+00
         -2   -1    0    0    0  501 -0.00000000000E+00  0.00000000000E+00  0.27006065656E+02  0.27006065656E+02  0.00000000000E+00 0.  1.
          2   -1    0    0  501    0  0.00000000000E+00 -0.00000000000E+00 -0.52002525829E+03  0.52002525829E+03  0.00000000000E+00 0. -1.
         23    2    1    2    0    0  0.17008763677E+02  0.94220008005E+00 -0.11061241814E+03  0.14435333101E+03  0.91173413579E+02 0.  0.
         23    2    1    2    0    0 -0.17008763677E+02 -0.94220008005E+00 -0.38240677450E+03  0.40267799294E+03  0.12499775611E+03 0.  0.
          5    1    4    4  502    0 -0.58540740733E+02 -0.38283549873E+02 -0.21234132720E+03  0.22361479771E+03  0.47000000000E+01 0.  1.
         -5    1    4    4    0  502  0.41531977056E+02  0.37341349793E+02 -0.17006544730E+03  0.17906319523E+03  0.47000000000E+01 0.  1.
        -11    1    3    3    0    0 -0.18610773930E+02 -0.81478137946E+01  0.67185722235E+01  0.21398294059E+02  0.00000000000E+00 0.  1.
         11    1    3    3    0    0  0.35619537608E+02  0.90900138747E+01 -0.11733099036E+03  0.12295503695E+03  0.00000000000E+00 0. -1.
<mgrwt>
<rscale>  0 0.11681631E+03</rscale>
<asrwt>0</asrwt>
<pdfrwt beam="2">  1        2 0.80003879E-01 0.12615318E+03</pdfrwt>
<pdfrwt beam="1">  1       -2 0.41547797E-02 0.12615318E+03</pdfrwt>
<totfact> 0.14538370E+04</totfact>
</mgrwt>
</event>
<event>
 8    1  0.1273312E-005  0.1288374E+03  0.7546771E-02  0.1236552E+00
          1   -1    0    0  501    0  0.00000000000E+00  0.00000000000E+00  0.62314108881E+02  0.62314108881E+02  0.00000000000E+00 0. -1.
         -1   -1    0    0    0  501 -0.00000000000E+00 -0.00000000000E+00 -0.23079728395E+03  0.23079728395E+03  0.00000000000E+00 0.  1.
         23    2    1    2    0    0 -0.10230586743E+02 -0.29512878668E+02 -0.84729149127E+02  0.13944356259E+03  0.10625348711E+03 0.  0.
         23    2    1    2    0    0  0.10230586743E+02  0.29512878668E+02 -0.83754025944E+02  0.15366783025E+03  0.12499356095E+03 0.  0.
          5    1    4    4  502    0  0.13213845777E+02  0.30403429471E+02 -0.11610135705E+03  0.12083289847E+03  0.47000000000E+01 0. -1.
         -5    1    4    4    0  502 -0.29832590340E+01 -0.89055080349E+00  0.32347331105E+02  0.32834931777E+02  0.47000000000E+01 0. -1.
        -11    1    3    3    0    0 -0.22391582306E+02 -0.48783003252E+02 -0.20864636972E+01  0.53717014951E+02  0.00000000000E+00 0. -1.
         11    1    3    3    0    0  0.12160995563E+02  0.19270124585E+02 -0.82642685429E+02  0.85726547636E+02  0.00000000000E+00 0.  1.
<mgrwt>
<rscale>  0 0.12405576E+03</rscale>
<asrwt>0</asrwt>
<pdfrwt beam="1">  1        1 0.95867858E-02 0.12883736E+03</pdfrwt>
<pdfrwt beam="2">  1       -1 0.35507275E-01 0.12883736E+03</pdfrwt>
<totfact> 0.49259612E+03</totfact>
</mgrwt>
</event>
<event>
 8    1  0.1273312E-005  0.1421561E+03  0.7546771E-02  0.1220651E+00
         -2   -1    0    0    0  501 -0.00000000000E+00  0.00000000000E+00  0.29134483648E+02  0.29134483648E+02  0.00000000000E+00 0.  1.
          2   -1    0    0  501    0  0.00000000000E+00 -0.00000000000E+00 -0.57039003399E+03  0.57039003399E+03  0.00000000000E+00 0. -1.
         23    2    1    2    0    0  0.51252809147E+02 -0.44237626597E+02 -0.21448135753E+03  0.24316832555E+03  0.92437891424E+02 0.  0.
         23    2    1    2    0    0 -0.51252809147E+02  0.44237626597E+02 -0.32677419281E+03  0.35635619209E+03  0.12499817798E+03 0.  0.
          5    1    4    4  502    0 -0.58593294548E+02  0.79717507631E+02 -0.18380587797E+03  0.20879354867E+03  0.47000000000E+01 0. -1.
         -5    1    4    4    0  502  0.73404854009E+01 -0.35479881034E+02 -0.14296831485E+03  0.14756264342E+03  0.47000000000E+01 0. -1.
        -11    1    3    3    0    0  0.51916776791E+02 -0.65600164245E+02 -0.11989259764E+03  0.14619496650E+03  0.00000000000E+00 0.  1.
         11    1    3    3    0    0 -0.66396764468E+00  0.21362537648E+02 -0.94588759892E+02  0.96973359051E+02  0.00000000000E+00 0. -1.
<mgrwt>
<rscale>  0 0.13469498E+03</rscale>
<asrwt>0</asrwt>
<pdfrwt beam="2">  1        2 0.87752316E-01 0.14215612E+03</pdfrwt>
<pdfrwt beam="1">  1       -2 0.44822281E-02 0.14215612E+03</pdfrwt>
<totfact> 0.11818465E+04</totfact>
</mgrwt>
</event>
<event>
 8    1  0.1273312E-005  0.1120650E+03  0.7546771E-02  0.1267725E+00
         -2   -1    0    0    0  501 -0.00000000000E+00  0.00000000000E+00  0.23049384261E+03  0.23049384261E+03  0.00000000000E+00 0.  1.
          2   -1    0    0  501    0  0.00000000000E+00 -0.00000000000E+00 -0.44569178174E+02  0.44569178174E+02  0.00000000000E+00 0. -1.
         23    2    1    2    0    0 -0.56412249808E+01  0.49643465145E+01  0.77345712792E+02  0.11902469272E+03  0.90155698848E+02 0.  0.
         23    2    1    2    0    0  0.56412249808E+01 -0.49643465145E+01  0.10857895165E+03  0.15603832807E+03  0.11181280306E+03 0.  0.
          5    1    4    4  502    0  0.45403356518E+02  0.11888869439E+02  0.98663104565E+01  0.48189667790E+02  0.47000000000E+01 0. -1.
         -5    1    4    4    0  502 -0.39762131538E+02 -0.16853215954E+02  0.98712641192E+02  0.10784866028E+03  0.47000000000E+01 0.  1.
        -11    1    3    3    0    0 -0.14278247690E+02 -0.35137434534E+02  0.84752935918E+01  0.38863070699E+02  0.00000000000E+00 0.  1.
         11    1    3    3    0    0  0.86370227095E+01  0.40101781048E+02  0.68870419200E+02  0.80161622023E+02  0.00000000000E+00 0. -1.
<mgrwt>
<rscale>  0 0.10622500E+03</rscale>
<asrwt>0</asrwt>
<pdfrwt beam="2">  1        2 0.68567968E-02 0.11206503E+03</pdfrwt>
<pdfrwt beam="1">  1       -2 0.35460591E-01 0.11206503E+03</pdfrwt>
<totfact> 0.72155059E+03</totfact>
</mgrwt>
</event>
<event>
 8    1  0.1273312E-005  0.2229246E+03  0.7546771E-02  0.1135070E+00
         -1   -1    0    0    0  501 -0.00000000000E+00  0.00000000000E+00  0.58312633923E+03  0.58312633923E+03  0.00000000000E+00 0.  1.
          1   -1    0    0  501    0  0.00000000000E+00 -0.00000000000E+00 -0.81720813984E+02  0.81720813984E+02  0.00000000000E+00 0. -1.
         23    2    1    2    0    0  0.17959050124E+03  0.42637012816E+02  0.30507579590E+03  0.36779376092E+03  0.90168433132E+02 0.  0.
         23    2    1    2    0    0 -0.17959050124E+03 -0.42637012816E+02  0.19632972935E+03  0.29705339229E+03  0.12499876898E+03 0.  0.
          5    1    4    4  502    0 -0.19038787272E+03 -0.22669567757E+02  0.14404236598E+03  0.23985775906E+03  0.47000000000E+01 0. -1.
         -5    1    4    4    0  502  0.10797371478E+02 -0.19967445060E+02  0.52287363369E+02  0.57195633235E+02  0.47000000000E+01 0. -1.
        -11    1    3    3    0    0  0.25403659030E+02 -0.26247790771E+02  0.56519157583E+02  0.67295672865E+02  0.00000000000E+00 0.  1.
         11    1    3    3    0    0  0.15418684221E+03  0.68884803587E+02  0.24855663831E+03  0.30049808806E+03  0.00000000000E+00 0. -1.
<mgrwt>
<rscale>  0 0.21841566E+03</rscale>
<asrwt>0</asrwt>
<pdfrwt beam="2">  1        1 0.12572433E-01 0.22292455E+03</pdfrwt>
<pdfrwt beam="1">  1       -1 0.89711742E-01 0.22292455E+03</pdfrwt>
<totfact> 0.60312031E+02</totfact>
</mgrwt>
</event>
<event>
 8    1  0.2989439E-005  0.3045019E+03  0.7546771E-02  0.1084579E+00
          2   -1    0    0  501    0  0.00000000000E+00  0.00000000000E+00  0.44725322990E+03  0.44725322990E+03  0.00000000000E+00 0. -1.
         -2   -1    0    0    0  501 -0.00000000000E+00 -0.00000000000E+00 -0.22400425828E+03  0.22400425828E+03  0.00000000000E+00 0.  1.
         23    2    1    2    0    0  0.19047856841E+02 -0.27700864414E+03 -0.28107657425E+01  0.29201559055E+03  0.90380279616E+02 0.  0.
         23    2    1    2    0    0 -0.19047856841E+02  0.27700864414E+03  0.22605973736E+03  0.37924189764E+03  0.12499920915E+03 0.  0.
          5    1    4    4  502    0 -0.49411042623E+02  0.50605643794E+02  0.85204646309E+02  0.11083457976E+03  0.47000000000E+01 0.  1.
         -5    1    4    4    0  502  0.30363185783E+02  0.22640300034E+03  0.14085509105E+03  0.26840731788E+03  0.47000000000E+01 0.  1.
        -11    1    3    3    0    0  0.40589563079E+02 -0.11582042052E+03 -0.31919013672E+02  0.12680972311E+03  0.00000000000E+00 0.  1.
         11    1    3    3    0    0 -0.21541706239E+02 -0.16118822362E+03  0.29108247930E+02  0.16520586744E+03  0.00000000000E+00 0. -1.
<mgrwt>
<rscale>  0 0.30132766E+03</rscale>
<asrwt>0</asrwt>
<pdfrwt beam="1">  1        2 0.68808189E-01 0.30450191E+03</pdfrwt>
<pdfrwt beam="2">  1       -2 0.34462194E-01 0.30450191E+03</pdfrwt>
<totfact> 0.56013919E+02</totfact>
</mgrwt>
</event>
<event>
 8    1  0.1273312E-005  0.1316471E+03  0.7546771E-02  0.1238127E+00
          2   -1    0    0  501    0  0.00000000000E+00  0.00000000000E+00  0.14871998798E+03  0.14871998798E+03  0.00000000000E+00 0. -1.
         -2   -1    0    0    0  501 -0.00000000000E+00 -0.00000000000E+00 -0.10226057986E+03  0.10226057986E+03  0.00000000000E+00 0.  1.
         23    2    1    2    0    0 -0.40819117861E+02 -0.62710569075E+01 -0.21538020249E+02  0.10280968568E+03  0.91653797611E+02 0.  0.
         23    2    1    2    0    0  0.40819117861E+02  0.62710569075E+01  0.67997428365E+02  0.14817088216E+03  0.12500173406E+03 0.  0.
          5    1    4    4  502    0  0.76126775429E+01 -0.58246324383E+02  0.31027468932E+02  0.66598656082E+02  0.47000000000E+01 0. -1.
         -5    1    4    4    0  502  0.33206440318E+02  0.64517381291E+02  0.36969959433E+02  0.81572226081E+02  0.47000000000E+01 0. -1.
        -11    1    3    3    0    0  0.12079058416E+02  0.32230642619E+02 -0.17824860672E+01  0.34465856038E+02  0.00000000000E+00 0.  1.
         11    1    3    3    0    0 -0.52898176277E+02 -0.38501699526E+02 -0.19755534181E+02  0.68343829646E+02  0.00000000000E+00 0. -1.
<mgrwt>
<rscale>  0 0.12306388E+03</rscale>
<asrwt>0</asrwt>
<pdfrwt beam="1">  1        2 0.22879998E-01 0.13164710E+03</pdfrwt>
<pdfrwt beam="2">  1       -2 0.15732397E-01 0.13164710E+03</pdfrwt>
<totfact> 0.71116637E+03</totfact>
</mgrwt>
</event>
<event>
 8    1  0.1273312E-005  0.1310510E+03  0.7546771E-02  0.1239048E+00
          2   -1    0    0  501    0  0.00000000000E+00  0.00000000000E+00  0.62487755194E+03  0.62487755194E+03  0.00000000000E+00 0. -1.
         -2   -1    0    0    0  501 -0.00000000000E+00 -0.00000000000E+00 -0.22185516117E+02  0.22185516117E+02  0.00000000000E+00 0.  1.
         23    2    1    2    0    0  0.34022892140E+02  0.19842743146E+02  0.20052749480E+03  0.22408472689E+03  0.91931479986E+02 0.  0.
         23    2    1    2    0    0 -0.34022892140E+02 -0.19842743146E+02  0.40216454103E+03  0.42297834117E+03  0.12499226932E+03 0.  0.
          5    1    4    4  502    0 -0.24423081692E+02  0.18474360716E+02  0.16185799929E+02  0.34955100379E+02  0.47000000000E+01 0.  1.
         -5    1    4    4    0  502 -0.95998104481E+01 -0.38317103861E+02  0.38597874110E+03  0.38802324079E+03  0.47000000000E+01 0.  1.
        -11    1    3    3    0    0  0.53743533423E+02  0.32137278560E+02  0.18697567648E+03  0.19718284827E+03  0.00000000000E+00 0. -1.
         11    1    3    3    0    0 -0.19720641284E+02 -0.12294535415E+02  0.13551818321E+02  0.26901878624E+02  0.00000000000E+00 0.  1.
<mgrwt>
<rscale>  0 0.12248835E+03</rscale>
<asrwt>0</asrwt>
<pdfrwt beam="1">  1        2 0.96134994E-01 0.13105098E+03</pdfrwt>
<pdfrwt beam="2">  1       -2 0.34131568E-02 0.13105098E+03</pdfrwt>
<totfact> 0.15872572E+04</totfact>
</mgrwt>
</event>
<event>
 8    1  0.1273312E-005  0.1300953E+03  0.7546771E-02  0.1241265E+00
          1   -1    0    0  501    0  0.00000000000E+00  0.00000000000E+00  0.53286777781E+03  0.53286777781E+03  0.00000000000E+00 0. -1.
         -1   -1    0    0    0  501 -0.00000000000E+00 -0.00000000000E+00 -0.27047813971E+02  0.27047813971E+02  0.00000000000E+00 0.  1.
         23    2    1    2    0    0 -0.28371605720E+02 -0.22362204729E+02  0.13299131237E+03  0.16504093315E+03  0.90811916832E+02 0.  0.
         23    2    1    2    0    0  0.28371605720E+02  0.22362204729E+02  0.37282865147E+03  0.39487465863E+03  0.12497910409E+03 0.  0.
          5    1    4    4  502    0  0.58481226218E+02  0.58468682510E+02  0.23423624915E+03  0.24844989650E+03  0.47000000000E+01 0. -1.
         -5    1    4    4    0  502 -0.30109620498E+02 -0.36106477781E+02  0.13859240232E+03  0.14642476213E+03  0.47000000000E+01 0. -1.
        -11    1    3    3    0    0 -0.25683209573E+02  0.42460261629E+01  0.13568714250E+03  0.13816170465E+03  0.00000000000E+00 0. -1.
         11    1    3    3    0    0 -0.26883961468E+01 -0.26608230892E+02 -0.26958301257E+01  0.26879228507E+02  0.00000000000E+00 0.  1.
<mgrwt>
<rscale>  0 0.12111754E+03</rscale>
<asrwt>0</asrwt>
<pdfrwt beam="1">  1        1 0.81979650E-01 0.13009532E+03</pdfrwt>
<pdfrwt beam="2">  1       -1 0.41612026E-02 0.13009532E+03</pdfrwt>
<totfact> 0.91445135E+03</totfact>
</mgrwt>
</event>
<event>
 7    1  0.1273312E-005  0.3157682E+03  0.7546771E-02  0.1077614E+00
         -3   -1    0    0    0  501 -0.00000000000E+00  0.00000000000E+00  0.43785992825E+03  0.43785992825E+03  0.00000000000E+00 0.  1.
          3   -1    0    0  501    0  0.00000000000E+00 -0.00000000000E+00 -0.56930069478E+02  0.56930069478E+02  0.00000000000E+00 0. -1.
         23    2    1    2    0    0 -0.39507714418E+01 -0.76416290774E+02  0.22875998191E+03  0.25805081278E+03  0.91673521607E+02 0.  0.
          5    1    1    2  502    0 -0.41470861258E+02 -0.30335317239E+02  0.93165115792E+02  0.10649832208E+03  0.47000000000E+01 0. -1.
         -5    1    1    2    0  502  0.45421632700E+02  0.10675160801E+03  0.59004761070E+02  0.13024086286E+03  0.47000000000E+01 0.  1.
        -11    1    3    3    0    0  0.33393474207E+02 -0.40950080776E+02  0.52760203085E+02  0.74670424297E+02  0.00000000000E+00 0. -1.
         11    1    3    3    0    0 -0.37344245649E+02 -0.35466209998E+02  0.17599977882E+03  0.18338038848E+03  0.00000000000E+00 0.  1.
<mgrwt>
<rscale>  0 0.31576824E+03</rscale>
<asrwt>0</asrwt>
<pdfrwt beam="2">  1        3 0.87584725E-02 0.31576824E+03</pdfrwt>
<pdfrwt beam="1">  1       -3 0.67363064E-01 0.31576824E+03</pdfrwt>
<totfact> 0.51000473E+02</totfact>
</mgrwt>
</event>
<event>
 8    1  0.1273312E-005  0.1531384E+03  0.7546771E-02  0.1203346E+00
          1   -1    0    0  501    0  0.00000000000E+00  0.00000000000E+00  0.94928302145E+02  0.94928302145E+02  0.00000000000E+00 0. -1.
         -1   -1    0    0    0  501 -0.00000000000E+00 -0.00000000000E+00 -0.46681033863E+03  0.46681033863E+03  0.00000000000E+00 0.  1.
         23    2    1    2    0    0 -0.52956732791E+02 -0.70865801124E+02 -0.38585935642E+03  0.40796367854E+03  0.98592812890E+02 0.  0.
         23    2    1    2    0    0  0.52956732791E+02  0.70865801124E+02  0.13977319933E+02  0.15377496224E+03  0.12499998489E+03 0.  0.
          5    1    4    4  502    0  0.71605948478E+02  0.40980338120E+02  0.55177089191E+02  0.99364989515E+02  0.47000000000E+01 0. -1.
         -5    1    4    4    0  502 -0.18649215687E+02  0.29885463004E+02 -0.41199769258E+02  0.54409972722E+02  0.47000000000E+01 0. -1.
        -11    1    3    3    0    0 -0.36985362997E+02 -0.11729069209E+02 -0.36485395082E+02  0.53260418650E+02  0.00000000000E+00 0. -1.
         11    1    3    3    0    0 -0.15971369794E+02 -0.59136731914E+02 -0.34937396134E+03  0.35470325989E+03  0.00000000000E+00 0.  1.
<mgrwt>
<rscale>  0 0.14768562E+03</rscale>
<asrwt>0</asrwt>
<pdfrwt beam="1">  1        1 0.14604354E-01 0.15313841E+03</pdfrwt>
<pdfrwt beam="2">  1       -1 0.71816977E-01 0.15313841E+03</pdfrwt>
<totfact> 0.78125216E+02</totfact>
</mgrwt>
</event>
<event>
 8    1  0.1273312E-005  0.1323271E+03  0.7546771E-02  0.1236681E+00
         -2   -1    0    0    0  501 -0.00000000000E+00  0.00000000000E+00  0.20176933945E+02  0.20176933945E+02  0.00000000000E+00 0.  1.
          2   -1    0    0  501    0  0.00000000000E+00 -0.00000000000E+00 -0.73198917556E+03  0.73198917556E+03  0.00000000000E+00 0. -1.
         23    2    1    2    0    0 -0.19758708413E+02 -0.38691017395E+02 -0.21363922166E+03  0.23671792527E+03  0.92229375621E+02 0.  0.
         23    2    1    2    0    0  0.19758708413E+02  0.38691017395E+02 -0.49817301996E+03  0.51544818424E+03  0.12499228550E+03 0.  0.
          5    1    4    4  502    0  0.20240588897E+02 -0.38613764086E+02 -0.91482064642E+02  0.10144832363E+03  0.47000000000E+01 0. -1.
         -5    1    4    4    0  502 -0.48188048335E+00  0.77304781481E+02 -0.40669095531E+03  0.41399986061E+03  0.47000000000E+01 0. -1.
        -11    1    3    3    0    0  0.17458219775E+02 -0.53948794729E+02 -0.87025762467E+02  0.10386888477E+03  0.00000000000E+00 0.  1.
         11    1    3    3    0    0 -0.37216928188E+02  0.15257777334E+02 -0.12661345920E+03  0.13284904050E+03  0.00000000000E+00 0. -1.
<mgrwt>
<rscale>  0 0.12397461E+03</rscale>
<asrwt>0</asrwt>
<pdfrwt beam="2">  1        2 0.11261373E+00 0.13232714E+03</pdfrwt>
<pdfrwt beam="1">  1       -2 0.31041434E-02 0.13232714E+03</pdfrwt>
<totfact> 0.15170656E+04</totfact>
</mgrwt>
</event>
<event>
 8    1  0.1273312E-005  0.1416938E+03  0.7546771E-02  0.1221716E+00
         -2   -1    0    0    0  501 -0.00000000000E+00  0.00000000000E+00  0.13035219214E+02  0.13035219214E+02  0.00000000000E+00 0.  1.
          2   -1    0    0  501    0  0.00000000000E+00 -0.00000000000E+00 -0.18080059733E+04  0.18080059733E+04  0.00000000000E+00 0. -1.
         23    2    1    2    0    0 -0.10815707860E+01  0.66718352939E+02 -0.32260419492E+03  0.34187236171E+03  0.91382365397E+02 0.  0.
         23    2    1    2    0    0  0.10815707860E+01 -0.66718352939E+02 -0.14723665592E+04  0.14791688308E+04  0.12499854825E+03 0.  0.
          5    1    4    4  502    0 -0.52025357321E+02 -0.19804214039E+02 -0.99301537602E+03  0.99458557787E+03  0.47000000000E+01 0.  1.
         -5    1    4    4    0  502  0.53106928107E+02 -0.46914138900E+02 -0.47935118318E+03  0.48458325297E+03  0.47000000000E+01 0.  1.
        -11    1    3    3    0    0 -0.28492901010E+02 -0.90028968016E+01 -0.12428317955E+03  0.12782490476E+03  0.00000000000E+00 0. -1.
         11    1    3    3    0    0  0.27411330224E+02  0.75721249740E+02 -0.19832101537E+03  0.21404745694E+03  0.00000000000E+00 0.  1.
<mgrwt>
<rscale>  0 0.13394554E+03</rscale>
<asrwt>0</asrwt>
<pdfrwt beam="2">  1        2 0.27815478E+00 0.14169384E+03</pdfrwt>
<pdfrwt beam="1">  1       -2 0.20054182E-02 0.14169384E+03</pdfrwt>
<totfact> 0.71184402E+03</totfact>
</mgrwt>
</event>
<event>
 7    1  0.1273312E-005  0.1377364E+03  0.7546771E-02  0.1233122E+00
         -2   -1    0    0    0  501 -0.00000000000E+00  0.00000000000E+00  0.30113675264E+02  0.30113675264E+02  0.00000000000E+00 0.  1.
          2   -1    0    0  501    0  0.00000000000E+00 -0.00000000000E+00 -0.54633126976E+03  0.54633126976E+03  0.00000000000E+00 0. -1.
         23    2    1    2    0    0 -0.86778708306E+01  0.35994127919E+02 -0.10658527904E+03  0.14427605570E+03  0.89912601207E+02 0.  0.
          5    1    1    2  502    0  0.10776580623E+02  0.29325699055E+02 -0.31775090125E+03  0.31931779869E+03  0.47000000000E+01 0. -1.
         -5    1    1    2    0  502 -0.20987097923E+01 -0.65319826974E+02 -0.91881414204E+02  0.11285109062E+03  0.47000000000E+01 0.  1.
        -11    1    3    3    0    0 -0.40482648589E+02 -0.96337505302E+01 -0.46391800853E+02  0.62320567812E+02  0.00000000000E+00 0.  1.
         11    1    3    3    0    0  0.31804777758E+02  0.45627878449E+02 -0.60193478183E+02  0.81955487893E+02  0.00000000000E+00 0. -1.
<mgrwt>
<rscale>  0 0.12625400E+03</rscale>
<asrwt>0</asrwt>
<pdfrwt beam="2">  1        2 0.84050966E-01 0.13773640E+03</pdfrwt>
<pdfrwt beam="1">  1       -2 0.46328730E-02 0.13773640E+03</pdfrwt>
<totfact> 0.11778895E+04</totfact>
</mgrwt>
</event>
<event>
 8    1  0.1273312E-005  0.1284579E+03  0.7546771E-02  0.1241686E+00
          1   -1    0    0  501    0  0.00000000000E+00  0.00000000000E+00  0.98840834559E+03  0.98840834559E+03  0.00000000000E+00 0. -1.
         -1   -1    0    0    0  501 -0.00000000000E+00 -0.00000000000E+00 -0.13501806032E+02  0.13501806032E+02  0.00000000000E+00 0.  1.
         23    2    1    2    0    0 -0.12914020755E+02  0.27251700247E+02  0.36513504513E+03  0.37875471566E+03  0.96031798657E+02 0.  0.
         23    2    1    2    0    0  0.12914020755E+02 -0.27251700247E+02  0.60977149443E+03  0.62315543596E+03  0.12486790963E+03 0.  0.
          5    1    4    4  502    0 -0.16892788308E+01  0.26610637434E+02  0.28941999043E+02  0.39632171227E+02  0.47000000000E+01 0. -1.
         -5    1    4    4    0  502  0.14603299586E+02 -0.53862337681E+02  0.58082949539E+03  0.58352326474E+03  0.47000000000E+01 0. -1.
        -11    1    3    3    0    0  0.17560794270E+02  0.55978875080E+02  0.20440012962E+03  0.21265330691E+03  0.00000000000E+00 0.  1.
         11    1    3    3    0    0 -0.30474815025E+02 -0.28727174833E+02  0.16073491550E+03  0.16610140874E+03  0.00000000000E+00 0. -1.
<mgrwt>
<rscale>  0 0.12085925E+03</rscale>
<asrwt>0</asrwt>
<pdfrwt beam="1">  1        1 0.15206277E+00 0.12845786E+03</pdfrwt>
<pdfrwt beam="2">  1       -1 0.20772017E-02 0.12845786E+03</pdfrwt>
<totfact> 0.10168712E+04</totfact>
</mgrwt>
</event>
<event>
 8    1  0.2055933E-005  0.1558531E+03  0.7546771E-02  0.1201967E+00
          2   -1    0    0  501    0  0.00000000000E+00  0.00000000000E+00  0.13371519338E+03  0.13371519338E+03  0.00000000000E+00 0. -1.
         -2   -1    0    0    0  501 -0.00000000000E+00 -0.00000000000E+00 -0.15351873825E+03  0.15351873825E+03  0.00000000000E+00 0.  1.
         23    2    1    2    0    0  0.71851363641E+02  0.59184912152E+02 -0.22243924247E+02  0.13136168434E+03  0.89975705957E+02 0.  0.
         23    2    1    2    0    0 -0.71851363641E+02 -0.59184912152E+02  0.24403793834E+01  0.15587224730E+03  0.12499891896E+03 0.  0.
          5    1    4    4  502    0 -0.36156740726E+02  0.36265806951E+02 -0.12089865192E+02  0.52827771996E+02  0.47000000000E+01 0. -1.
         -5    1    4    4    0  502 -0.35694622915E+02 -0.95450719103E+02  0.14530244575E+02  0.10304447530E+03  0.47000000000E+01 0. -1.
        -11    1    3    3    0    0  0.86992581947E+01  0.60214794332E+02 -0.29808369504E+02  0.67749815070E+02  0.00000000000E+00 0.  1.
         11    1    3    3    0    0  0.63152105446E+02 -0.10298821797E+01  0.75644452569E+01  0.63611869267E+02  0.00000000000E+00 0. -1.
<mgrwt>
<rscale>  0 0.14879025E+03</rscale>
<asrwt>0</asrwt>
<pdfrwt beam="1">  1        2 0.20571568E-01 0.15585314E+03</pdfrwt>
<pdfrwt beam="2">  1       -2 0.23618267E-01 0.15585314E+03</pdfrwt>
<totfact> 0.40814168E+03</totfact>
</mgrwt>
</event>
<event>
 8    1  0.1273312E-005  0.1215669E+03  0.7546771E-02  0.1258418E+00
         -1   -1    0    0    0  501 -0.00000000000E+00  0.00000000000E+00  0.14946571564E+03  0.14946571564E+03  0.00000000000E+00 0.  1.
          1   -1    0    0  501    0  0.00000000000E+00 -0.00000000000E+00 -0.92880100884E+02  0.92880100884E+02  0.00000000000E+00 0. -1.
         23    2    1    2    0    0  0.25183060934E+02 -0.14411064152E+02  0.82036173699E+02  0.11814342919E+03  0.79912894693E+02 0.  0.
         23    2    1    2    0    0 -0.25183060934E+02  0.14411064152E+02 -0.25450558939E+02  0.12420238734E+03  0.11805353337E+03 0.  0.
          5    1    4    4  502    0 -0.46995586489E+02  0.59503414188E+01 -0.63455608747E+02  0.79326515075E+02  0.47000000000E+01 0. -1.
         -5    1    4    4    0  502  0.21812525555E+02  0.84607227330E+01  0.38005049809E+02  0.44875872261E+02  0.47000000000E+01 0.  1.
        -11    1    3    3    0    0 -0.23943958640E+02  0.13085449769E+02  0.37406333738E+02  0.46300928227E+02  0.00000000000E+00 0. -1.
         11    1    3    3    0    0  0.49127019573E+02 -0.27496513921E+02  0.44629839961E+02  0.71842500965E+02  0.00000000000E+00 0.  1.
<mgrwt>
<rscale>  0 0.11117015E+03</rscale>
<asrwt>0</asrwt>
<pdfrwt beam="2">  1        1 0.14289246E-01 0.12156686E+03</pdfrwt>
<pdfrwt beam="1">  1       -1 0.22994726E-01 0.12156686E+03</pdfrwt>
<totfact> 0.59995052E+03</totfact>
</mgrwt>
</event>
<event>
 6    1  0.1273312E-005  0.1429008E+03  0.7546771E-02  0.1268836E+00
          2   -1    0    0  501    0  0.00000000000E+00  0.00000000000E+00  0.63197948152E+03  0.63197948152E+03  0.00000000000E+00 0. -1.
         -2   -1    0    0    0  501 -0.00000000000E+00 -0.00000000000E+00 -0.13766877435E+02  0.13766877435E+02  0.00000000000E+00 0.  1.
          5    1    1    2  502    0  0.61028737258E+02  0.19902004919E+02  0.34906525369E+03  0.35494962728E+03  0.47000000000E+01 0. -1.
         -5    1    1    2    0  502 -0.44329446439E+02 -0.50064519026E+02  0.15266454302E+03  0.16673364562E+03  0.47000000000E+01 0.  1.
        -11    1    1    2    0    0 -0.19710300154E+02  0.11498090091E+02  0.76592515868E+02  0.79919431272E+02  0.00000000000E+00 0.  1.
         11    1    1    2    0    0  0.30110093359E+01  0.18664424015E+02  0.39890291506E+02  0.44143654781E+02  0.00000000000E+00 0. -1.
<mgrwt>
<rscale>  0 0.10565413E+03</rscale>
<asrwt>0</asrwt>
<pdfrwt beam="1">  1        2 0.97227590E-01 0.14290083E+03</pdfrwt>
<pdfrwt beam="2">  1       -2 0.21179816E-02 0.14290083E+03</pdfrwt>
<totfact> 0.31753142E+04</totfact>
</mgrwt>
</event>
<event>
 8    1  0.1273312E-005  0.1657958E+03  0.7546771E-02  0.1189235E+00
         -1   -1    0    0    0  501 -0.00000000000E+00  0.00000000000E+00  0.11924863289E+03  0.11924863289E+03  0.00000000000E+00 0.  1.
          1   -1    0    0  501    0  0.00000000000E+00 -0.00000000000E+00 -0.21038383744E+03  0.21038383744E+03  0.00000000000E+00 0. -1.
         23    2    1    2    0    0  0.77100633316E+02 -0.76950701706E+02 -0.35899004077E+01  0.14214270452E+03  0.91245509005E+02 0.  0.
         23    2    1    2    0    0 -0.77100633316E+02  0.76950701706E+02 -0.87545304138E+02  0.18748976581E+03  0.12498925496E+03 0.  0.
          5    1    4    4  502    0 -0.93638044814E+02  0.96518847886E+02 -0.53930565221E+02  0.14496402070E+03  0.47000000000E+01 0.  1.
         -5    1    4    4    0  502  0.16537411498E+02 -0.19568146180E+02 -0.33614738917E+02  0.42525745102E+02  0.47000000000E+01 0.  1.
        -11    1    3    3    0    0  0.46235020696E+02 -0.72565481366E+02  0.34690921587E+02  0.92773305779E+02  0.00000000000E+00 0.  1.
         11    1    3    3    0    0  0.30865612620E+02 -0.43852203404E+01 -0.38280821995E+02  0.49369398745E+02  0.00000000000E+00 0. -1.
<mgrwt>
<rscale>  0 0.15952419E+03</rscale>
<asrwt>0</asrwt>
<pdfrwt beam="2">  1        1 0.32366744E-01 0.16579575E+03</pdfrwt>
<pdfrwt beam="1">  1       -1 0.18345944E-01 0.16579575E+03</pdfrwt>
<totfact> 0.31155039E+03</totfact>
</mgrwt>
</event>
<event>
 8    1  0.1273312E-005  0.1775592E+03  0.7546771E-02  0.1175970E+00
         -1   -1    0    0    0  501 -0.00000000000E+00  0.00000000000E+00  0.25776001264E+02  0.25776001264E+02  0.00000000000E+00 0.  1.
          1   -1    0    0  501    0  0.00000000000E+00 -0.00000000000E+00 -0.13444744195E+04  0.13444744195E+04  0.00000000000E+00 0. -1.
         23    2    1    2    0    0 -0.11168117776E+03  0.58664566785E+02 -0.31956694652E+03  0.35546425128E+03  0.91200788233E+02 0.  0.
         23    2    1    2    0    0  0.11168117776E+03 -0.58664566785E+02 -0.99913147173E+03  0.10147861695E+04  0.12495221138E+03 0.  0.
          5    1    4    4  502    0 -0.10260180996E+02  0.26462914361E+02 -0.16259439740E+03  0.16511991163E+03  0.47000000000E+01 0. -1.
         -5    1    4    4    0  502  0.12194135875E+03 -0.85127481145E+02 -0.83653707433E+03  0.84966625786E+03  0.47000000000E+01 0. -1.
        -11    1    3    3    0    0 -0.46714803126E+02  0.68051531399E+02 -0.12218094146E+03  0.14744987695E+03  0.00000000000E+00 0.  1.
         11    1    3    3    0    0 -0.64966374629E+02 -0.93869646141E+01 -0.19738600505E+03  0.20801437433E+03  0.00000000000E+00 0. -1.
<mgrwt>
<rscale>  0 0.17181284E+03</rscale>
<asrwt>0</asrwt>
<pdfrwt beam="2">  1        1 0.20684233E+00 0.17755921E+03</pdfrwt>
<pdfrwt beam="1">  1       -1 0.39655365E-02 0.17755921E+03</pdfrwt>
<totfact> 0.22618850E+03</totfact>
</mgrwt>
</event>
<event>
 8    1  0.1273312E-005  0.1259979E+03  0.7546771E-02  0.1249141E+00
         -2   -1    0    0    0  501 -0.00000000000E+00  0.00000000000E+00  0.11063714552E+02  0.11063714552E+02  0.00000000000E+00 0. -1.
          2   -1    0    0  501    0  0.00000000000E+00 -0.00000000000E+00 -0.14870747803E+04  0.14870747803E+04  0.00000000000E+00 0.  1.
         23    2    1    2    0    0  0.13319043694E+02 -0.85572372290E+01 -0.26223596205E+03  0.27784121116E+03  0.90429063872E+02 0.  0.
         23    2    1    2    0    0 -0.13319043694E+02  0.85572372290E+01 -0.12137751037E+04  0.12202972837E+04  0.12499933998E+03 0.  0.
          5    1    4    4  502    0 -0.64876357287E+02 -0.17920822847E+01 -0.44758540201E+03  0.45229076420E+03  0.47000000000E+01 0.  1.
         -5    1    4    4    0  502  0.51557313593E+02  0.10349319514E+02 -0.76618970170E+03  0.76800651949E+03  0.47000000000E+01 0.  1.
        -11    1    3    3    0    0  0.13651889104E+02 -0.47358023859E+02 -0.10661915949E+03  0.11745978746E+03  0.00000000000E+00 0. -1.
         11    1    3    3    0    0 -0.33284540990E+00  0.38800786630E+02 -0.15561680255E+03  0.16038142369E+03  0.00000000000E+00 0.  1.
<mgrwt>
<rscale>  0 0.11640943E+03</rscale>
<asrwt>0</asrwt>
<pdfrwt beam="2">  1        2 0.22878070E+00 0.12599785E+03</pdfrwt>
<pdfrwt beam="1">  1       -2 0.17021102E-02 0.12599785E+03</pdfrwt>
<totfact> 0.13139229E+04</totfact>
</mgrwt>
</event>
<event>
 8    1  0.1273312E-005  0.1653151E+03  0.7546771E-02  0.1189957E+00
          2   -1    0    0  501    0  0.00000000000E+00  0.00000000000E+00  0.37515673097E+03  0.37515673097E+03  0.00000000000E+00 0. -1.
         -2   -1    0    0    0  501 -0.00000000000E+00 -0.00000000000E+00 -0.62585107779E+02  0.62585107779E+02  0.00000000000E+00 0.  1.
         23    2    1    2    0    0 -0.10740242475E+03  0.13013386960E+02  0.13915501539E+03  0.19815384459E+03  0.90532859975E+02 0.  0.
         23    2    1    2    0    0  0.10740242475E+03 -0.13013386960E+02  0.17341660780E+03  0.23958799416E+03  0.12499783199E+03 0.  0.
          5    1    4    4  502    0 -0.23004236624E+02 -0.17547020201E+02  0.11266486042E+02  0.31402492391E+02  0.47000000000E+01 0. -1.
         -5    1    4    4    0  502  0.13040666137E+03  0.45336332412E+01  0.16215012176E+03  0.20818550177E+03  0.47000000000E+01 0. -1.
        -11    1    3    3    0    0 -0.65516532232E+02 -0.24412068356E+02  0.31414054095E+02  0.76649904578E+02  0.00000000000E+00 0.  1.
         11    1    3    3    0    0 -0.41885892517E+02  0.37425455317E+02  0.10774096130E+03  0.12150394001E+03  0.00000000000E+00 0. -1.
<mgrwt>
<rscale>  0 0.15888881E+03</rscale>
<asrwt>0</asrwt>
<pdfrwt beam="1">  1        2 0.57716419E-01 0.16531511E+03</pdfrwt>
<pdfrwt beam="2">  1       -2 0.96284783E-02 0.16531511E+03</pdfrwt>
<totfact> 0.58514735E+03</totfact>
</mgrwt>
</event>
<event>
 8    1  0.1273312E-005  0.1203596E+03  0.7546771E-02  0.1254634E+00
         -2   -1    0    0    0  501 -0.00000000000E+00  0.00000000000E+00  0.63164991525E+02  0.63164991525E+02  0.00000000000E+00 0.  1.
          2   -1    0    0  501    0  0.00000000000E+00 -0.00000000000E+00 -0.18988876994E+04  0.18988876994E+04  0.00000000000E+00 0. -1.
         23    2    1    2    0    0  0.13318249231E+02  0.20056310898E+02  0.24825891604E+02  0.97615101413E+02  0.91283907456E+02 0.  0.
         23    2    1    2    0    0 -0.13318249231E+02 -0.20056310898E+02 -0.18605485994E+04  0.18644375895E+04  0.11792710796E+03 0.  0.
          5    1    4    4  502    0 -0.40915566111E+02 -0.44178199005E+02 -0.16145132577E+04  0.16156425799E+04  0.47000000000E+01 0. -1.
         -5    1    4    4    0  502  0.27597316880E+02  0.24121888107E+02 -0.24603534175E+03  0.24879500954E+03  0.47000000000E+01 0.  1.
        -11    1    3    3    0    0  0.26197604670E+02  0.36859353693E+02 -0.18917022200E+02  0.49018161676E+02  0.00000000000E+00 0. -1.
         11    1    3    3    0    0 -0.12879355439E+02 -0.16803042795E+02  0.43742913805E+02  0.48596939737E+02  0.00000000000E+00 0.  1.
<mgrwt>
<rscale>  0 0.11326867E+03</rscale>
<asrwt>0</asrwt>
<pdfrwt beam="2">  1        2 0.29213663E+00 0.12035960E+03</pdfrwt>
<pdfrwt beam="1">  1       -2 0.97176888E-02 0.12035960E+03</pdfrwt>
<totfact> 0.60348317E+02</totfact>
</mgrwt>
</event>
<event>
 8    1  0.1273312E-005  0.1560530E+03  0.7546771E-02  0.1201418E+00
         -2   -1    0    0    0  501 -0.00000000000E+00  0.00000000000E+00  0.14506814339E+03  0.14506814339E+03  0.00000000000E+00 0.  1.
          2   -1    0    0  501    0  0.00000000000E+00 -0.00000000000E+00 -0.41149026859E+03  0.41149026859E+03  0.00000000000E+00 0. -1.
         23    2    1    2    0    0  0.17700949699E+02  0.91730168689E+02  0.95967044677E+02  0.16199732592E+03  0.91135681671E+02 0.  0.
         23    2    1    2    0    0 -0.17700949699E+02 -0.91730168689E+02 -0.36238916987E+03  0.39456108606E+03  0.12499917089E+03 0.  0.
          5    1    4    4  502    0 -0.61852265924E+02 -0.62854788887E+02 -0.29997218528E+03  0.31270086221E+03  0.47000000000E+01 0.  1.
         -5    1    4    4    0  502  0.44151316225E+02 -0.28875379802E+02 -0.62416984595E+02  0.81860223852E+02  0.47000000000E+01 0.  1.
        -11    1    3    3    0    0  0.22779140491E+02  0.10373311452E+03  0.10234079748E+03  0.14748927798E+03  0.00000000000E+00 0.  1.
         11    1    3    3    0    0 -0.50781907919E+01 -0.12002945832E+02 -0.63737528019E+01  0.14508047944E+02  0.00000000000E+00 0. -1.
<mgrwt>
<rscale>  0 0.14923372E+03</rscale>
<asrwt>0</asrwt>
<pdfrwt beam="2">  1        2 0.63306195E-01 0.15605300E+03</pdfrwt>
<pdfrwt beam="1">  1       -2 0.22318176E-01 0.15605300E+03</pdfrwt>
<totfact> 0.13316008E+03</totfact>
</mgrwt>
</event>
<event>
 8    1  0.1273312E-005  0.1475014E+03  0.7546771E-02  0.1213554E+00
          2   -1    0    0  501    0  0.00000000000E+00  0.00000000000E+00  0.59974763668E+03  0.59974763668E+03  0.00000000000E+00 0. -1.
         -2   -1    0    0    0  501 -0.00000000000E+00 -0.00000000000E+00 -0.29821001700E+02  0.29821001700E+02  0.00000000000E+00 0.  1.
         23    2    1    2    0    0  0.46759859436E+02  0.62843305897E+02  0.27948096048E+03  0.30381510365E+03  0.89767724634E+02 0.  0.
         23    2    1    2    0    0 -0.46759859436E+02 -0.62843305897E+02  0.29044567450E+03  0.32575353473E+03  0.12498363893E+03 0.  0.
          5    1    4    4  502    0  0.31466157799E+02  0.13850163558E+02  0.10184886306E+03  0.10759752332E+03  0.47000000000E+01 0. -1.
         -5    1    4    4    0  502 -0.78226017235E+02 -0.76693469455E+02  0.18859681144E+03  0.21815601141E+03  0.47000000000E+01 0. -1.
        -11    1    3    3    0    0  0.63053551175E+02  0.10040017752E+02  0.15324992168E+03  0.16601834467E+03  0.00000000000E+00 0.  1.
         11    1    3    3    0    0 -0.16293691739E+02  0.52803288145E+02  0.12623103880E+03  0.13779675898E+03  0.00000000000E+00 0. -1.
<mgrwt>
<rscale>  0 0.13983321E+03</rscale>
<asrwt>0</asrwt>
<pdfrwt beam="1">  1        2 0.92268858E-01 0.14750144E+03</pdfrwt>
<pdfrwt beam="2">  1       -2 0.45878469E-02 0.14750144E+03</pdfrwt>
<totfact> 0.10809074E+04</totfact>
</mgrwt>
</event>
<event>
 8    1  0.1273312E-005  0.1305488E+03  0.7546771E-02  0.1238697E+00
          1   -1    0    0  501    0  0.00000000000E+00  0.00000000000E+00  0.21308413570E+03  0.21308413570E+03  0.00000000000E+00 0. -1.
         -1   -1    0    0    0  501 -0.00000000000E+00 -0.00000000000E+00 -0.86525994240E+02  0.86525994240E+02  0.00000000000E+00 0.  1.
         23    2    1    2    0    0 -0.23111916728E+02 -0.29730665368E+02 -0.19464640033E+02  0.10373865282E+03  0.94682430888E+02 0.  0.
         23    2    1    2    0    0  0.23111916728E+02  0.29730665368E+02  0.14602278149E+03  0.19587147712E+03  0.12499963871E+03 0.  0.
          5    1    4    4  502    0 -0.97518957826E+01 -0.30844874204E+02  0.11606184861E+03  0.12057756192E+03  0.47000000000E+01 0. -1.
         -5    1    4    4    0  502  0.32863812511E+02  0.60575539572E+02  0.29960932884E+02  0.75293915202E+02  0.47000000000E+01 0. -1.
        -11    1    3    3    0    0 -0.18957753521E+02  0.91372191105E+01 -0.49927178221E+02  0.54181254293E+02  0.00000000000E+00 0.  1.
         11    1    3    3    0    0 -0.41541632068E+01 -0.38867884479E+02  0.30462538187E+02  0.49557398525E+02  0.00000000000E+00 0. -1.
<mgrwt>
<rscale>  0 0.12270693E+03</rscale>
<asrwt>0</asrwt>
<pdfrwt beam="1">  1        1 0.32782175E-01 0.13054878E+03</pdfrwt>
<pdfrwt beam="2">  1       -1 0.13311691E-01 0.13054878E+03</pdfrwt>
<totfact> 0.50201992E+03</totfact>
</mgrwt>
</event>
<event>
 8    1  0.1273312E-005  0.1779448E+03  0.7546771E-02  0.1175654E+00
          2   -1    0    0  501    0  0.00000000000E+00  0.00000000000E+00  0.16566330431E+03  0.16566330431E+03  0.00000000000E+00 0. -1.
         -2   -1    0    0    0  501 -0.00000000000E+00 -0.00000000000E+00 -0.18874018267E+03  0.18874018267E+03  0.00000000000E+00 0.  1.
         23    2    1    2    0    0 -0.28791352067E+02  0.12333973770E+03 -0.69399508120E+02  0.17052818152E+03  0.90674892417E+02 0.  0.
         23    2    1    2    0    0  0.28791352067E+02 -0.12333973770E+03  0.46322629756E+02  0.18387530546E+03  0.12499083599E+03 0.  0.
          5    1    4    4  502    0  0.39311963806E+01 -0.16900943239E+02  0.69717010422E+02  0.71997553636E+02  0.47000000000E+01 0. -1.
         -5    1    4    4    0  502  0.24860155686E+02 -0.10643879446E+03 -0.23394380666E+02  0.11187775183E+03  0.47000000000E+01 0. -1.
        -11    1    3    3    0    0 -0.38584114384E+02  0.16064033772E+02  0.10624580662E+01  0.41808083919E+02  0.00000000000E+00 0. -1.
         11    1    3    3    0    0  0.97927623177E+01  0.10727570393E+03 -0.70461966186E+02  0.12872009760E+03  0.00000000000E+00 0.  1.
<mgrwt>
<rscale>  0 0.17212076E+03</rscale>
<asrwt>0</asrwt>
<pdfrwt beam="1">  1        2 0.25486662E-01 0.17794477E+03</pdfrwt>
<pdfrwt beam="2">  1       -2 0.29036951E-01 0.17794477E+03</pdfrwt>
<totfact> 0.22428990E+03</totfact>
</mgrwt>
</event>
<event>
 7    1  0.1273312E-005  0.1450683E+03  0.7546771E-02  0.1211163E+00
          3   -1    0    0  501    0  0.00000000000E+00  0.00000000000E+00  0.19321533620E+03  0.19321533620E+03  0.00000000000E+00 0. -1.
         -3   -1    0    0    0  501 -0.00000000000E+00 -0.00000000000E+00 -0.10110027901E+03  0.10110027901E+03  0.00000000000E+00 0.  1.
         23    2    1    2    0    0  0.59823734120E+02 -0.20853436414E+02  0.23524165865E+02  0.13384902841E+03  0.11553541039E+03 0.  0.
          5    1    1    2  502    0 -0.86504899038E+02  0.42988532007E+02  0.17095382136E+02  0.98211269883E+02  0.47000000000E+01 0. -1.
         -5    1    1    2    0  502  0.26681164918E+02 -0.22135095593E+02  0.51495509182E+02  0.62255316915E+02  0.47000000000E+01 0.  1.
        -11    1    3    3    0    0  0.85978394255E+02  0.12933917914E+02  0.26836380324E+02  0.90993196559E+02  0.00000000000E+00 0.  1.
         11    1    3    3    0    0 -0.26154660135E+02 -0.33787354329E+02 -0.33122144587E+01  0.42855831854E+02  0.00000000000E+00 0. -1.
<mgrwt>
<rscale>  0 0.14162174E+03</rscale>
<asrwt>0</asrwt>
<pdfrwt beam="1">  1        3 0.29725436E-01 0.14506831E+03</pdfrwt>
<pdfrwt beam="2">  1       -3 0.15553889E-01 0.14506831E+03</pdfrwt>
<totfact> 0.88802992E+02</totfact>
</mgrwt>
</event>
<event>
 8    1  0.1273312E-005  0.1739213E+03  0.7546771E-02  0.1180059E+00
         -1   -1    0    0    0  501 -0.00000000000E+00  0.00000000000E+00  0.62988769088E+02  0.62988769088E+02  0.00000000000E+00 0.  1.
          1   -1    0    0  501    0  0.00000000000E+00 -0.00000000000E+00 -0.41920151604E+03  0.41920151604E+03  0.00000000000E+00 0. -1.
         23    2    1    2    0    0  0.48576370706E+02  0.11074311786E+03 -0.16844654358E+03  0.22625127889E+03  0.90508017389E+02 0.  0.
         23    2    1    2    0    0 -0.48576370706E+02 -0.11074311786E+03 -0.18776620337E+03  0.25593900623E+03  0.12499970335E+03 0.  0.
          5    1    4    4  502    0 -0.20966665817E+02 -0.12262966403E+03 -0.18803284379E+03  0.22551291741E+03  0.47000000000E+01 0.  1.
         -5    1    4    4    0  502 -0.27609704889E+02  0.11886546168E+02  0.26664041872E+00  0.30426088821E+02  0.47000000000E+01 0.  1.
        -11    1    3    3    0    0 -0.80501902887E+01  0.32722859862E+02 -0.10639331897E+03  0.11160255124E+03  0.00000000000E+00 0.  1.
         11    1    3    3    0    0  0.56626560995E+02  0.78020258003E+02 -0.62053224611E+02  0.11464872766E+03  0.00000000000E+00 0. -1.
<mgrwt>
<rscale>  0 0.16789708E+03</rscale>
<asrwt>0</asrwt>
<pdfrwt beam="2">  1        1 0.64492537E-01 0.17392133E+03</pdfrwt>
<pdfrwt beam="1">  1       -1 0.96905804E-02 0.17392133E+03</pdfrwt>
<totfact> 0.35729266E+03</totfact>
</mgrwt>
</event>
<event>
 8    1  0.1273312E-005  0.1529971E+03  0.7546771E-02  0.1205477E+00
         -2   -1    0    0    0  501 -0.00000000000E+00  0.00000000000E+00  0.18655386043E+03  0.18655386043E+03  0.00000000000E+00 0.  1.
          2   -1    0    0  501    0  0.00000000000E+00 -0.00000000000E+00 -0.10497466349E+03  0.10497466349E+03  0.00000000000E+00 0. -1.
         23    2    1    2    0    0 -0.42191835128E+02  0.77427295757E+02  0.35448362883E+02  0.13172814384E+03  0.91217215303E+02 0.  0.
         23    2    1    2    0    0  0.42191835128E+02 -0.77427295757E+02  0.46130834057E+02  0.15980038008E+03  0.12503187811E+03 0.  0.
          5    1    4    4  502    0 -0.32043080744E+02 -0.66624329145E+02  0.40497370036E+02  0.84425631401E+02  0.47000000000E+01 0. -1.
         -5    1    4    4    0  502  0.74234915872E+02 -0.10802966612E+02  0.56334640211E+01  0.75374748683E+02  0.47000000000E+01 0. -1.
        -11    1    3    3    0    0 -0.43017789757E+02  0.54647077750E+02  0.64464530988E+02  0.94828841065E+02  0.00000000000E+00 0.  1.
         11    1    3    3    0    0  0.82595462875E+00  0.22780218007E+02 -0.29016168105E+02  0.36899302771E+02  0.00000000000E+00 0. -1.
<mgrwt>
<rscale>  0 0.14599943E+03</rscale>
<asrwt>0</asrwt>
<pdfrwt beam="2">  1        2 0.16149948E-01 0.15299708E+03</pdfrwt>
<pdfrwt beam="1">  1       -2 0.28700594E-01 0.15299708E+03</pdfrwt>
<totfact> 0.38176048E+03</totfact>
</mgrwt>
</event>
<event>
 8    1  0.1273312E-005  0.1360922E+03  0.7546771E-02  0.1229763E+00
         -2   -1    0    0    0  501 -0.00000000000E+00  0.00000000000E+00  0.20707410687E+02  0.20707410687E+02  0.00000000000E+00 0.  1.
          2   -1    0    0  501    0  0.00000000000E+00 -0.00000000000E+00 -0.90889878379E+03  0.90889878379E+03  0.00000000000E+00 0. -1.
         23    2    1    2    0    0 -0.50776890443E+02  0.17799854433E+02 -0.19260147738E+03  0.22082809021E+03  0.93672775750E+02 0.  0.
         23    2    1    2    0    0  0.50776890443E+02 -0.17799854433E+02 -0.69558989572E+03  0.70877810427E+03  0.12500388248E+03 0.  0.
          5    1    4    4  502    0  0.57698670660E+02  0.29016634823E+02 -0.58259549070E+03  0.58618316035E+03  0.47000000000E+01 0. -1.
         -5    1    4    4    0  502 -0.69217802171E+01 -0.46816489256E+02 -0.11299440502E+03  0.12259494392E+03  0.47000000000E+01 0. -1.
        -11    1    3    3    0    0  0.13072831115E+02  0.64737430985E+00  0.37740152496E+01  0.13622084935E+02  0.00000000000E+00 0.  1.
         11    1    3    3    0    0 -0.63849721558E+02  0.17152480123E+02 -0.19637549263E+03  0.20720600528E+03  0.00000000000E+00 0. -1.
<mgrwt>
<rscale>  0 0.12845694E+03</rscale>
<asrwt>0</asrwt>
<pdfrwt beam="2">  1        2 0.13983060E+00 0.13609224E+03</pdfrwt>
<pdfrwt beam="1">  1       -2 0.31857550E-02 0.13609224E+03</pdfrwt>
<totfact> 0.11150739E+04</totfact>
</mgrwt>
</event>
<event>
 8    1  0.1273312E-005  0.1314840E+03  0.7546771E-02  0.1238739E+00
          1   -1    0    0  501    0  0.00000000000E+00  0.00000000000E+00  0.45384348957E+03  0.45384348957E+03  0.00000000000E+00 0. -1.
         -1   -1    0    0    0  501 -0.00000000000E+00 -0.00000000000E+00 -0.31436949622E+02  0.31436949622E+02  0.00000000000E+00 0.  1.
         23    2    1    2    0    0  0.20537041944E+02 -0.35206808566E+02  0.12319316906E+03  0.15845222336E+03  0.90935475598E+02 0.  0.
         23    2    1    2    0    0 -0.20537041944E+02  0.35206808566E+02  0.29921337088E+03  0.32682821583E+03  0.12500700735E+03 0.  0.
          5    1    4    4  502    0  0.95419376319E+01  0.13006316599E+02  0.28660307615E+03  0.28709515165E+03  0.47000000000E+01 0. -1.
         -5    1    4    4    0  502 -0.30078979576E+02  0.22200491968E+02  0.12610294738E+02  0.39733064182E+02  0.47000000000E+01 0. -1.
        -11    1    3    3    0    0  0.31209613022E+02 -0.62126227618E+02  0.75323984462E+02  0.10250566198E+03  0.00000000000E+00 0.  1.
         11    1    3    3    0    0 -0.10672571078E+02  0.26919419052E+02  0.47869184600E+02  0.55946561376E+02  0.00000000000E+00 0. -1.
<mgrwt>
<rscale>  0 0.12268073E+03</rscale>
<asrwt>0</asrwt>
<pdfrwt beam="1">  1        1 0.69822070E-01 0.13148400E+03</pdfrwt>
<pdfrwt beam="2">  1       -1 0.48364541E-02 0.13148400E+03</pdfrwt>
<totfact> 0.90337250E+03</totfact>
</mgrwt>
</event>
<event>
 8    1  0.1273312E-005  0.1253421E+03  0.7546771E-02  0.1249776E+00
          3   -1    0    0  501    0  0.00000000000E+00  0.00000000000E+00  0.15080475141E+03  0.15080475141E+03  0.00000000000E+00 0. -1.
         -3   -1    0    0    0  501 -0.00000000000E+00 -0.00000000000E+00 -0.10285157909E+03  0.10285157909E+03  0.00000000000E+00 0.  1.
         23    2    1    2    0    0 -0.89239000884E+01  0.24233767788E+01 -0.40148418395E+02  0.10044884630E+03  0.91610951722E+02 0.  0.
         23    2    1    2    0    0  0.89239000884E+01 -0.24233767788E+01  0.88101590713E+02  0.15320748421E+03  0.12500053673E+03 0.  0.
          5    1    4    4  502    0 -0.44078753945E+02  0.32824461453E+02  0.65188067957E+02  0.85392950664E+02  0.47000000000E+01 0.  1.
         -5    1    4    4    0  502  0.53002654034E+02 -0.35247838232E+02  0.22913522756E+02  0.67814533544E+02  0.47000000000E+01 0.  1.
        -11    1    3    3    0    0  0.14350445820E+02  0.38945231953E+02 -0.16347061297E+00  0.41505338328E+02  0.00000000000E+00 0. -1.
         11    1    3    3    0    0 -0.23274345909E+02 -0.36521855174E+02 -0.39984947782E+02  0.58943507971E+02  0.00000000000E+00 0.  1.
<mgrwt>
<rscale>  0 0.11604058E+03</rscale>
<asrwt>0</asrwt>
<pdfrwt beam="1">  1        3 0.23200731E-01 0.12534210E+03</pdfrwt>
<pdfrwt beam="2">  1       -3 0.15823320E-01 0.12534210E+03</pdfrwt>
<totfact> 0.13215324E+03</totfact>
</mgrwt>
</event>
<event>
 8    1  0.1273312E-005  0.1550536E+03  0.7546771E-02  0.1202642E+00
         -2   -1    0    0    0  501 -0.00000000000E+00  0.00000000000E+00  0.25275553157E+03  0.25275553157E+03  0.00000000000E+00 0.  1.
          2   -1    0    0  501    0  0.00000000000E+00 -0.00000000000E+00 -0.82890664756E+02  0.82890664756E+02  0.00000000000E+00 0. -1.
         23    2    1    2    0    0  0.18318145306E+02  0.89871298543E+02  0.10809535162E+03  0.16874179169E+03  0.91524764261E+02 0.  0.
         23    2    1    2    0    0 -0.18318145306E+02 -0.89871298543E+02  0.61769515198E+02  0.16690440463E+03  0.12501680899E+03 0.  0.
          5    1    4    4  502    0 -0.23640212019E+02 -0.11670804213E+03  0.69669752527E+02  0.13804199049E+03  0.47000000000E+01 0.  1.
         -5    1    4    4    0  502  0.53220667126E+01  0.26836743584E+02 -0.79002373297E+01  0.28862414143E+02  0.47000000000E+01 0.  1.
        -11    1    3    3    0    0  0.19082023003E+02  0.10346710549E+01  0.69147126176E+02  0.71739244521E+02  0.00000000000E+00 0.  1.
         11    1    3    3    0    0 -0.76387769728E+00  0.88836627488E+02  0.38948225440E+02  0.97002547171E+02  0.00000000000E+00 0. -1.
<mgrwt>
<rscale>  0 0.14824840E+03</rscale>
<asrwt>0</asrwt>
<pdfrwt beam="2">  1        2 0.12752410E-01 0.15505356E+03</pdfrwt>
<pdfrwt beam="1">  1       -2 0.38885466E-01 0.15505356E+03</pdfrwt>
<totfact> 0.28906473E+03</totfact>
</mgrwt>
</event>
<event>
 8    1  0.1273312E-005  0.1266914E+03  0.7546771E-02  0.1249105E+00
          2   -1    0    0  501    0  0.00000000000E+00  0.00000000000E+00  0.71638146813E+02  0.71638146813E+02  0.00000000000E+00 0. -1.
         -2   -1    0    0    0  501 -0.00000000000E+00 -0.00000000000E+00 -0.17247925204E+03  0.17247925204E+03  0.00000000000E+00 0.  1.
         23    2    1    2    0    0 -0.20527247907E+02  0.10284380726E+01 -0.68404791974E+02  0.11333964912E+03  0.88001334691E+02 0.  0.
         23    2    1    2    0    0  0.20527247907E+02 -0.10284380726E+01 -0.32436313258E+02  0.13077774973E+03  0.12501311857E+03 0.  0.
          5    1    4    4  502    0  0.61350932111E+02 -0.11393433894E+02 -0.54513916507E+02  0.82991591741E+02  0.47000000000E+01 0. -1.
         -5    1    4    4    0  502 -0.40823684204E+02  0.10364995821E+02  0.22077603249E+02  0.47786157991E+02  0.47000000000E+01 0. -1.
        -11    1    3    3    0    0 -0.78126003383E+00 -0.40163785199E+02 -0.49882443148E+02  0.64046843351E+02  0.00000000000E+00 0.  1.
         11    1    3    3    0    0 -0.19745987873E+02  0.41192223271E+02 -0.18522348825E+02  0.49292805774E+02  0.00000000000E+00 0. -1.
<mgrwt>
<rscale>  0 0.11643026E+03</rscale>
<asrwt>0</asrwt>
<pdfrwt beam="1">  1        2 0.11021253E-01 0.12669138E+03</pdfrwt>
<pdfrwt beam="2">  1       -2 0.26535270E-01 0.12669138E+03</pdfrwt>
<totfact> 0.68211231E+03</totfact>
</mgrwt>
</event>
<event>
 8    1  0.1273312E-005  0.1402429E+03  0.7546771E-02  0.1223895E+00
          2   -1    0    0  501    0  0.00000000000E+00  0.00000000000E+00  0.15632417967E+03  0.15632417967E+03  0.00000000000E+00 0. -1.
         -2   -1    0    0    0  501 -0.00000000000E+00 -0.00000000000E+00 -0.10187246696E+03  0.10187246696E+03  0.00000000000E+00 0.  1.
         23    2    1    2    0    0  0.36156738983E+01  0.63468969621E+02  0.14997616820E+02  0.11250965850E+03  0.91608468728E+02 0.  0.
         23    2    1    2    0    0 -0.36156738983E+01 -0.63468969621E+02  0.39454095894E+02  0.14568698813E+03  0.12500675832E+03 0.  0.
          5    1    4    4  502    0 -0.41978221886E+02 -0.51925925905E+02  0.68658517089E+02  0.95888241525E+02  0.47000000000E+01 0.  1.
         -5    1    4    4    0  502  0.38362547988E+02 -0.11543043716E+02 -0.29204421195E+02  0.49798746608E+02  0.47000000000E+01 0.  1.
        -11    1    3    3    0    0 -0.70530174202E+01  0.57983826855E+02 -0.30193484114E+02  0.65753446407E+02  0.00000000000E+00 0.  1.
         11    1    3    3    0    0  0.10668691318E+02  0.54851427662E+01  0.45191100933E+02  0.46756212092E+02  0.00000000000E+00 0. -1.
<mgrwt>
<rscale>  0 0.13242953E+03</rscale>
<asrwt>0</asrwt>
<pdfrwt beam="1">  1        2 0.24049874E-01 0.14024291E+03</pdfrwt>
<pdfrwt beam="2">  1       -2 0.15672687E-01 0.14024291E+03</pdfrwt>
<totfact> 0.68005954E+03</totfact>
</mgrwt>
</event>
<event>
 8    1  0.1273312E-005  0.1510212E+03  0.7546771E-02  0.1207525E+00
          2   -1    0    0  501    0  0.00000000000E+00  0.00000000000E+00  0.16840430905E+03  0.16840430905E+03  0.00000000000E+00 0. -1.
         -2   -1    0    0    0  501 -0.00000000000E+00 -0.00000000000E+00 -0.20755453468E+03  0.20755453468E+03  0.00000000000E+00 0.  1.
         23    2    1    2    0    0  0.68236189749E+02 -0.50350772825E+02 -0.14446064753E+03  0.19184555673E+03  0.93511822962E+02 0.  0.
         23    2    1    2    0    0 -0.68236189749E+02  0.50350772825E+02  0.10531042190E+03  0.18411328701E+03  0.12496415317E+03 0.  0.
          5    1    4    4  502    0 -0.10504019184E+03  0.39703638166E+02  0.76800752268E+02  0.13612592087E+03  0.47000000000E+01 0.  1.
         -5    1    4    4    0  502  0.36804002086E+02  0.10647134658E+02  0.28509669631E+02  0.47987366134E+02  0.47000000000E+01 0.  1.
        -11    1    3    3    0    0  0.56541629409E+02 -0.48932207256E+02 -0.15745371804E+03  0.17430717165E+03  0.00000000000E+00 0.  1.
         11    1    3    3    0    0  0.11694560340E+02 -0.14185655692E+01  0.12993070508E+02  0.17538385075E+02  0.00000000000E+00 0. -1.
<mgrwt>
<rscale>  0 0.14440273E+03</rscale>
<asrwt>0</asrwt>
<pdfrwt beam="1">  1        2 0.25908355E-01 0.15102125E+03</pdfrwt>
<pdfrwt beam="2">  1       -2 0.31931467E-01 0.15102125E+03</pdfrwt>
<totfact> 0.18428234E+03</totfact>
</mgrwt>
</event>
<event>
 8    1  0.1273312E-005  0.1386380E+03  0.7546771E-02  0.1226537E+00
          1   -1    0    0  501    0  0.00000000000E+00  0.00000000000E+00  0.26581645265E+03  0.26581645265E+03  0.00000000000E+00 0. -1.
         -1   -1    0    0    0  501 -0.00000000000E+00 -0.00000000000E+00 -0.65521535188E+02  0.65521535188E+02  0.00000000000E+00 0.  1.
         23    2    1    2    0    0 -0.34103549552E+02 -0.49232051679E+02  0.33122296563E+02  0.11415795122E+03  0.91367960968E+02 0.  0.
         23    2    1    2    0    0  0.34103549552E+02  0.49232051679E+02  0.16717262090E+03  0.21718003662E+03  0.12503453973E+03 0.  0.
          5    1    4    4  502    0 -0.24675522200E+02  0.28291057297E+02  0.14645816805E+03  0.15126582663E+03  0.47000000000E+01 0. -1.
         -5    1    4    4    0  502  0.58779071752E+02  0.20940994382E+02  0.20714452849E+02  0.65914209990E+02  0.47000000000E+01 0. -1.
        -11    1    3    3    0    0 -0.11730306689E+02  0.20588064056E+02  0.33263914567E+02  0.40840623023E+02  0.00000000000E+00 0. -1.
         11    1    3    3    0    0 -0.22373242864E+02 -0.69820115736E+02 -0.14161800324E+00  0.73317328192E+02  0.00000000000E+00 0.  1.
<mgrwt>
<rscale>  0 0.13062136E+03</rscale>
<asrwt>0</asrwt>
<pdfrwt beam="1">  1        1 0.40894838E-01 0.13863796E+03</pdfrwt>
<pdfrwt beam="2">  1       -1 0.10080236E-01 0.13863796E+03</pdfrwt>
<totfact> 0.58802489E+03</totfact>
</mgrwt>
</event>
<event>
 8    1  0.1273312E-005  0.1370007E+03  0.7546771E-02  0.1231381E+00
         -3   -1    0    0    0  501 -0.00000000000E+00  0.00000000000E+00  0.35931058106E+02  0.35931058106E+02  0.00000000000E+00 0.  1.
          3   -1    0    0  501    0  0.00000000000E+00 -0.00000000000E+00 -0.40056085148E+03  0.40056085148E+03  0.00000000000E+00 0. -1.
         23    2    1    2    0    0 -0.71674102584E+01 -0.55614651221E+02 -0.14187196628E+03  0.17497662259E+03  0.85701822813E+02 0.  0.
         23    2    1    2    0    0  0.71674102584E+01  0.55614651221E+02 -0.22275782709E+03  0.26151528700E+03  0.12499933842E+03 0.  0.
          5    1    4    4  502    0 -0.26403534800E+01  0.52806204491E+02 -0.23728638842E+03  0.24315095481E+03  0.47000000000E+01 0.  1.
         -5    1    4    4    0  502  0.98077637384E+01  0.28084467298E+01  0.14528561325E+02  0.18364332189E+02  0.47000000000E+01 0.  1.
        -11    1    3    3    0    0  0.84019160813E+01 -0.30233314349E+02 -0.14287098943E+01  0.31411569562E+02  0.00000000000E+00 0.  1.
         11    1    3    3    0    0 -0.15569326340E+02 -0.25381336872E+02 -0.14044325639E+03  0.14356505302E+03  0.00000000000E+00 0. -1.
<mgrwt>
<rscale>  0 0.12738982E+03</rscale>
<asrwt>0</asrwt>
<pdfrwt beam="2">  1        3 0.61624750E-01 0.13700071E+03</pdfrwt>
<pdfrwt beam="1">  1       -3 0.55278547E-02 0.13700071E+03</pdfrwt>
<totfact> 0.11675304E+03</totfact>
</mgrwt>
</event>
<event>
 8    1  0.1273312E-005  0.1511461E+03  0.7546771E-02  0.1206797E+00
         -1   -1    0    0    0  501 -0.00000000000E+00  0.00000000000E+00  0.10768833778E+02  0.10768833778E+02  0.00000000000E+00 0.  1.
          1   -1    0    0  501    0  0.00000000000E+00 -0.00000000000E+00 -0.21332159846E+04  0.21332159846E+04  0.00000000000E+00 0. -1.
         23    2    1    2    0    0 -0.13282072144E+02  0.88341537999E+02 -0.56884761553E+03  0.58305027184E+03  0.91538893508E+02 0.  0.
         23    2    1    2    0    0  0.13282072144E+02 -0.88341537999E+02 -0.15535995353E+04  0.15609345466E+04  0.12192006287E+03 0.  0.
          5    1    4    4  502    0 -0.15969285771E+02 -0.95210914868E+02 -0.14428909350E+04  0.14461246408E+04  0.47000000000E+01 0. -1.
         -5    1    4    4    0  502  0.29251357915E+02  0.68693768695E+01 -0.11070860031E+03  0.11480990576E+03  0.47000000000E+01 0.  1.
        -11    1    3    3    0    0 -0.52637867553E+02  0.54957957871E+02 -0.35476615844E+03  0.36283625702E+03  0.00000000000E+00 0.  1.
         11    1    3    3    0    0  0.39355795409E+02  0.33383580128E+02 -0.21408145709E+03  0.22021401482E+03  0.00000000000E+00 0. -1.
<mgrwt>
<rscale>  0 0.14496750E+03</rscale>
<asrwt>0</asrwt>
<pdfrwt beam="2">  1        1 0.32818721E+00 0.15114610E+03</pdfrwt>
<pdfrwt beam="1">  1       -1 0.16567430E-02 0.15114610E+03</pdfrwt>
<totfact> 0.24974873E+03</totfact>
</mgrwt>
</event>
<event>
 7    1  0.1273312E-005  0.4203865E+03  0.7546771E-02  0.1068894E+00
          2   -1    0    0  501    0  0.00000000000E+00  0.00000000000E+00  0.26819325219E+03  0.26819325219E+03  0.00000000000E+00 0. -1.
         -2   -1    0    0    0  501 -0.00000000000E+00 -0.00000000000E+00 -0.48925751952E+03  0.48925751952E+03  0.00000000000E+00 0.  1.
         23    2    1    2    0    0 -0.13846795519E+03 -0.42613148079E+02 -0.28549435506E+03  0.33215557404E+03  0.88493183895E+02 0.  0.
          5    1    1    2  502    0 -0.39248876705E+02 -0.44572860995E+02  0.18439615569E+03  0.19378144002E+03  0.47000000000E+01 0. -1.
         -5    1    1    2    0  502  0.17771683190E+03  0.87186009075E+02 -0.11996606797E+03  0.23151375765E+03  0.47000000000E+01 0.  1.
        -11    1    3    3    0    0 -0.25221599805E+02  0.24783408235E+02 -0.38994225011E+02  0.52639300952E+02  0.00000000000E+00 0. -1.
         11    1    3    3    0    0 -0.11324635539E+03 -0.67396556315E+02 -0.24650013005E+03  0.27951627309E+03  0.00000000000E+00 0.  1.
<mgrwt>
<rscale>  0 0.33511884E+03</rscale>
<asrwt>0</asrwt>
<pdfrwt beam="1">  1        2 0.41260500E-01 0.42038645E+03</pdfrwt>
<pdfrwt beam="2">  1       -2 0.75270388E-01 0.42038645E+03</pdfrwt>
<totfact> 0.20115509E+02</totfact>
</mgrwt>
</event>
<event>
 8    1  0.1273312E-005  0.1491115E+03  0.7546771E-02  0.1211125E+00
         -2   -1    0    0    0  501 -0.00000000000E+00  0.00000000000E+00  0.43819245047E+02  0.43819245047E+02  0.00000000000E+00 0.  1.
          2   -1    0    0  501    0  0.00000000000E+00 -0.00000000000E+00 -0.41909858747E+03  0.41909858747E+03  0.00000000000E+00 0. -1.
         23    2    1    2    0    0 -0.80913171096E+02 -0.78361118795E+01 -0.15471344359E+03  0.19667815930E+03  0.90209216874E+02 0.  0.
         23    2    1    2    0    0  0.80913171096E+02  0.78361118795E+01 -0.22056589883E+03  0.26623967323E+03  0.12500360781E+03 0.  0.
          5    1    4    4  502    0  0.75651215066E+02  0.40239967709E+01 -0.40571011790E+02  0.86066229664E+02  0.47000000000E+01 0. -1.
         -5    1    4    4    0  502  0.52619560306E+01  0.38121151085E+01 -0.17999488704E+03  0.18017344356E+03  0.47000000000E+01 0. -1.
        -11    1    3    3    0    0 -0.79456589525E+02 -0.23885148621E+02 -0.15956668988E+03  0.17984820951E+03  0.00000000000E+00 0. -1.
         11    1    3    3    0    0 -0.14565815709E+01  0.16049036742E+02  0.48532462904E+01  0.16829949785E+02  0.00000000000E+00 0.  1.
<mgrwt>
<rscale>  0 0.14165042E+03</rscale>
<asrwt>0</asrwt>
<pdfrwt beam="2">  1        2 0.64476705E-01 0.14911153E+03</pdfrwt>
<pdfrwt beam="1">  1       -2 0.67414224E-02 0.14911153E+03</pdfrwt>
<totfact> 0.89747529E+03</totfact>
</mgrwt>
</event>
<event>
 8    1  0.1273312E-005  0.1884379E+03  0.7546771E-02  0.1164556E+00
          2   -1    0    0  501    0  0.00000000000E+00  0.00000000000E+00  0.44263678050E+03  0.44263678050E+03  0.00000000000E+00 0. -1.
         -2   -1    0    0    0  501 -0.00000000000E+00 -0.00000000000E+00 -0.13125113599E+03  0.13125113599E+03  0.00000000000E+00 0.  1.
         23    2    1    2    0    0 -0.48784572883E+02  0.13229417185E+03 -0.41281225438E+02  0.17403448282E+03  0.93285471428E+02 0.  0.
         23    2    1    2    0    0  0.48784572883E+02 -0.13229417185E+03  0.35266686994E+03  0.39985343367E+03  0.12500865892E+03 0.  0.
          5    1    4    4  502    0  0.31851684440E+02 -0.14096529747E+03  0.20484026185E+03  0.25073365903E+03  0.47000000000E+01 0. -1.
         -5    1    4    4    0  502  0.16932888443E+02  0.86711256186E+01  0.14782660809E+03  0.14911977464E+03  0.47000000000E+01 0. -1.
        -11    1    3    3    0    0 -0.74377658815E+02  0.96613417101E+02 -0.14964714761E+02  0.12284189506E+03  0.00000000000E+00 0. -1.
         11    1    3    3    0    0  0.25593085932E+02  0.35680754750E+02 -0.26316510677E+02  0.51192587757E+02  0.00000000000E+00 0.  1.
<mgrwt>
<rscale>  0 0.18339662E+03</rscale>
<asrwt>0</asrwt>
<pdfrwt beam="1">  1        2 0.68097966E-01 0.18843791E+03</pdfrwt>
<pdfrwt beam="2">  1       -2 0.20192483E-01 0.18843791E+03</pdfrwt>
<totfact> 0.14661492E+03</totfact>
</mgrwt>
</event>
<event>
 8    1  0.1273312E-005  0.1540220E+03  0.7546771E-02  0.1204271E+00
          2   -1    0    0  501    0  0.00000000000E+00  0.00000000000E+00  0.88745675964E+03  0.88745675964E+03  0.00000000000E+00 0.  1.
         -2   -1    0    0    0  501 -0.00000000000E+00 -0.00000000000E+00 -0.28862158893E+02  0.28862158893E+02  0.00000000000E+00 0. -1.
         23    2    1    2    0    0  0.47159572311E+02 -0.76603283692E+02  0.18119937326E+03  0.22163405025E+03  0.90533701072E+02 0.  0.
         23    2    1    2    0    0 -0.47159572311E+02  0.76603283692E+02  0.67739522749E+03  0.69468486828E+03  0.12502273256E+03 0.  0.
          5    1    4    4  502    0 -0.87849292281E+02  0.61844683613E+02  0.53824187639E+03  0.54887946814E+03  0.47000000000E+01 0.  1.
         -5    1    4    4    0  502  0.40689719970E+02  0.14758600079E+02  0.13915335110E+03  0.14580540014E+03  0.47000000000E+01 0.  1.
        -11    1    3    3    0    0 -0.26095590507E+02 -0.31492205026E+02  0.47924834103E+02  0.63004194663E+02  0.00000000000E+00 0.  1.
         11    1    3    3    0    0  0.73255162818E+02 -0.45111078666E+02  0.13327453915E+03  0.15862985559E+03  0.00000000000E+00 0. -1.
<mgrwt>
<rscale>  0 0.14695081E+03</rscale>
<asrwt>0</asrwt>
<pdfrwt beam="1">  1        2 0.13653179E+00 0.15402199E+03</pdfrwt>
<pdfrwt beam="2">  1       -2 0.44403328E-02 0.15402199E+03</pdfrwt>
<totfact> 0.70732623E+03</totfact>
</mgrwt>
</event>
<event>
 8    1  0.1273312E-005  0.1480829E+03  0.7546771E-02  0.1212616E+00
          1   -1    0    0  501    0  0.00000000000E+00  0.00000000000E+00  0.45825600913E+02  0.45825600913E+02  0.00000000000E+00 0. -1.
         -1   -1    0    0    0  501 -0.00000000000E+00 -0.00000000000E+00 -0.49431455833E+03  0.49431455833E+03  0.00000000000E+00 0.  1.
         23    2    1    2    0    0  0.45565850586E+02 -0.65020260560E+02 -0.32777966880E+03  0.34909233082E+03  0.90122489620E+02 0.  0.
         23    2    1    2    0    0 -0.45565850586E+02  0.65020260560E+02 -0.12070928862E+03  0.19104782842E+03  0.12499863745E+03 0.  0.
          5    1    4    4  502    0 -0.17873122067E+02 -0.12968743320E+01 -0.11750466688E+03  0.11895615627E+03  0.47000000000E+01 0.  1.
         -5    1    4    4    0  502 -0.27692728519E+02  0.66317134892E+02 -0.32046217331E+01  0.72091672151E+02  0.47000000000E+01 0.  1.
        -11    1    3    3    0    0 -0.16732442548E+02 -0.51296999002E+02 -0.18504306437E+03  0.19274929938E+03  0.00000000000E+00 0.  1.
         11    1    3    3    0    0  0.62298293134E+02 -0.13723261558E+02 -0.14273660443E+03  0.15634303144E+03  0.00000000000E+00 0. -1.
<mgrwt>
<rscale>  0 0.14053085E+03</rscale>
<asrwt>0</asrwt>
<pdfrwt beam="1">  1        1 0.70500917E-02 0.14808288E+03</pdfrwt>
<pdfrwt beam="2">  1       -1 0.76048401E-01 0.14808288E+03</pdfrwt>
<totfact> 0.18301987E+03</totfact>
</mgrwt>
</event>
<event>
 8    1  0.1273312E-005  0.1732288E+03  0.7546771E-02  0.1181080E+00
          2   -1    0    0  501    0  0.00000000000E+00  0.00000000000E+00  0.14186634788E+03  0.14186634788E+03  0.00000000000E+00 0. -1.
         -2   -1    0    0    0  501 -0.00000000000E+00 -0.00000000000E+00 -0.21372461955E+03  0.21372461955E+03  0.00000000000E+00 0.  1.
         23    2    1    2    0    0 -0.99570032378E+02  0.66850988282E+02 -0.10043303738E+03  0.18002119068E+03  0.89093142914E+02 0.  0.
         23    2    1    2    0    0  0.99570032378E+02 -0.66850988282E+02  0.28574765707E+02  0.17556977675E+03  0.12499993316E+03 0.  0.
          5    1    4    4  502    0  0.12238773871E+03 -0.70876602979E+02  0.42972965233E+02  0.14788852957E+03  0.47000000000E+01 0. -1.
         -5    1    4    4    0  502 -0.22817706332E+02  0.40256146962E+01 -0.14398199526E+02  0.27681247182E+02  0.47000000000E+01 0. -1.
        -11    1    3    3    0    0 -0.63564678731E+02  0.56043679819E+02 -0.14165454409E+02  0.85918697199E+02  0.00000000000E+00 0. -1.
         11    1    3    3    0    0 -0.36005353647E+02  0.10807308464E+02 -0.86267582972E+02  0.94102493481E+02  0.00000000000E+00 0.  1.
<mgrwt>
<rscale>  0 0.16693751E+03</rscale>
<asrwt>0</asrwt>
<pdfrwt beam="1">  1        2 0.21825592E-01 0.17322883E+03</pdfrwt>
<pdfrwt beam="2">  1       -2 0.32880711E-01 0.17322883E+03</pdfrwt>
<totfact> 0.21260169E+03</totfact>
</mgrwt>
</event>
<event>
 8    1  0.1273312E-005  0.1270954E+03  0.7546771E-02  0.1245506E+00
         -2   -1    0    0    0  501 -0.00000000000E+00  0.00000000000E+00  0.10357396525E+02  0.10357396525E+02  0.00000000000E+00 0.  1.
          2   -1    0    0  501    0  0.00000000000E+00 -0.00000000000E+00 -0.13157120309E+04  0.13157120309E+04  0.00000000000E+00 0. -1.
         23    2    1    2    0    0  0.17186634361E+02 -0.15284245732E+02 -0.37830802238E+03  0.39035116516E+03  0.93424214088E+02 0.  0.
         23    2    1    2    0    0 -0.17186634361E+02  0.15284245732E+02 -0.92704661204E+03  0.93571826231E+03  0.12499702779E+03 0.  0.
          5    1    4    4  502    0 -0.18149476719E+02 -0.16282899207E+02 -0.86991728725E+03  0.87027163172E+03  0.47000000000E+01 0.  1.
         -5    1    4    4    0  502  0.96284235792E+00  0.31567144939E+02 -0.57129324784E+02  0.65446630588E+02  0.47000000000E+01 0.  1.
        -11    1    3    3    0    0  0.42749957566E+02  0.23274315109E+02 -0.22550370992E+03  0.23069715171E+03  0.00000000000E+00 0. -1.
         11    1    3    3    0    0 -0.25563323205E+02 -0.38558560841E+02 -0.15280431245E+03  0.15965401345E+03  0.00000000000E+00 0.  1.
<mgrwt>
<rscale>  0 0.11855138E+03</rscale>
<asrwt>0</asrwt>
<pdfrwt beam="2">  1        2 0.20241726E+00 0.12709542E+03</pdfrwt>
<pdfrwt beam="1">  1       -2 0.15934454E-02 0.12709542E+03</pdfrwt>
<totfact> 0.17800046E+04</totfact>
</mgrwt>
</event>
<event>
 7    1  0.1273312E-005  0.1894050E+03  0.7546771E-02  0.1177683E+00
         -1   -1    0    0    0  501 -0.00000000000E+00  0.00000000000E+00  0.17671866946E+03  0.17671866946E+03  0.00000000000E+00 0.  1.
          1   -1    0    0  501    0  0.00000000000E+00 -0.00000000000E+00 -0.23418132201E+03  0.23418132201E+03  0.00000000000E+00 0. -1.
         23    2    1    2    0    0 -0.33590264802E+02 -0.47015147998E+02  0.10450213237E+03  0.16168754541E+03  0.10901117667E+03 0.  0.
          5    1    1    2  502    0 -0.26746170906E+02  0.76321155022E+02 -0.16293712080E+03  0.18196392966E+03  0.47000000000E+01 0. -1.
         -5    1    1    2    0  502  0.60336435708E+02 -0.29306007024E+02  0.97233587295E+00  0.67248516405E+02  0.47000000000E+01 0.  1.
        -11    1    3    3    0    0 -0.64559753082E+02 -0.55340275046E+02  0.50547561945E+02  0.98922008566E+02  0.00000000000E+00 0.  1.
         11    1    3    3    0    0  0.30969488280E+02  0.83251270482E+01  0.53954570429E+02  0.62765536840E+02  0.00000000000E+00 0. -1.
<mgrwt>
<rscale>  0 0.17015830E+03</rscale>
<asrwt>0</asrwt>
<pdfrwt beam="2">  1        1 0.36027896E-01 0.18940499E+03</pdfrwt>
<pdfrwt beam="1">  1       -1 0.27187488E-01 0.18940499E+03</pdfrwt>
<totfact> 0.14389448E+03</totfact>
</mgrwt>
</event>
<event>
 7    1  0.1273312E-005  0.1526508E+03  0.7546771E-02  0.1215305E+00
         -4   -1    0    0    0  501 -0.00000000000E+00  0.00000000000E+00  0.80170819824E+02  0.80170819824E+02  0.00000000000E+00 0.  1.
          4   -1    0    0  501    0  0.00000000000E+00 -0.00000000000E+00 -0.23657022657E+03  0.23657022657E+03  0.00000000000E+00 0. -1.
         23    2    1    2    0    0 -0.77227766166E+02  0.75763279464E+01 -0.80491726643E+01  0.10387945026E+03  0.68590249982E+02 0.  0.
          5    1    1    2  502    0  0.52885351312E+02  0.57541896379E+02 -0.10433915989E+03  0.13044799925E+03  0.47000000000E+01 0. -1.
         -5    1    1    2    0  502  0.24342414855E+02 -0.65118224326E+02 -0.44011074190E+02  0.82413596886E+02  0.47000000000E+01 0.  1.
        -11    1    3    3    0    0 -0.33839059619E+01  0.24076608178E+02 -0.13869540112E+02  0.27991034704E+02  0.00000000000E+00 0. -1.
         11    1    3    3    0    0 -0.73843860205E+02 -0.16500280231E+02  0.58203674481E+01  0.75888415551E+02  0.00000000000E+00 0.  1.
<mgrwt>
<rscale>  0 0.13854147E+03</rscale>
<asrwt>0</asrwt>
<pdfrwt beam="2">  1        4 0.36395419E-01 0.15265080E+03</pdfrwt>
<pdfrwt beam="1">  1       -4 0.12333972E-01 0.15265080E+03</pdfrwt>
<totfact> 0.65785666E+02</totfact>
</mgrwt>
</event>
<event>
 8    1  0.1273312E-005  0.1392922E+03  0.7546771E-02  0.1227586E+00
          2   -1    0    0  501    0  0.00000000000E+00  0.00000000000E+00  0.58656563955E+03  0.58656563955E+03  0.00000000000E+00 0.  1.
         -2   -1    0    0    0  501 -0.00000000000E+00 -0.00000000000E+00 -0.28842060116E+02  0.28842060116E+02  0.00000000000E+00 0. -1.
         23    2    1    2    0    0  0.55509011447E+02 -0.26356084719E+02  0.14111482087E+03  0.17612969753E+03  0.85629341523E+02 0.  0.
         23    2    1    2    0    0 -0.55509011447E+02  0.26356084719E+02  0.41660875856E+03  0.43927800213E+03  0.12500564745E+03 0.  0.
          5    1    4    4  502    0  0.31138281089E+01 -0.44731647962E+02  0.10432497130E+03  0.11365036688E+03  0.47000000000E+01 0. -1.
         -5    1    4    4    0  502 -0.58622839556E+02  0.71087732681E+02  0.31228378726E+03  0.32562763525E+03  0.47000000000E+01 0. -1.
        -11    1    3    3    0    0  0.78016024024E+02 -0.18047361594E+02  0.11942867506E+03  0.14378948394E+03  0.00000000000E+00 0.  1.
         11    1    3    3    0    0 -0.22507012577E+02 -0.83087231249E+01  0.21686145814E+02  0.32340213595E+02  0.00000000000E+00 0. -1.
<mgrwt>
<rscale>  0 0.12991247E+03</rscale>
<asrwt>0</asrwt>
<pdfrwt beam="1">  1        2 0.90240859E-01 0.13929216E+03</pdfrwt>
<pdfrwt beam="2">  1       -2 0.44372404E-02 0.13929216E+03</pdfrwt>
<totfact> 0.11608501E+04</totfact>
</mgrwt>
</event>
<event>
 8    1  0.1273312E-005  0.1757414E+03  0.7546771E-02  0.1178163E+00
         -1   -1    0    0    0  501 -0.00000000000E+00  0.00000000000E+00  0.37793609621E+03  0.37793609621E+03  0.00000000000E+00 0.  1.
          1   -1    0    0  501    0  0.00000000000E+00 -0.00000000000E+00 -0.73026674282E+02  0.73026674282E+02  0.00000000000E+00 0. -1.
         23    2    1    2    0    0  0.54573193336E+02  0.11083619748E+03  0.17567059148E+03  0.23281665682E+03  0.89891839896E+02 0.  0.
         23    2    1    2    0    0 -0.54573193336E+02 -0.11083619748E+03  0.12923883045E+03  0.21814611367E+03  0.12498862153E+03 0.  0.
          5    1    4    4  502    0 -0.56261403465E+02  0.34556336108E+01  0.67783147683E+02  0.88283248883E+02  0.47000000000E+01 0.  1.
         -5    1    4    4    0  502  0.16882101287E+01 -0.11429183109E+03  0.61455682767E+02  0.12986286479E+03  0.47000000000E+01 0.  1.
        -11    1    3    3    0    0  0.42621489579E+02  0.53644528751E+02  0.28014823123E+02  0.74021329045E+02  0.00000000000E+00 0. -1.
         11    1    3    3    0    0  0.11951703757E+02  0.57191668728E+02  0.14765576836E+03  0.15879532778E+03  0.00000000000E+00 0.  1.
<mgrwt>
<rscale>  0 0.16969781E+03</rscale>
<asrwt>0</asrwt>
<pdfrwt beam="2">  1        1 0.11234873E-01 0.17574143E+03</pdfrwt>
<pdfrwt beam="1">  1       -1 0.58144013E-01 0.17574143E+03</pdfrwt>
<totfact> 0.16678522E+03</totfact>
</mgrwt>
</event>
<event>
 7    1  0.1273312E-005  0.1653445E+03  0.7546771E-02  0.1199179E+00
         -2   -1    0    0    0  501 -0.00000000000E+00  0.00000000000E+00  0.30585264912E+03  0.30585264912E+03  0.00000000000E+00 0.  1.
          2   -1    0    0  501    0  0.00000000000E+00 -0.00000000000E+00 -0.75859190813E+02  0.75859190813E+02  0.00000000000E+00 0. -1.
         23    2    1    2    0    0 -0.74453887451E+02 -0.57652026579E+01  0.17096257668E+03  0.20614572315E+03  0.87699701422E+02 0.  0.
          5    1    1    2  502    0  0.26419173936E+02  0.75083910372E+02  0.38979190909E+02  0.88752654451E+02  0.47000000000E+01 0. -1.
         -5    1    1    2    0  502  0.48034713516E+02 -0.69318707714E+02  0.20051690720E+02  0.86813462334E+02  0.47000000000E+01 0.  1.
        -11    1    3    3    0    0 -0.55913005578E+02 -0.25214673931E+02  0.16831777283E+03  0.17914495981E+03  0.00000000000E+00 0.  1.
         11    1    3    3    0    0 -0.18540881873E+02  0.19449471274E+02  0.26448038461E+01  0.27000763338E+02  0.00000000000E+00 0. -1.
<mgrwt>
<rscale>  0 0.15105757E+03</rscale>
<asrwt>0</asrwt>
<pdfrwt beam="2">  1        2 0.11670645E-01 0.16534454E+03</pdfrwt>
<pdfrwt beam="1">  1       -2 0.47054253E-01 0.16534454E+03</pdfrwt>
<totfact> 0.22363447E+03</totfact>
</mgrwt>
</event>
<event>
 7    1  0.1273312E-005  0.1681470E+03  0.7546771E-02  0.1198198E+00
          2   -1    0    0  501    0  0.00000000000E+00  0.00000000000E+00  0.37528454176E+03  0.37528454176E+03  0.00000000000E+00 0. -1.
         -2   -1    0    0    0  501 -0.00000000000E+00 -0.00000000000E+00 -0.13030660971E+03  0.13030660971E+03  0.00000000000E+00 0.  1.
         23    2    1    2    0    0 -0.65783723077E+02 -0.11778922352E+02 -0.81454520349E+02  0.13839696177E+03  0.89736497079E+02 0.  0.
          5    1    1    2  502    0 -0.11896776460E+02 -0.30418275397E+02  0.24403196209E+03  0.24625290514E+03  0.47000000000E+01 0. -1.
         -5    1    1    2    0  502  0.77680499538E+02  0.42197197749E+02  0.82400490308E+02  0.12094128455E+03  0.47000000000E+01 0.  1.
        -11    1    3    3    0    0 -0.40981099638E+02  0.37406965334E+02 -0.51452925207E+02  0.75671230303E+02  0.00000000000E+00 0.  1.
         11    1    3    3    0    0 -0.24802623439E+02 -0.49185887687E+02 -0.30001595141E+02  0.62725731466E+02  0.00000000000E+00 0. -1.
<mgrwt>
<rscale>  0 0.15186672E+03</rscale>
<asrwt>0</asrwt>
<pdfrwt beam="1">  1        2 0.57736083E-01 0.16814704E+03</pdfrwt>
<pdfrwt beam="2">  1       -2 0.20047171E-01 0.16814704E+03</pdfrwt>
<totfact> 0.17696288E+03</totfact>
</mgrwt>
</event>
<event>
 8    1  0.1273312E-005  0.1264268E+03  0.7546771E-02  0.1267936E+00
          2   -1    0    0  501    0  0.00000000000E+00  0.00000000000E+00  0.72801952511E+02  0.72801952511E+02  0.00000000000E+00 0. -1.
         -2   -1    0    0    0  501 -0.00000000000E+00 -0.00000000000E+00 -0.21114046503E+03  0.21114046503E+03  0.00000000000E+00 0.  1.
         23    2    1    2    0    0 -0.46482543119E+01  0.18395298523E+02 -0.14432288706E+03  0.15737405879E+03  0.59812251056E+02 0.  0.
         23    2    1    2    0    0  0.46482543119E+01 -0.18395298523E+02  0.59843745411E+01  0.12656835875E+03  0.12499497358E+03 0.  0.
          5    1    4    4  502    0 -0.27861151086E+02 -0.64086905868E+02  0.59951835910E+01  0.70295145421E+02  0.47000000000E+01 0. -1.
         -5    1    4    4    0  502  0.32509405398E+02  0.45691607344E+02 -0.10809049873E-01  0.56273213324E+02  0.47000000000E+01 0. -1.
        -11    1    3    3    0    0 -0.15201102285E+02 -0.18069827847E+02 -0.41217458587E+02  0.47502327116E+02  0.00000000000E+00 0. -1.
         11    1    3    3    0    0  0.10552847973E+02  0.36465126370E+02 -0.10310542847E+03  0.10987173168E+03  0.00000000000E+00 0.  1.
<mgrwt>
<rscale>  0 0.10611626E+03</rscale>
<asrwt>0</asrwt>
<pdfrwt beam="1">  1        2 0.11200301E-01 0.12642680E+03</pdfrwt>
<pdfrwt beam="2">  1       -2 0.32483148E-01 0.12642680E+03</pdfrwt>
<totfact> 0.46575553E+03</totfact>
</mgrwt>
</event>
<event>
 8    1  0.1273312E-005  0.1964813E+03  0.7546771E-02  0.1157199E+00
          1   -1    0    0  501    0  0.00000000000E+00  0.00000000000E+00  0.45941259901E+03  0.45941259901E+03  0.00000000000E+00 0. -1.
         -1   -1    0    0    0  501 -0.00000000000E+00 -0.00000000000E+00 -0.10579440176E+03  0.10579440176E+03  0.00000000000E+00 0.  1.
         23    2    1    2    0    0 -0.14373378335E+03  0.48162115183E+02  0.20068502763E+02  0.17808908483E+03  0.91290675973E+02 0.  0.
         23    2    1    2    0    0  0.14373378335E+03 -0.48162115183E+02  0.33354969449E+03  0.38711791593E+03  0.12500356926E+03 0.  0.
          5    1    4    4  502    0  0.68083330724E+02 -0.86702734674E+02  0.16776316846E+03  0.20079660060E+03  0.47000000000E+01 0.  1.
         -5    1    4    4    0  502  0.75650452624E+02  0.38540619491E+02  0.16578652603E+03  0.18632131533E+03  0.47000000000E+01 0.  1.
        -11    1    3    3    0    0 -0.40720268420E+02  0.60650923451E+02  0.48767925311E+01  0.73215147893E+02  0.00000000000E+00 0. -1.
         11    1    3    3    0    0 -0.10301351493E+03 -0.12488808268E+02  0.15191710231E+02  0.10487393694E+03  0.00000000000E+00 0.  1.
<mgrwt>
<rscale>  0 0.19140637E+03</rscale>
<asrwt>0</asrwt>
<pdfrwt beam="1">  1        1 0.70678860E-01 0.19648125E+03</pdfrwt>
<pdfrwt beam="2">  1       -1 0.16276062E-01 0.19648125E+03</pdfrwt>
<totfact> 0.14185322E+03</totfact>
</mgrwt>
</event>
<event>
 8    1  0.1273312E-005  0.1293011E+03  0.7546771E-02  0.1243284E+00
         -1   -1    0    0    0  501 -0.00000000000E+00  0.00000000000E+00  0.52408229310E+02  0.52408229310E+02  0.00000000000E+00 0.  1.
          1   -1    0    0  501    0  0.00000000000E+00 -0.00000000000E+00 -0.24155426725E+03  0.24155426725E+03  0.00000000000E+00 0. -1.
         23    2    1    2    0    0 -0.33112564559E+02 -0.32119084714E+00 -0.74804603026E+02  0.12135673409E+03  0.89639183290E+02 0.  0.
         23    2    1    2    0    0  0.33112564559E+02  0.32119084714E+00 -0.11434143492E+03  0.17260576247E+03  0.12498896113E+03 0.  0.
          5    1    4    4  502    0  0.15034323038E+02  0.12805363335E+02 -0.13828780617E+03  0.13976986633E+03  0.47000000000E+01 0. -1.
         -5    1    4    4    0  502  0.18078241520E+02 -0.12484172488E+02  0.23946371251E+02  0.32835896139E+02  0.47000000000E+01 0. -1.
        -11    1    3    3    0    0 -0.51647317288E+02  0.13951272446E+02 -0.12689770893E+02  0.54982848882E+02  0.00000000000E+00 0.  1.
         11    1    3    3    0    0  0.18534752729E+02 -0.14272463293E+02 -0.62114832134E+02  0.66373885212E+02  0.00000000000E+00 0. -1.
<mgrwt>
<rscale>  0 0.11988667E+03</rscale>
<asrwt>0</asrwt>
<pdfrwt beam="2">  1        1 0.37162195E-01 0.12930114E+03</pdfrwt>
<pdfrwt beam="1">  1       -1 0.80628044E-02 0.12930114E+03</pdfrwt>
<totfact> 0.92432493E+03</totfact>
</mgrwt>
</event>
<event>
 8    1  0.1273312E-005  0.3907885E+03  0.7546771E-02  0.1047850E+00
         -1   -1    0    0    0  501 -0.00000000000E+00  0.00000000000E+00  0.12833557809E+03  0.12833557809E+03  0.00000000000E+00 0.  1.
          1   -1    0    0  501    0  0.00000000000E+00 -0.00000000000E+00 -0.11620628150E+04  0.11620628150E+04  0.00000000000E+00 0. -1.
         23    2    1    2    0    0 -0.88906724761E+02  0.35942544352E+03 -0.51363895580E+03  0.63985443787E+03  0.92182805246E+02 0.  0.
         23    2    1    2    0    0  0.88906724761E+02 -0.35942544352E+03 -0.52008828110E+03  0.65054395522E+03  0.12499824948E+03 0.  0.
          5    1    4    4  502    0  0.60440990422E+02 -0.35344353356E+03 -0.49818978948E+03  0.61383271425E+03  0.47000000000E+01 0.  1.
         -5    1    4    4    0  502  0.28465734339E+02 -0.59819099607E+01 -0.21898491617E+02  0.36711240967E+02  0.47000000000E+01 0.  1.
        -11    1    3    3    0    0 -0.10576339405E+03  0.26619732220E+03 -0.39810524014E+03  0.49044336277E+03  0.00000000000E+00 0. -1.
         11    1    3    3    0    0  0.16856669286E+02  0.93228121322E+02 -0.11553371567E+03  0.14941107509E+03  0.00000000000E+00 0.  1.
<mgrwt>
<rscale>  0 0.38846086E+03</rscale>
<asrwt>0</asrwt>
<pdfrwt beam="2">  1        1 0.17877890E+00 0.39078846E+03</pdfrwt>
<pdfrwt beam="1">  1       -1 0.19743935E-01 0.39078846E+03</pdfrwt>
<totfact> 0.24864935E+02</totfact>
</mgrwt>
</event>
<event>
 8    1  0.1273312E-005  0.1912137E+03  0.7546771E-02  0.1162265E+00
         -2   -1    0    0    0  501 -0.00000000000E+00  0.00000000000E+00  0.38568761270E+02  0.38568761270E+02  0.00000000000E+00 0.  1.
          2   -1    0    0  501    0  0.00000000000E+00 -0.00000000000E+00 -0.15048855282E+04  0.15048855282E+04  0.00000000000E+00 0. -1.
         23    2    1    2    0    0  0.11344548422E+03 -0.89826745107E+02 -0.20046614431E+03  0.26324317770E+03  0.90396756387E+02 0.  0.
         23    2    1    2    0    0 -0.11344548422E+03  0.89826745107E+02 -0.12658506226E+04  0.12802111118E+04  0.12499587945E+03 0.  0.
          5    1    4    4  502    0 -0.13992038476E+03  0.82725845714E+02 -0.11184848763E+04  0.11302441277E+04  0.47000000000E+01 0.  1.
         -5    1    4    4    0  502  0.26474900540E+02  0.71008993923E+01 -0.14736574630E+03  0.14996698408E+03  0.47000000000E+01 0.  1.
        -11    1    3    3    0    0  0.33325816133E+02 -0.58211874362E+02 -0.14774152003E+03  0.16225532065E+03  0.00000000000E+00 0. -1.
         11    1    3    3    0    0  0.80119668088E+02 -0.31614870744E+02 -0.52724624278E+02  0.10098785705E+03  0.00000000000E+00 0.  1.
<mgrwt>
<rscale>  0 0.18584254E+03</rscale>
<asrwt>0</asrwt>
<pdfrwt beam="2">  1        2 0.23152083E+00 0.19121373E+03</pdfrwt>
<pdfrwt beam="1">  1       -2 0.59336560E-02 0.19121373E+03</pdfrwt>
<totfact> 0.20454739E+03</totfact>
</mgrwt>
</event>
<event>
 8    1  0.1273312E-005  0.1416267E+03  0.7546771E-02  0.1222062E+00
          2   -1    0    0  501    0  0.00000000000E+00  0.00000000000E+00  0.22828987522E+04  0.22828987522E+04  0.00000000000E+00 0. -1.
         -2   -1    0    0    0  501 -0.00000000000E+00 -0.00000000000E+00 -0.90216055665E+01  0.90216055665E+01  0.00000000000E+00 0.  1.
         23    2    1    2    0    0 -0.42878050718E+02  0.50935822733E+02  0.50479083985E+03  0.51717404392E+03  0.90676427118E+02 0.  0.
         23    2    1    2    0    0  0.42878050718E+02 -0.50935822733E+02  0.17690863068E+04  0.17747463138E+04  0.12500052960E+03 0.  0.
          5    1    4    4  502    0  0.74980004504E+02  0.62960085480E+01  0.10146723620E+04  0.10174692787E+04  0.47000000000E+01 0. -1.
         -5    1    4    4    0  502 -0.32101953786E+02 -0.57231831281E+02  0.75441394475E+03  0.75727703516E+03  0.47000000000E+01 0. -1.
        -11    1    3    3    0    0  0.18139271350E+02 -0.13433296058E+02  0.74812297045E+02  0.78143242812E+02  0.00000000000E+00 0. -1.
         11    1    3    3    0    0 -0.61017322069E+02  0.64369118791E+02  0.42997854280E+03  0.43903080110E+03  0.00000000000E+00 0.  1.
<mgrwt>
<rscale>  0 0.13370340E+03</rscale>
<asrwt>0</asrwt>
<pdfrwt beam="1">  1        2 0.35121473E+00 0.14162668E+03</pdfrwt>
<pdfrwt beam="2">  1       -2 0.13879411E-02 0.14162668E+03</pdfrwt>
<totfact> 0.69050886E+03</totfact>
</mgrwt>
</event>
<event>
 8    1  0.1273312E-005  0.1452712E+03  0.7546771E-02  0.1216216E+00
          1   -1    0    0  501    0  0.00000000000E+00  0.00000000000E+00  0.58149991021E+02  0.58149991021E+02  0.00000000000E+00 0. -1.
         -1   -1    0    0    0  501 -0.00000000000E+00 -0.00000000000E+00 -0.31210550256E+03  0.31210550256E+03  0.00000000000E+00 0.  1.
         23    2    1    2    0    0  0.52429808216E+02  0.52200058258E+02 -0.15393212155E+03  0.19387977084E+03  0.91763481967E+02 0.  0.
         23    2    1    2    0    0 -0.52429808216E+02 -0.52200058258E+02 -0.10002338998E+03  0.17637572274E+03  0.12501994304E+03 0.  0.
          5    1    4    4  502    0 -0.86695645999E+01 -0.45618556995E+02  0.18168295457E+02  0.50083840233E+02  0.47000000000E+01 0.  1.
         -5    1    4    4    0  502 -0.43760243616E+02 -0.65815012636E+01 -0.11819168544E+03  0.12629188251E+03  0.47000000000E+01 0.  1.
        -11    1    3    3    0    0  0.56580649103E+02 -0.74450095020E+01 -0.87903345440E+02  0.10480360757E+03  0.00000000000E+00 0.  1.
         11    1    3    3    0    0 -0.41508408873E+01  0.59645067760E+02 -0.66028776115E+02  0.89076163273E+02  0.00000000000E+00 0. -1.
<mgrwt>
<rscale>  0 0.13787612E+03</rscale>
<asrwt>0</asrwt>
<pdfrwt beam="1">  1        1 0.89461523E-02 0.14527118E+03</pdfrwt>
<pdfrwt beam="2">  1       -1 0.48016232E-01 0.14527118E+03</pdfrwt>
<totfact> 0.31948314E+03</totfact>
</mgrwt>
</event>
<event>
 8    1  0.1273312E-005  0.1458210E+03  0.7546771E-02  0.1215799E+00
         -3   -1    0    0    0  501 -0.00000000000E+00  0.00000000000E+00  0.37752305849E+02  0.37752305849E+02  0.00000000000E+00 0.  1.
          3   -1    0    0  501    0  0.00000000000E+00 -0.00000000000E+00 -0.87887578189E+03  0.87887578189E+03  0.00000000000E+00 0. -1.
         23    2    1    2    0    0 -0.57989219395E+02 -0.47681752288E+02 -0.81322438158E+02  0.14296060669E+03  0.90488104464E+02 0.  0.
         23    2    1    2    0    0  0.57989219395E+02  0.47681752288E+02 -0.75980103788E+03  0.77366748105E+03  0.12500981961E+03 0.  0.
          5    1    4    4  502    0 -0.12924696369E+02  0.68055517134E+02 -0.43905931417E+03  0.44451521070E+03  0.47000000000E+01 0. -1.
         -5    1    4    4    0  502  0.70913915764E+02 -0.20373764846E+02 -0.32074172372E+03  0.32915227035E+03  0.47000000000E+01 0. -1.
        -11    1    3    3    0    0  0.50070254845E+01 -0.42047331751E+02 -0.65109639484E+02  0.77667970009E+02  0.00000000000E+00 0. -1.
         11    1    3    3    0    0 -0.62996244880E+02 -0.56344205376E+01 -0.16212798673E+02  0.65292636680E+02  0.00000000000E+00 0.  1.
<mgrwt>
<rscale>  0 0.13818018E+03</rscale>
<asrwt>0</asrwt>
<pdfrwt beam="2">  1        3 0.13521166E+00 0.14582097E+03</pdfrwt>
<pdfrwt beam="1">  1       -3 0.58080471E-02 0.14582097E+03</pdfrwt>
<totfact> 0.18835233E+02</totfact>
</mgrwt>
</event>
<event>
 8    1  0.1273312E-005  0.1342794E+03  0.7546771E-02  0.1234471E+00
         -2   -1    0    0    0  501 -0.00000000000E+00  0.00000000000E+00  0.16411137573E+02  0.16411137573E+02  0.00000000000E+00 0.  1.
          2   -1    0    0  501    0  0.00000000000E+00 -0.00000000000E+00 -0.91129645710E+03  0.91129645710E+03  0.00000000000E+00 0. -1.
         23    2    1    2    0    0 -0.24437562278E+02  0.42528468340E+02 -0.27225935858E+03  0.29076644253E+03  0.89521509709E+02 0.  0.
         23    2    1    2    0    0  0.24437562278E+02 -0.42528468340E+02 -0.62262596095E+03  0.63694115214E+03  0.12500031588E+03 0.  0.
          5    1    4    4  502    0 -0.28356232493E+02  0.10823848317E+02 -0.41464543061E+03  0.41578137854E+03  0.47000000000E+01 0. -1.
         -5    1    4    4    0  502  0.52793794771E+02 -0.53352316657E+02 -0.20798053034E+03  0.22115977360E+03  0.47000000000E+01 0. -1.
        -11    1    3    3    0    0  0.90839896577E+01  0.61698217540E+02 -0.18815174489E+03  0.19821772882E+03  0.00000000000E+00 0. -1.
         11    1    3    3    0    0 -0.33521551936E+02 -0.19169749200E+02 -0.84107613693E+02  0.92548713712E+02  0.00000000000E+00 0.  1.
<mgrwt>
<rscale>  0 0.12538345E+03</rscale>
<asrwt>0</asrwt>
<pdfrwt beam="2">  1        2 0.14019949E+00 0.13427935E+03</pdfrwt>
<pdfrwt beam="1">  1       -2 0.25247898E-02 0.13427935E+03</pdfrwt>
<totfact> 0.15615573E+04</totfact>
</mgrwt>
</event>
<event>
 7    1  0.1273312E-005  0.3932274E+03  0.7546771E-02  0.1046150E+00
         -4   -1    0    0    0  501 -0.00000000000E+00  0.00000000000E+00  0.17588439915E+03  0.17588439915E+03  0.00000000000E+00 0.  1.
          4   -1    0    0  501    0  0.00000000000E+00 -0.00000000000E+00 -0.21978610180E+03  0.21978610180E+03  0.00000000000E+00 0. -1.
         23    2    1    2    0    0  0.86498531006E+02 -0.90176565705E+02  0.59733867734E+02  0.15290112257E+03  0.64782786760E+02 0.  0.
          5    1    1    2  502    0 -0.13624398101E+03  0.77675778133E+02 -0.10890577274E+03  0.19099347163E+03  0.47000000000E+01 0. -1.
         -5    1    1    2    0  502  0.49745450002E+02  0.12500787572E+02  0.52702023605E+01  0.51775906740E+02  0.47000000000E+01 0.  1.
        -11    1    3    3    0    0  0.26466226473E+02 -0.73960079037E+02  0.32296053246E+02  0.84932852832E+02  0.00000000000E+00 0. -1.
         11    1    3    3    0    0  0.60032304533E+02 -0.16216486668E+02  0.27437814488E+02  0.67968269739E+02  0.00000000000E+00 0.  1.
<mgrwt>
<rscale>  0 0.39322740E+03</rscale>
<asrwt>0</asrwt>
<pdfrwt beam="2">  1        4 0.33813247E-01 0.39322740E+03</pdfrwt>
<pdfrwt beam="1">  1       -4 0.27059138E-01 0.39322740E+03</pdfrwt>
<totfact> 0.21197146E+02</totfact>
</mgrwt>
</event>
<event>
 8    1  0.1273312E-005  0.1713113E+03  0.7546771E-02  0.1182862E+00
         -1   -1    0    0    0  501 -0.00000000000E+00  0.00000000000E+00  0.25292247852E+02  0.25292247852E+02  0.00000000000E+00 0.  1.
          1   -1    0    0  501    0  0.00000000000E+00 -0.00000000000E+00 -0.12070369170E+04  0.12070369170E+04  0.00000000000E+00 0. -1.
         23    2    1    2    0    0 -0.10049552126E+03 -0.60194171726E+02 -0.30739096473E+03  0.34135107312E+03  0.91151861326E+02 0.  0.
         23    2    1    2    0    0  0.10049552126E+03  0.60194171726E+02 -0.87435370444E+03  0.89097809174E+03  0.12499948560E+03 0.  0.
          5    1    4    4  502    0  0.11570483022E+03  0.83218519425E+02 -0.75872437026E+03  0.77200886636E+03  0.47000000000E+01 0. -1.
         -5    1    4    4    0  502 -0.15209308961E+02 -0.23024347699E+02 -0.11562933418E+03  0.11896922538E+03  0.47000000000E+01 0. -1.
        -11    1    3    3    0    0 -0.78998791922E+02 -0.81360927430E+02 -0.20120756940E+03  0.23096513941E+03  0.00000000000E+00 0.  1.
         11    1    3    3    0    0 -0.21496729342E+02  0.21166755704E+02 -0.10618339533E+03  0.11038593372E+03  0.00000000000E+00 0. -1.
<mgrwt>
<rscale>  0 0.16527975E+03</rscale>
<asrwt>0</asrwt>
<pdfrwt beam="2">  1        1 0.18569798E+00 0.17131129E+03</pdfrwt>
<pdfrwt beam="1">  1       -1 0.38911152E-02 0.17131129E+03</pdfrwt>
<totfact> 0.28817647E+03</totfact>
</mgrwt>
</event>
<event>
 8    1  0.1273312E-005  0.1885309E+03  0.7546771E-02  0.1164910E+00
          1   -1    0    0  501    0  0.00000000000E+00  0.00000000000E+00  0.12263989110E+04  0.12263989110E+04  0.00000000000E+00 0. -1.
         -1   -1    0    0    0  501 -0.00000000000E+00 -0.00000000000E+00 -0.31554423235E+02  0.31554423235E+02  0.00000000000E+00 0.  1.
         23    2    1    2    0    0  0.65859422779E+02 -0.12483300111E+03  0.30095756107E+03  0.34440106292E+03  0.90088272508E+02 0.  0.
         23    2    1    2    0    0 -0.65859422779E+02  0.12483300111E+03  0.89388692674E+03  0.91355227136E+03  0.12499269164E+03 0.  0.
          5    1    4    4  502    0 -0.23217898126E+02  0.48798833445E+01  0.47752405987E+03  0.47813617497E+03  0.47000000000E+01 0. -1.
         -5    1    4    4    0  502 -0.42641524652E+02  0.11995311777E+03  0.41636286687E+03  0.43541609639E+03  0.47000000000E+01 0. -1.
        -11    1    3    3    0    0  0.45051958724E+01 -0.63755684141E+02  0.57367389419E+02  0.85884232656E+02  0.00000000000E+00 0.  1.
         11    1    3    3    0    0  0.61354226906E+02 -0.61077316973E+02  0.24359017165E+03  0.25851683027E+03  0.00000000000E+00 0. -1.
<mgrwt>
<rscale>  0 0.18302175E+03</rscale>
<asrwt>0</asrwt>
<pdfrwt beam="1">  1        1 0.18867672E+00 0.18853094E+03</pdfrwt>
<pdfrwt beam="2">  1       -1 0.48545276E-02 0.18853094E+03</pdfrwt>
<totfact> 0.20155018E+03</totfact>
</mgrwt>
</event>
<event>
 8    1  0.1273312E-005  0.1486700E+03  0.7546771E-02  0.1212224E+00
         -2   -1    0    0    0  501 -0.00000000000E+00  0.00000000000E+00  0.18180796402E+03  0.18180796402E+03  0.00000000000E+00 0.  1.
          2   -1    0    0  501    0  0.00000000000E+00 -0.00000000000E+00 -0.99225189427E+02  0.99225189427E+02  0.00000000000E+00 0. -1.
         23    2    1    2    0    0  0.33547570233E+02  0.73156239323E+02  0.43093947701E+02  0.12720811420E+03  0.88586348669E+02 0.  0.
         23    2    1    2    0    0 -0.33547570233E+02 -0.73156239323E+02  0.39488826895E+02  0.15382503925E+03  0.12500200170E+03 0.  0.
          5    1    4    4  502    0 -0.75391529404E+02 -0.34603892170E+02 -0.22291696669E+01  0.83116612398E+02  0.47000000000E+01 0. -1.
         -5    1    4    4    0  502  0.41843959170E+02 -0.38552347153E+02  0.41717996562E+02  0.70708426847E+02  0.47000000000E+01 0. -1.
        -11    1    3    3    0    0  0.57096859430E+02  0.76468300189E+02  0.29873933332E+02  0.99999520915E+02  0.00000000000E+00 0.  1.
         11    1    3    3    0    0 -0.23549289197E+02 -0.33120608654E+01  0.13220014369E+02  0.27208593289E+02  0.00000000000E+00 0. -1.
<mgrwt>
<rscale>  0 0.14082465E+03</rscale>
<asrwt>0</asrwt>
<pdfrwt beam="2">  1        2 0.15265414E-01 0.14867002E+03</pdfrwt>
<pdfrwt beam="1">  1       -2 0.27970456E-01 0.14867002E+03</pdfrwt>
<totfact> 0.42618335E+03</totfact>
</mgrwt>
</event>
<event>
 8    1  0.1273312E-005  0.1363902E+03  0.7546771E-02  0.1229805E+00
          1   -1    0    0  501    0  0.00000000000E+00  0.00000000000E+00  0.10531923680E+03  0.10531923680E+03  0.00000000000E+00 0. -1.
         -1   -1    0    0    0  501 -0.00000000000E+00 -0.00000000000E+00 -0.14242604723E+03  0.14242604723E+03  0.00000000000E+00 0.  1.
         23    2    1    2    0    0  0.18502393469E+02 -0.51279101051E+02 -0.29171849824E+02  0.11112445781E+03  0.92335061235E+02 0.  0.
         23    2    1    2    0    0 -0.18502393469E+02  0.51279101051E+02 -0.79349606028E+01  0.13662082622E+03  0.12502160528E+03 0.  0.
          5    1    4    4  502    0  0.20407140699E+02  0.20877071077E+02  0.51390998918E+02  0.59291047032E+02  0.47000000000E+01 0.  1.
         -5    1    4    4    0  502 -0.38909534169E+02  0.30402029974E+02 -0.59325959521E+02  0.77329779186E+02  0.47000000000E+01 0.  1.
        -11    1    3    3    0    0 -0.96106750080E+01 -0.71616643816E+02 -0.23375439153E+02  0.75945506129E+02  0.00000000000E+00 0.  1.
         11    1    3    3    0    0  0.28113068478E+02  0.20337542765E+02 -0.57964106714E+01  0.35178951684E+02  0.00000000000E+00 0. -1.
<mgrwt>
<rscale>  0 0.12842912E+03</rscale>
<asrwt>0</asrwt>
<pdfrwt beam="1">  1        1 0.16202960E-01 0.13639020E+03</pdfrwt>
<pdfrwt beam="2">  1       -1 0.21911700E-01 0.13639020E+03</pdfrwt>
<totfact> 0.55600095E+03</totfact>
</mgrwt>
</event>
<event>
 8    1  0.1273312E-005  0.1261208E+03  0.7546771E-02  0.1249029E+00
          1   -1    0    0  501    0  0.00000000000E+00  0.00000000000E+00  0.32496923052E+03  0.32496923052E+03  0.00000000000E+00 0. -1.
         -1   -1    0    0    0  501 -0.00000000000E+00 -0.00000000000E+00 -0.37786736404E+02  0.37786736404E+02  0.00000000000E+00 0.  1.
         23    2    1    2    0    0 -0.11003862420E+02 -0.12772735919E+02  0.88814345232E+02  0.12768919106E+03  0.90179342559E+02 0.  0.
         23    2    1    2    0    0  0.11003862420E+02  0.12772735919E+02  0.19836814888E+03  0.23506677586E+03  0.12498895492E+03 0.  0.
          5    1    4    4  502    0  0.35045752968E+02  0.58529316263E+02  0.14658683486E+03  0.16175189587E+03  0.47000000000E+01 0. -1.
         -5    1    4    4    0  502 -0.24041890548E+02 -0.45756580344E+02  0.51781314022E+02  0.73314879989E+02  0.47000000000E+01 0. -1.
        -11    1    3    3    0    0  0.28735666936E+02  0.89197768289E+01  0.24632283720E+01  0.30188879855E+02  0.00000000000E+00 0.  1.
         11    1    3    3    0    0 -0.39739529355E+02 -0.21692512748E+02  0.86351116860E+02  0.97500311208E+02  0.00000000000E+00 0. -1.
<mgrwt>
<rscale>  0 0.11647477E+03</rscale>
<asrwt>0</asrwt>
<pdfrwt beam="1">  1        1 0.49995264E-01 0.12612084E+03</pdfrwt>
<pdfrwt beam="2">  1       -1 0.58133443E-02 0.12612084E+03</pdfrwt>
<totfact> 0.10432441E+04</totfact>
</mgrwt>
</event>
<event>
 8    1  0.1273312E-005  0.1370072E+03  0.7546771E-02  0.1229393E+00
         -2   -1    0    0    0  501 -0.00000000000E+00  0.00000000000E+00  0.14013341907E+02  0.14013341907E+02  0.00000000000E+00 0.  1.
          2   -1    0    0  501    0  0.00000000000E+00 -0.00000000000E+00 -0.11698239262E+04  0.11698239262E+04  0.00000000000E+00 0. -1.
         23    2    1    2    0    0  0.50903659947E+02  0.23557924275E+02 -0.33228479483E+03  0.34899255253E+03  0.90754936283E+02 0.  0.
         23    2    1    2    0    0 -0.50903659947E+02 -0.23557924275E+02 -0.82352578951E+03  0.83484471562E+03  0.12499925924E+03 0.  0.
          5    1    4    4  502    0 -0.10887235823E+02  0.53906101574E+01 -0.37308437366E+01  0.13549899510E+02  0.47000000000E+01 0. -1.
         -5    1    4    4    0  502 -0.40016424123E+02 -0.28948534432E+02 -0.81979494578E+03  0.82129481611E+03  0.47000000000E+01 0. -1.
        -11    1    3    3    0    0  0.15364369561E+02  0.55506735812E+02 -0.20833522485E+03  0.21614954889E+03  0.00000000000E+00 0.  1.
         11    1    3    3    0    0  0.35539290385E+02 -0.31948811537E+02 -0.12394956998E+03  0.13284300364E+03  0.00000000000E+00 0. -1.
<mgrwt>
<rscale>  0 0.12870275E+03</rscale>
<asrwt>0</asrwt>
<pdfrwt beam="2">  1        2 0.17997294E+00 0.13700720E+03</pdfrwt>
<pdfrwt beam="1">  1       -2 0.21558984E-02 0.13700720E+03</pdfrwt>
<totfact> 0.13868359E+04</totfact>
</mgrwt>
</event>
<event>
 8    1  0.1273312E-005  0.1351505E+03  0.7546771E-02  0.1232690E+00
         -1   -1    0    0    0  501 -0.00000000000E+00  0.00000000000E+00  0.66368592203E+02  0.66368592203E+02  0.00000000000E+00 0.  1.
          1   -1    0    0  501    0  0.00000000000E+00 -0.00000000000E+00 -0.21693149976E+03  0.21693149976E+03  0.00000000000E+00 0. -1.
         23    2    1    2    0    0  0.51285002153E+02  0.28861757097E+01 -0.52808331677E+02  0.11650198878E+03  0.90252490488E+02 0.  0.
         23    2    1    2    0    0 -0.51285002153E+02 -0.28861757097E+01 -0.97754575882E+02  0.16679810318E+03  0.12500867435E+03 0.  0.
          5    1    4    4  502    0 -0.77676049130E+02  0.31916694768E+02 -0.88133648973E+02  0.12182723051E+03  0.47000000000E+01 0. -1.
         -5    1    4    4    0  502  0.26391046977E+02 -0.34802870478E+02 -0.96209269086E+01  0.44970872669E+02  0.47000000000E+01 0. -1.
        -11    1    3    3    0    0  0.46503836146E+02 -0.86936082789E+01  0.13358733446E+02  0.49159346624E+02  0.00000000000E+00 0.  1.
         11    1    3    3    0    0  0.47811660065E+01  0.11579783989E+02 -0.66167065123E+02  0.67342642156E+02  0.00000000000E+00 0. -1.
<mgrwt>
<rscale>  0 0.12653499E+03</rscale>
<asrwt>0</asrwt>
<pdfrwt beam="2">  1        1 0.33374076E-01 0.13515047E+03</pdfrwt>
<pdfrwt beam="1">  1       -1 0.10210553E-01 0.13515047E+03</pdfrwt>
<totfact> 0.74027089E+03</totfact>
</mgrwt>
</event>
<event>
 8    1  0.1273312E-005  0.1750983E+03  0.7546771E-02  0.1176936E+00
         -2   -1    0    0    0  501 -0.00000000000E+00  0.00000000000E+00  0.87580181666E+02  0.87580181666E+02  0.00000000000E+00 0.  1.
          2   -1    0    0  501    0  0.00000000000E+00 -0.00000000000E+00 -0.33381475245E+03  0.33381475245E+03  0.00000000000E+00 0. -1.
         23    2    1    2    0    0 -0.10604873948E+03 -0.61536548999E+02 -0.71988094330E+02  0.17437015486E+03  0.10094346523E+03 0.  0.
         23    2    1    2    0    0  0.10604873948E+03  0.61536548999E+02 -0.17424647646E+03  0.24702477926E+03  0.12500529989E+03 0.  0.
          5    1    4    4  502    0 -0.25470716289E+02 -0.46394856415E+00 -0.47382405075E+02  0.54001434677E+02  0.47000000000E+01 0.  1.
         -5    1    4    4    0  502  0.13151945577E+03  0.62000497564E+02 -0.12686407138E+03  0.19302334458E+03  0.47000000000E+01 0.  1.
        -11    1    3    3    0    0 -0.75423859289E+02 -0.64849629168E+02 -0.37944191667E+01  0.99542104509E+02  0.00000000000E+00 0.  1.
         11    1    3    3    0    0 -0.30624880196E+02  0.33130801688E+01 -0.68193675163E+02  0.74828050352E+02  0.00000000000E+00 0. -1.
<mgrwt>
<rscale>  0 0.17087766E+03</rscale>
<asrwt>0</asrwt>
<pdfrwt beam="2">  1        2 0.51356116E-01 0.17509828E+03</pdfrwt>
<pdfrwt beam="1">  1       -2 0.13473874E-01 0.17509828E+03</pdfrwt>
<totfact> 0.38867233E+03</totfact>
</mgrwt>
</event>
<event>
 8    1  0.1273312E-005  0.1352811E+03  0.7546771E-02  0.1231173E+00
          1   -1    0    0  501    0  0.00000000000E+00  0.00000000000E+00  0.12456559246E+04  0.12456559246E+04  0.00000000000E+00 0. -1.
         -1   -1    0    0    0  501 -0.00000000000E+00 -0.00000000000E+00 -0.14660063291E+02  0.14660063291E+02  0.00000000000E+00 0.  1.
         23    2    1    2    0    0  0.49766446937E+02  0.14126518164E+02  0.27894873891E+03  0.29870551963E+03  0.93468340970E+02 0.  0.
         23    2    1    2    0    0 -0.49766446937E+02 -0.14126518164E+02  0.95204712237E+03  0.96161046823E+03  0.12499884655E+03 0.  0.
          5    1    4    4  502    0 -0.97860218441E+01  0.89067120547E+01  0.84291440422E+03  0.84303136275E+03  0.47000000000E+01 0. -1.
         -5    1    4    4    0  502 -0.39980425093E+02 -0.23033230218E+02  0.10913271815E+03  0.11857910548E+03  0.47000000000E+01 0. -1.
        -11    1    3    3    0    0 -0.78365899529E+01  0.40831765432E+02  0.84906381509E+02  0.94539615143E+02  0.00000000000E+00 0.  1.
         11    1    3    3    0    0  0.57603036890E+02 -0.26705247269E+02  0.19404235740E+03  0.20416590449E+03  0.00000000000E+00 0. -1.
<mgrwt>
<rscale>  0 0.12752661E+03</rscale>
<asrwt>0</asrwt>
<pdfrwt beam="1">  1        1 0.19163929E+00 0.13528108E+03</pdfrwt>
<pdfrwt beam="2">  1       -1 0.22553953E-02 0.13528108E+03</pdfrwt>
<totfact> 0.59743001E+03</totfact>
</mgrwt>
</event>
<event>
 8    1  0.1273312E-005  0.1631434E+03  0.7546771E-02  0.1193320E+00
          1   -1    0    0  501    0  0.00000000000E+00  0.00000000000E+00  0.33303011847E+03  0.33303011847E+03  0.00000000000E+00 0. -1.
         -1   -1    0    0    0  501 -0.00000000000E+00 -0.00000000000E+00 -0.70400455019E+02  0.70400455019E+02  0.00000000000E+00 0.  1.
         23    2    1    2    0    0 -0.55896295029E+02 -0.88696029428E+02  0.77957243551E+02  0.15701696388E+03  0.87095428643E+02 0.  0.
         23    2    1    2    0    0  0.55896295029E+02  0.88696029428E+02  0.18467241990E+03  0.24641360961E+03  0.12499753155E+03 0.  0.
          5    1    4    4  502    0 -0.33250363251E+02  0.24266846897E+02  0.14818920542E+02  0.44001783154E+02  0.47000000000E+01 0. -1.
         -5    1    4    4    0  502  0.89146658280E+02  0.64429182531E+02  0.16985349936E+03  0.20241182645E+03  0.47000000000E+01 0. -1.
        -11    1    3    3    0    0 -0.30077889322E+02  0.68117785447E+01  0.41221463681E+02  0.51480955906E+02  0.00000000000E+00 0. -1.
         11    1    3    3    0    0 -0.25818405707E+02 -0.95507807972E+02  0.36735779871E+02  0.10553600798E+03  0.00000000000E+00 0.  1.
<mgrwt>
<rscale>  0 0.15597286E+03</rscale>
<asrwt>0</asrwt>
<pdfrwt beam="1">  1        1 0.51235402E-01 0.16314339E+03</pdfrwt>
<pdfrwt beam="2">  1       -1 0.10830839E-01 0.16314339E+03</pdfrwt>
<totfact> 0.40160085E+03</totfact>
</mgrwt>
</event>
<event>
 8    1  0.1273312E-005  0.2432577E+03  0.7546771E-02  0.1120070E+00
          2   -1    0    0  501    0  0.00000000000E+00  0.00000000000E+00  0.98150739556E+03  0.98150739556E+03  0.00000000000E+00 0. -1.
         -2   -1    0    0    0  501 -0.00000000000E+00 -0.00000000000E+00 -0.57925605134E+02  0.57925605134E+02  0.00000000000E+00 0.  1.
         23    2    1    2    0    0  0.20742528744E+03  0.22868641037E+02  0.37501751667E+03  0.43935211447E+03  0.94042107940E+02 0.  0.
         23    2    1    2    0    0 -0.20742528744E+03 -0.22868641037E+02  0.54856427376E+03  0.60008088622E+03  0.12500433175E+03 0.  0.
          5    1    4    4  502    0 -0.77355383125E+02 -0.68230213601E+02  0.27523132476E+03  0.29396188440E+03  0.47000000000E+01 0.  1.
         -5    1    4    4    0  502 -0.13006990432E+03  0.45361572564E+02  0.27333294899E+03  0.30611900183E+03  0.47000000000E+01 0.  1.
        -11    1    3    3    0    0  0.81419007423E+02  0.13545649866E+02  0.66601363086E+02  0.10605791326E+03  0.00000000000E+00 0.  1.
         11    1    3    3    0    0  0.12600628002E+03  0.93229911716E+01  0.30841615359E+03  0.33329420121E+03  0.00000000000E+00 0. -1.
<mgrwt>
<rscale>  0 0.23958422E+03</rscale>
<asrwt>0</asrwt>
<pdfrwt beam="1">  1        2 0.15100113E+00 0.24325770E+03</pdfrwt>
<pdfrwt beam="2">  1       -2 0.89116322E-02 0.24325770E+03</pdfrwt>
<totfact> 0.21456799E+03</totfact>
</mgrwt>
</event>
<event>
 8    1  0.1273312E-005  0.2014795E+03  0.7546771E-02  0.1152800E+00
          1   -1    0    0  501    0  0.00000000000E+00  0.00000000000E+00  0.21825621781E+03  0.21825621781E+03  0.00000000000E+00 0. -1.
         -1   -1    0    0    0  501 -0.00000000000E+00 -0.00000000000E+00 -0.17842521038E+03  0.17842521038E+03  0.00000000000E+00 0.  1.
         23    2    1    2    0    0  0.49743837004E+02  0.14998053471E+03 -0.27950657291E+02  0.18410589983E+03  0.90250390567E+02 0.  0.
         23    2    1    2    0    0 -0.49743837004E+02 -0.14998053471E+03  0.67781664719E+02  0.21257552836E+03  0.12500156429E+03 0.  0.
          5    1    4    4  502    0 -0.11698057927E+02 -0.14624941206E+03  0.15456746923E+02  0.14760330657E+03  0.47000000000E+01 0. -1.
         -5    1    4    4    0  502 -0.38045779078E+02 -0.37311226522E+01  0.52324917796E+02  0.64972221790E+02  0.47000000000E+01 0. -1.
        -11    1    3    3    0    0  0.13278405874E+02  0.29458666232E+01  0.20899309740E+02  0.24935423404E+02  0.00000000000E+00 0. -1.
         11    1    3    3    0    0  0.36465431131E+02  0.14703466809E+03 -0.48849967031E+02  0.15917047643E+03  0.00000000000E+00 0.  1.
<mgrwt>
<rscale>  0 0.19641481E+03</rscale>
<asrwt>0</asrwt>
<pdfrwt beam="1">  1        1 0.33577880E-01 0.20147953E+03</pdfrwt>
<pdfrwt beam="2">  1       -1 0.27450032E-01 0.20147953E+03</pdfrwt>
<totfact> 0.15486226E+03</totfact>
</mgrwt>
</event>
<event>
 8    1  0.1694856E-005  0.2020099E+03  0.7546771E-02  0.1152097E+00
         -2   -1    0    0    0  501 -0.00000000000E+00  0.00000000000E+00  0.32943043354E+03  0.32943043354E+03  0.00000000000E+00 0. -1.
          2   -1    0    0  501    0  0.00000000000E+00 -0.00000000000E+00 -0.11424734066E+03  0.11424734066E+03  0.00000000000E+00 0.  1.
         23    2    1    2    0    0 -0.15773329018E+03 -0.17428904918E+02  0.12728506777E+03  0.22337326449E+03  0.92252746595E+02 0.  0.
         23    2    1    2    0    0  0.15773329018E+03  0.17428904918E+02  0.87898025105E+02  0.22030450971E+03  0.12499782648E+03 0.  0.
          5    1    4    4  502    0  0.16977278410E+03 -0.95707394875E+01  0.63100136745E+02  0.18143349893E+03  0.47000000000E+01 0.  1.
         -5    1    4    4    0  502 -0.12039493925E+02  0.26999644406E+02  0.24797888360E+02  0.38871010781E+02  0.47000000000E+01 0.  1.
        -11    1    3    3    0    0 -0.10671224553E+03 -0.53990971527E+02  0.71104492590E+02  0.13913438546E+03  0.00000000000E+00 0.  1.
         11    1    3    3    0    0 -0.51021044651E+02  0.36562066609E+02  0.56180575178E+02  0.84238879024E+02  0.00000000000E+00 0. -1.
<mgrwt>
<rscale>  0 0.19723039E+03</rscale>
<asrwt>0</asrwt>
<pdfrwt beam="2">  1        2 0.17576514E-01 0.20200994E+03</pdfrwt>
<pdfrwt beam="1">  1       -2 0.50681605E-01 0.20200994E+03</pdfrwt>
<totfact> 0.11964987E+03</totfact>
</mgrwt>
</event>
<event>
 8    1  0.1273312E-005  0.1391346E+03  0.7546771E-02  0.1225634E+00
          2   -1    0    0  501    0  0.00000000000E+00  0.00000000000E+00  0.10556264901E+03  0.10556264901E+03  0.00000000000E+00 0. -1.
         -2   -1    0    0    0  501 -0.00000000000E+00 -0.00000000000E+00 -0.14715513513E+03  0.14715513513E+03  0.00000000000E+00 0.  1.
         23    2    1    2    0    0  0.43551277117E+02 -0.42860881339E+02 -0.19387455282E+02  0.11182243269E+03  0.91622126926E+02 0.  0.
         23    2    1    2    0    0 -0.43551277117E+02  0.42860881339E+02 -0.22205030833E+02  0.14089535146E+03  0.12499867111E+03 0.  0.
          5    1    4    4  502    0 -0.66071830801E+02 -0.20799473881E+02  0.71237681230E+00  0.69431278397E+02  0.47000000000E+01 0.  1.
         -5    1    4    4    0  502  0.22520553685E+02  0.63660355220E+02 -0.22917407646E+02  0.71464073059E+02  0.47000000000E+01 0.  1.
        -11    1    3    3    0    0  0.42841093120E+02 -0.68367856834E+02 -0.15633914114E+01  0.80696761401E+02  0.00000000000E+00 0.  1.
         11    1    3    3    0    0  0.71018399664E+00  0.25506975496E+02 -0.17824063871E+02  0.31125671288E+02  0.00000000000E+00 0. -1.
<mgrwt>
<rscale>  0 0.13123562E+03</rscale>
<asrwt>0</asrwt>
<pdfrwt beam="1">  1        2 0.16240408E-01 0.13913460E+03</pdfrwt>
<pdfrwt beam="2">  1       -2 0.22639252E-01 0.13913460E+03</pdfrwt>
<totfact> 0.57170538E+03</totfact>
</mgrwt>
</event>
<event>
 8    1  0.1273312E-005  0.1252073E+03  0.7546771E-02  0.1250484E+00
         -1   -1    0    0    0  501 -0.00000000000E+00  0.00000000000E+00  0.25227188686E+03  0.25227188686E+03  0.00000000000E+00 0.  1.
          1   -1    0    0  501    0  0.00000000000E+00 -0.00000000000E+00 -0.46636651743E+02  0.46636651743E+02  0.00000000000E+00 0. -1.
         23    2    1    2    0    0 -0.54638925811E+01  0.46904037156E+01  0.98106661218E+02  0.13386535492E+03  0.90791862323E+02 0.  0.
         23    2    1    2    0    0  0.54638925811E+01 -0.46904037156E+01  0.10752857390E+03  0.16504318368E+03  0.12500001706E+03 0.  0.
          5    1    4    4  502    0  0.62936170887E+02  0.70230888238E+01  0.38180762595E+02  0.74095519533E+02  0.47000000000E+01 0. -1.
         -5    1    4    4    0  502 -0.57472278306E+02 -0.11713492539E+02  0.69347811305E+02  0.90947664148E+02  0.47000000000E+01 0. -1.
        -11    1    3    3    0    0  0.59629397917E+01 -0.31424402307E+02  0.89467738109E+02  0.95013293142E+02  0.00000000000E+00 0.  1.
         11    1    3    3    0    0 -0.11426832373E+02  0.36114806022E+02  0.86389231085E+01  0.38852061780E+02  0.00000000000E+00 0. -1.
<mgrwt>
<rscale>  0 0.11563100E+03</rscale>
<asrwt>0</asrwt>
<pdfrwt beam="2">  1        1 0.71748697E-02 0.12520726E+03</pdfrwt>
<pdfrwt beam="1">  1       -1 0.38811059E-01 0.12520726E+03</pdfrwt>
<totfact> 0.62080561E+03</totfact>
</mgrwt>
</event>
<event>
 7    1  0.1273312E-005  0.1555574E+04  0.7546771E-02  0.8848315E-01
          2   -1    0    0  501    0  0.00000000000E+00  0.00000000000E+00  0.22283263294E+04  0.22283263294E+04  0.00000000000E+00 0. -1.
         -2   -1    0    0    0  501 -0.00000000000E+00 -0.00000000000E+00 -0.27148284739E+03  0.27148284739E+03  0.00000000000E+00 0.  1.
         23    2    1    2    0    0 -0.23924935062E+03  0.25505709586E+03 -0.50476046949E+02  0.36921684185E+03  0.10713949350E+03 0.  0.
          5    1    1    2  502    0  0.10369743187E+03 -0.18560357289E+03  0.19593237203E+04  0.19708306306E+04  0.47000000000E+01 0. -1.
         -5    1    1    2    0  502  0.13555191875E+03 -0.69453522973E+02  0.47995808696E+02  0.15976170437E+03  0.47000000000E+01 0.  1.
        -11    1    3    3    0    0 -0.15614299122E+03  0.23170361709E+03 -0.40195965424E+02  0.28228162448E+03  0.00000000000E+00 0.  1.
         11    1    3    3    0    0 -0.83106359401E+02  0.23353478771E+02 -0.10280081524E+02  0.86935217374E+02  0.00000000000E+00 0. -1.
<mgrwt>
<rscale>  0 0.15555737E+04</rscale>
<asrwt>0</asrwt>
<pdfrwt beam="1">  1        2 0.34281942E+00 0.15555737E+04</pdfrwt>
<pdfrwt beam="2">  1       -2 0.41766593E-01 0.15555737E+04</pdfrwt>
<totfact> 0.26040893E+01</totfact>
</mgrwt>
</event>
<event>
 8    1  0.1273312E-005  0.1348687E+03  0.7546771E-02  0.1232625E+00
          1   -1    0    0  501    0  0.00000000000E+00  0.00000000000E+00  0.41776561280E+03  0.41776561280E+03  0.00000000000E+00 0. -1.
         -1   -1    0    0    0  501 -0.00000000000E+00 -0.00000000000E+00 -0.35462628480E+02  0.35462628480E+02  0.00000000000E+00 0.  1.
         23    2    1    2    0    0 -0.10913882281E+02 -0.49425762843E+02  0.12756090564E+03  0.16498687180E+03  0.91579825066E+02 0.  0.
         23    2    1    2    0    0  0.10913882281E+02  0.49425762843E+02  0.25474207867E+03  0.28824136947E+03  0.12501016587E+03 0.  0.
          5    1    4    4  502    0  0.52710402241E+02  0.69848225834E+02  0.15424217450E+03  0.17739757482E+03  0.47000000000E+01 0. -1.
         -5    1    4    4    0  502 -0.41796519960E+02 -0.20422462991E+02  0.10049990417E+03  0.11084379465E+03  0.47000000000E+01 0. -1.
        -11    1    3    3    0    0 -0.16203832852E+02  0.22758061243E+02  0.16568143873E+02  0.32480716465E+02  0.00000000000E+00 0.  1.
         11    1    3    3    0    0  0.52899505715E+01 -0.72183824086E+02  0.11099276177E+03  0.13250615534E+03  0.00000000000E+00 0. -1.
<mgrwt>
<rscale>  0 0.12657693E+03</rscale>
<asrwt>0</asrwt>
<pdfrwt beam="1">  1        1 0.64271629E-01 0.13486868E+03</pdfrwt>
<pdfrwt beam="2">  1       -1 0.54557893E-02 0.13486868E+03</pdfrwt>
<totfact> 0.84135654E+03</totfact>
</mgrwt>
</event>
<event>
 8    1  0.1273312E-005  0.1352554E+03  0.7546771E-02  0.1235357E+00
         -3   -1    0    0    0  501 -0.00000000000E+00  0.00000000000E+00  0.23613573397E+03  0.23613573397E+03  0.00000000000E+00 0.  1.
          3   -1    0    0  501    0  0.00000000000E+00 -0.00000000000E+00 -0.65492190388E+02  0.65492190388E+02  0.00000000000E+00 0. -1.
         23    2    1    2    0    0  0.30729354269E+02 -0.41537970365E+02  0.12497461796E+03  0.15887048969E+03  0.83375542952E+02 0.  0.
         23    2    1    2    0    0 -0.30729354269E+02  0.41537970365E+02  0.45668925622E+02  0.14275743467E+03  0.12499735274E+03 0.  0.
          5    1    4    4  502    0  0.88622614357E+01  0.41563499967E+02  0.79630858805E+02  0.90383781074E+02  0.47000000000E+01 0. -1.
         -5    1    4    4    0  502 -0.39591615705E+02 -0.25529601514E-01 -0.33961933183E+02  0.52373653600E+02  0.47000000000E+01 0. -1.
        -11    1    3    3    0    0  0.43769383214E+02 -0.16857605244E+01  0.10211465250E+03  0.11111256883E+03  0.00000000000E+00 0.  1.
         11    1    3    3    0    0 -0.13040028945E+02 -0.39852209841E+02  0.22859965459E+02  0.47757920860E+02  0.00000000000E+00 0. -1.
<mgrwt>
<rscale>  0 0.12481581E+03</rscale>
<asrwt>0</asrwt>
<pdfrwt beam="2">  1        3 0.10075722E-01 0.13525544E+03</pdfrwt>
<pdfrwt beam="1">  1       -3 0.36328574E-01 0.13525544E+03</pdfrwt>
<totfact> 0.12532425E+03</totfact>
</mgrwt>
</event>
<event>
 8    1  0.1273312E-005  0.1328970E+03  0.7546771E-02  0.1235709E+00
          3   -1    0    0  501    0  0.00000000000E+00  0.00000000000E+00  0.17875634235E+03  0.17875634235E+03  0.00000000000E+00 0. -1.
         -3   -1    0    0    0  501 -0.00000000000E+00 -0.00000000000E+00 -0.80314150977E+02  0.80314150977E+02  0.00000000000E+00 0.  1.
         23    2    1    2    0    0 -0.42398698558E+02 -0.15475081396E+02  0.19507861281E+02  0.10449931839E+03  0.92208584784E+02 0.  0.
         23    2    1    2    0    0  0.42398698558E+02  0.15475081396E+02  0.78934330097E+02  0.15457117495E+03  0.12499796747E+03 0.  0.
          5    1    4    4  502    0  0.34465993064E+02 -0.44590697525E+02  0.74646746364E+02  0.93650743331E+02  0.47000000000E+01 0. -1.
         -5    1    4    4    0  502  0.79327054932E+01  0.60065778921E+02  0.42875837335E+01  0.60920431614E+02  0.47000000000E+01 0. -1.
        -11    1    3    3    0    0 -0.35741011812E+02  0.20831605887E+02  0.43849351988E+02  0.60283840280E+02  0.00000000000E+00 0. -1.
         11    1    3    3    0    0 -0.66576867459E+01 -0.36306687283E+02 -0.24341490707E+02  0.44215478106E+02  0.00000000000E+00 0.  1.
<mgrwt>
<rscale>  0 0.12459173E+03</rscale>
<asrwt>0</asrwt>
<pdfrwt beam="1">  1        3 0.27500976E-01 0.13289703E+03</pdfrwt>
<pdfrwt beam="2">  1       -3 0.12356023E-01 0.13289703E+03</pdfrwt>
<totfact> 0.14940326E+03</totfact>
</mgrwt>
</event>
<event>
 8    1  0.1273312E-005  0.1278339E+03  0.7546771E-02  0.1245838E+00
          1   -1    0    0  501    0  0.00000000000E+00  0.00000000000E+00  0.20029293965E+03  0.20029293965E+03  0.00000000000E+00 0. -1.
         -1   -1    0    0    0  501 -0.00000000000E+00 -0.00000000000E+00 -0.61400230684E+02  0.61400230684E+02  0.00000000000E+00 0.  1.
         23    2    1    2    0    0  0.25708977238E+02 -0.72014466412E+01  0.56626648294E+02  0.10967602920E+03  0.90052438830E+02 0.  0.
         23    2    1    2    0    0 -0.25708977238E+02  0.72014466412E+01  0.82266060669E+02  0.15201714113E+03  0.12501477559E+03 0.  0.
          5    1    4    4  502    0  0.25954400065E+02 -0.14552178170E+02 -0.19396540836E+02  0.35828934797E+02  0.47000000000E+01 0. -1.
         -5    1    4    4    0  502 -0.51663377303E+02  0.21753624811E+02  0.10166260151E+03  0.11618820634E+03  0.47000000000E+01 0. -1.
        -11    1    3    3    0    0 -0.23372700396E+02  0.53644956682E+01 -0.99933074152E+01  0.25979359705E+02  0.00000000000E+00 0.  1.
         11    1    3    3    0    0  0.49081677634E+02 -0.12565942309E+02  0.66619955709E+02  0.83696669493E+02  0.00000000000E+00 0. -1.
<mgrwt>
<rscale>  0 0.11835374E+03</rscale>
<asrwt>0</asrwt>
<pdfrwt beam="1">  1        1 0.30814298E-01 0.12783390E+03</pdfrwt>
<pdfrwt beam="2">  1       -1 0.94461894E-02 0.12783390E+03</pdfrwt>
<totfact> 0.91632127E+03</totfact>
</mgrwt>
</event>
<event>
 8    1  0.1273312E-005  0.1449356E+03  0.7546771E-02  0.1217073E+00
          2   -1    0    0  501    0  0.00000000000E+00  0.00000000000E+00  0.38320424818E+03  0.38320424818E+03  0.00000000000E+00 0. -1.
         -2   -1    0    0    0  501 -0.00000000000E+00 -0.00000000000E+00 -0.58795624418E+02  0.58795624418E+02  0.00000000000E+00 0.  1.
         23    2    1    2    0    0  0.16780390860E+02 -0.71163459739E+02  0.40793005051E+02  0.12349688933E+03  0.90783219228E+02 0.  0.
         23    2    1    2    0    0 -0.16780390860E+02  0.71163459739E+02  0.28361561871E+03  0.31850298327E+03  0.12514196600E+03 0.  0.
          5    1    4    4  502    0 -0.36380582264E+02  0.75678475765E+02  0.28562601290E+03  0.29775004233E+03  0.47000000000E+01 0. -1.
         -5    1    4    4    0  502  0.19600191404E+02 -0.45150160263E+01 -0.20103941939E+01  0.20752940939E+02  0.47000000000E+01 0. -1.
        -11    1    3    3    0    0 -0.24535667945E+02 -0.51201957411E+02 -0.70420152821E+01  0.57212144020E+02  0.00000000000E+00 0.  1.
         11    1    3    3    0    0  0.41316058805E+02 -0.19961502328E+02  0.47835020333E+02  0.66284745309E+02  0.00000000000E+00 0. -1.
<mgrwt>
<rscale>  0 0.13725350E+03</rscale>
<asrwt>0</asrwt>
<pdfrwt beam="1">  1        2 0.58954498E-01 0.14493561E+03</pdfrwt>
<pdfrwt beam="2">  1       -2 0.90454809E-02 0.14493561E+03</pdfrwt>
<totfact> 0.62613499E+03</totfact>
</mgrwt>
</event>
<event>
 8    1  0.1273312E-005  0.1301370E+03  0.7546771E-02  0.1241189E+00
          1   -1    0    0  501    0  0.00000000000E+00  0.00000000000E+00  0.45066412107E+03  0.45066412107E+03  0.00000000000E+00 0.  1.
         -1   -1    0    0    0  501 -0.00000000000E+00 -0.00000000000E+00 -0.32620532625E+02  0.32620532625E+02  0.00000000000E+00 0. -1.
         23    2    1    2    0    0 -0.26873797077E+02 -0.24271268390E+02  0.10106240554E+03  0.14062926740E+03  0.90838789056E+02 0.  0.
         23    2    1    2    0    0  0.26873797077E+02  0.24271268390E+02  0.31698118291E+03  0.34265538630E+03  0.12499739198E+03 0.  0.
          5    1    4    4  502    0  0.11465836021E+02  0.73498948817E+02  0.22586618867E+03  0.23784698035E+03  0.47000000000E+01 0. -1.
         -5    1    4    4    0  502  0.15407961055E+02 -0.49227680427E+02  0.91114994237E+02  0.10480840596E+03  0.47000000000E+01 0. -1.
        -11    1    3    3    0    0  0.28230208879E+02  0.58110877611E+01  0.57177436279E+02  0.64031028836E+02  0.00000000000E+00 0.  1.
         11    1    3    3    0    0 -0.55104005955E+02 -0.30082356151E+02  0.43884969256E+02  0.76598238560E+02  0.00000000000E+00 0. -1.
<mgrwt>
<rscale>  0 0.12116433E+03</rscale>
<asrwt>0</asrwt>
<pdfrwt beam="1">  1        1 0.69332937E-01 0.13013702E+03</pdfrwt>
<pdfrwt beam="2">  1       -1 0.50185438E-02 0.13013702E+03</pdfrwt>
<totfact> 0.86248348E+03</totfact>
</mgrwt>
</event>
<event>
 8    1  0.1273312E-005  0.2089064E+03  0.7546771E-02  0.1146340E+00
         -2   -1    0    0    0  501 -0.00000000000E+00  0.00000000000E+00  0.92900843708E+02  0.92900843708E+02  0.00000000000E+00 0.  1.
          2   -1    0    0  501    0  0.00000000000E+00 -0.00000000000E+00 -0.89700924541E+03  0.89700924541E+03  0.00000000000E+00 0. -1.
         23    2    1    2    0    0  0.83692321017E+02  0.14495637441E+03 -0.35668225847E+02  0.19357964958E+03  0.90466034059E+02 0.  0.
         23    2    1    2    0    0 -0.83692321017E+02 -0.14495637441E+03 -0.76844017585E+03  0.79633043953E+03  0.12500043991E+03 0.  0.
          5    1    4    4  502    0 -0.93398340357E+02 -0.38080139987E+02 -0.34446636025E+03  0.35896031868E+03  0.47000000000E+01 0.  1.
         -5    1    4    4    0  502  0.97060193397E+01 -0.10687623442E+03 -0.42397381560E+03  0.43737012085E+03  0.47000000000E+01 0.  1.
        -11    1    3    3    0    0  0.46658050692E+02  0.14493700025E+03 -0.20816361609E+02  0.15367832849E+03  0.00000000000E+00 0. -1.
         11    1    3    3    0    0  0.37034270325E+02  0.19374159845E-01 -0.14851864238E+02  0.39901321096E+02  0.00000000000E+00 0.  1.
<mgrwt>
<rscale>  0 0.20408148E+03</rscale>
<asrwt>0</asrwt>
<pdfrwt beam="2">  1        2 0.13800142E+00 0.20890635E+03</pdfrwt>
<pdfrwt beam="1">  1       -2 0.14292437E-01 0.20890635E+03</pdfrwt>
<totfact> 0.11343727E+03</totfact>
</mgrwt>
</event>
<event>
 8    1  0.1273312E-005  0.1581981E+03  0.7546771E-02  0.1199251E+00
         -2   -1    0    0    0  501 -0.00000000000E+00  0.00000000000E+00  0.16198716809E+03  0.16198716809E+03  0.00000000000E+00 0.  1.
          2   -1    0    0  501    0  0.00000000000E+00 -0.00000000000E+00 -0.13222295102E+03  0.13222295102E+03  0.00000000000E+00 0. -1.
         23    2    1    2    0    0  0.74772851873E+02 -0.61733079082E+02  0.35116423609E+02  0.13592152188E+03  0.88541202113E+02 0.  0.
         23    2    1    2    0    0 -0.74772851873E+02  0.61733079082E+02 -0.53522065324E+01  0.15828859724E+03  0.12499872587E+03 0.  0.
          5    1    4    4  502    0 -0.85285542732E+02  0.47247305152E+02 -0.50206714812E+02  0.10976673383E+03  0.47000000000E+01 0.  1.
         -5    1    4    4    0  502  0.10512690858E+02  0.14485773930E+02  0.44854508280E+02  0.48521863407E+02  0.47000000000E+01 0.  1.
        -11    1    3    3    0    0  0.37977341159E+02 -0.80542432517E+02  0.31438657096E+02  0.94433844766E+02  0.00000000000E+00 0.  1.
         11    1    3    3    0    0  0.36795510715E+02  0.18809353435E+02  0.36777665130E+01  0.41487677109E+02  0.00000000000E+00 0. -1.
<mgrwt>
<rscale>  0 0.15099855E+03</rscale>
<asrwt>0</asrwt>
<pdfrwt beam="2">  1        2 0.20341992E-01 0.15819808E+03</pdfrwt>
<pdfrwt beam="1">  1       -2 0.24921103E-01 0.15819808E+03</pdfrwt>
<totfact> 0.37672892E+03</totfact>
</mgrwt>
</event>
<event>
 8    1  0.1273312E-005  0.1441509E+03  0.7546771E-02  0.1216271E+00
          2   -1    0    0  501    0  0.00000000000E+00  0.00000000000E+00  0.93339081395E+03  0.93339081395E+03  0.00000000000E+00 0. -1.
         -2   -1    0    0    0  501 -0.00000000000E+00 -0.00000000000E+00 -0.19374264261E+02  0.19374264261E+02  0.00000000000E+00 0.  1.
         23    2    1    2    0    0 -0.63488825419E+02 -0.33526708536E+02  0.33296649513E+03  0.35410102926E+03  0.96777998038E+02 0.  0.
         23    2    1    2    0    0  0.63488825419E+02  0.33526708536E+02  0.58105005456E+03  0.59866404895E+03  0.12499842586E+03 0.  0.
          5    1    4    4  502    0  0.20196940156E+02  0.67093571377E+02  0.16970831379E+03  0.18366400160E+03  0.47000000000E+01 0. -1.
         -5    1    4    4    0  502  0.43291885263E+02 -0.33566862841E+02  0.41134174076E+03  0.41500004736E+03  0.47000000000E+01 0. -1.
        -11    1    3    3    0    0 -0.37109798324E+02 -0.42114958166E+02  0.31732918679E+03  0.32225551915E+03  0.00000000000E+00 0. -1.
         11    1    3    3    0    0 -0.26379027096E+02  0.85882496298E+01  0.15637308347E+02  0.31845510116E+02  0.00000000000E+00 0.  1.
<mgrwt>
<rscale>  0 0.13783579E+03</rscale>
<asrwt>0</asrwt>
<pdfrwt beam="1">  1        2 0.14359855E+00 0.14415088E+03</pdfrwt>
<pdfrwt beam="2">  1       -2 0.29806568E-02 0.14415088E+03</pdfrwt>
<totfact> 0.11914463E+04</totfact>
</mgrwt>
</event>
<event>
 8    1  0.1273312E-005  0.1293744E+03  0.7546771E-02  0.1238877E+00
          1   -1    0    0  501    0  0.00000000000E+00  0.00000000000E+00  0.10478001754E+04  0.10478001754E+04  0.00000000000E+00 0. -1.
         -1   -1    0    0    0  501 -0.00000000000E+00 -0.00000000000E+00 -0.13542112702E+02  0.13542112702E+02  0.00000000000E+00 0.  1.
         23    2    1    2    0    0  0.31432241488E+02  0.11013671673E+02  0.36112444407E+03  0.37588871067E+03  0.98854296465E+02 0.  0.
         23    2    1    2    0    0 -0.31432241488E+02 -0.11013671673E+02  0.67313361866E+03  0.68545357748E+03  0.12501380536E+03 0.  0.
          5    1    4    4  502    0 -0.43800089981E+02 -0.54534257987E-01  0.66497876814E+03  0.66643627072E+03  0.47000000000E+01 0. -1.
         -5    1    4    4    0  502  0.12367848493E+02 -0.10959137415E+02  0.81548505284E+01  0.19017306759E+02  0.47000000000E+01 0. -1.
        -11    1    3    3    0    0  0.51128768607E+02  0.39761159388E+02  0.17660552579E+03  0.18810798100E+03  0.00000000000E+00 0.  1.
         11    1    3    3    0    0 -0.19696527118E+02 -0.28747487715E+02  0.18451891828E+03  0.18778072967E+03  0.00000000000E+00 0. -1.
<mgrwt>
<rscale>  0 0.12259484E+03</rscale>
<asrwt>0</asrwt>
<pdfrwt beam="1">  1        1 0.16119996E+00 0.12937441E+03</pdfrwt>
<pdfrwt beam="2">  1       -1 0.20834028E-02 0.12937441E+03</pdfrwt>
<totfact> 0.91731698E+03</totfact>
</mgrwt>
</event>
<event>
 8    1  0.1273312E-005  0.1273009E+03  0.7546771E-02  0.1244336E+00
          1   -1    0    0  501    0  0.00000000000E+00  0.00000000000E+00  0.97998776605E+02  0.97998776605E+02  0.00000000000E+00 0. -1.
         -1   -1    0    0    0  501 -0.00000000000E+00 -0.00000000000E+00 -0.12968375963E+03  0.12968375963E+03  0.00000000000E+00 0.  1.
         23    2    1    2    0    0  0.13031807598E+02  0.20289177843E+02 -0.99040264988E+01  0.98531718405E+02  0.95020687453E+02 0.  0.
         23    2    1    2    0    0 -0.13031807598E+02 -0.20289177843E+02 -0.21780956530E+02  0.12915081783E+03  0.12499617967E+03 0.  0.
          5    1    4    4  502    0  0.20314757608E+02 -0.63847721900E+02  0.60867111302E+01  0.67441522973E+02  0.47000000000E+01 0. -1.
         -5    1    4    4    0  502 -0.33346565206E+02  0.43558544057E+02 -0.27867667660E+02  0.61709294861E+02  0.47000000000E+01 0. -1.
        -11    1    3    3    0    0 -0.22024470883E+02  0.88185525851E+01 -0.42912193893E+02  0.49033667741E+02  0.00000000000E+00 0.  1.
         11    1    3    3    0    0  0.35056278482E+02  0.11470625258E+02  0.33008167394E+02  0.49498050664E+02  0.00000000000E+00 0. -1.
<mgrwt>
<rscale>  0 0.11925220E+03</rscale>
<asrwt>0</asrwt>
<pdfrwt beam="1">  1        1 0.15076735E-01 0.12730092E+03</pdfrwt>
<pdfrwt beam="2">  1       -1 0.19951347E-01 0.12730092E+03</pdfrwt>
<totfact> 0.70616497E+03</totfact>
</mgrwt>
</event>
<event>
 8    1  0.1273312E-005  0.1578954E+03  0.7546771E-02  0.1198900E+00
          1   -1    0    0  501    0  0.00000000000E+00  0.00000000000E+00  0.56465472514E+03  0.56465472514E+03  0.00000000000E+00 0. -1.
         -1   -1    0    0    0  501 -0.00000000000E+00 -0.00000000000E+00 -0.62449965466E+02  0.62449965466E+02  0.00000000000E+00 0.  1.
         23    2    1    2    0    0  0.94948316238E+02  0.17070312037E+02  0.40432059280E+02  0.13908319687E+03  0.91666820191E+02 0.  0.
         23    2    1    2    0    0 -0.94948316238E+02 -0.17070312037E+02  0.46177270039E+03  0.48802149374E+03  0.12499749282E+03 0.  0.
          5    1    4    4  502    0 -0.32810031546E+02  0.98421009676E+01  0.38077685683E+03  0.38234339254E+03  0.47000000000E+01 0.  1.
         -5    1    4    4    0  502 -0.62138284693E+02 -0.26912413004E+02  0.80995843561E+02  0.10567810120E+03  0.47000000000E+01 0.  1.
        -11    1    3    3    0    0  0.10793491349E+03 -0.43550199638E+01  0.32821680010E+02  0.11289895672E+03  0.00000000000E+00 0. -1.
         11    1    3    3    0    0 -0.12986597254E+02  0.21425332000E+02  0.76103792700E+01  0.26184240149E+02  0.00000000000E+00 0.  1.
<mgrwt>
<rscale>  0 0.15128731E+03</rscale>
<asrwt>0</asrwt>
<pdfrwt beam="1">  1        1 0.86869954E-01 0.15789538E+03</pdfrwt>
<pdfrwt beam="2">  1       -1 0.96076874E-02 0.15789538E+03</pdfrwt>
<totfact> 0.24434769E+03</totfact>
</mgrwt>
</event>
<event>
 7    1  0.1273312E-005  0.1597308E+03  0.7546771E-02  0.1211097E+00
          1   -1    0    0  501    0  0.00000000000E+00  0.00000000000E+00  0.49777195479E+03  0.49777195479E+03  0.00000000000E+00 0. -1.
         -1   -1    0    0    0  501 -0.00000000000E+00 -0.00000000000E+00 -0.34435481482E+02  0.34435481482E+02  0.00000000000E+00 0.  1.
         23    2    1    2    0    0 -0.49274972004E+02 -0.10530970936E+02  0.13770595688E+03  0.16951038552E+03  0.85040672757E+02 0.  0.
          5    1    1    2  502    0  0.27768449971E+02  0.75588980542E+02  0.23837410318E+03  0.25165270485E+03  0.47000000000E+01 0. -1.
         -5    1    1    2    0  502  0.21506522033E+02 -0.65058009605E+02  0.87256413247E+02  0.11104434590E+03  0.47000000000E+01 0.  1.
        -11    1    3    3    0    0 -0.28262786483E+02 -0.40680590580E+02  0.35622355993E+02  0.61013505031E+02  0.00000000000E+00 0.  1.
         11    1    3    3    0    0 -0.21012185521E+02  0.30149619643E+02  0.10208360089E+03  0.10849688049E+03  0.00000000000E+00 0. -1.
<mgrwt>
<rscale>  0 0.14167164E+03</rscale>
<asrwt>0</asrwt>
<pdfrwt beam="1">  1        1 0.76580295E-01 0.15973077E+03</pdfrwt>
<pdfrwt beam="2">  1       -1 0.52977668E-02 0.15973077E+03</pdfrwt>
<totfact> 0.70892135E+03</totfact>
</mgrwt>
</event>
<event>
 8    1  0.1273312E-005  0.1305598E+03  0.7546771E-02  0.1239833E+00
          1   -1    0    0  501    0  0.00000000000E+00  0.00000000000E+00  0.48410060893E+03  0.48410060893E+03  0.00000000000E+00 0. -1.
         -1   -1    0    0    0  501 -0.00000000000E+00 -0.00000000000E+00 -0.27357546962E+02  0.27357546962E+02  0.00000000000E+00 0.  1.
         23    2    1    2    0    0  0.12956618163E+02  0.35379914683E+02  0.20338406998E+03  0.22643771371E+03  0.92137646770E+02 0.  0.
         23    2    1    2    0    0 -0.12956618163E+02 -0.35379914683E+02  0.25335899198E+03  0.28502044218E+03  0.12500504519E+03 0.  0.
          5    1    4    4  502    0 -0.49362466708E+02 -0.62988721642E+02  0.12310597237E+03  0.14690610133E+03  0.47000000000E+01 0. -1.
         -5    1    4    4    0  502  0.36405848546E+02  0.27608806960E+02  0.13025301961E+03  0.13811434085E+03  0.47000000000E+01 0. -1.
        -11    1    3    3    0    0 -0.22536637266E+02 -0.76929691598E+01  0.11204600354E+02  0.26317767057E+02  0.00000000000E+00 0.  1.
         11    1    3    3    0    0  0.35493255429E+02  0.43072883842E+02  0.19217946963E+03  0.20011994666E+03  0.00000000000E+00 0. -1.
<mgrwt>
<rscale>  0 0.12200025E+03</rscale>
<asrwt>0</asrwt>
<pdfrwt beam="1">  1        1 0.74477011E-01 0.13055985E+03</pdfrwt>
<pdfrwt beam="2">  1       -1 0.42088537E-02 0.13055985E+03</pdfrwt>
<totfact> 0.10196827E+04</totfact>
</mgrwt>
</event>
<event>
 8    1  0.2377115E-005  0.1936788E+03  0.7546771E-02  0.1159962E+00
          2   -1    0    0  501    0  0.00000000000E+00  0.00000000000E+00  0.11374292008E+04  0.11374292008E+04  0.00000000000E+00 0. -1.
         -2   -1    0    0    0  501 -0.00000000000E+00 -0.00000000000E+00 -0.30255691097E+02  0.30255691097E+02  0.00000000000E+00 0.  1.
         23    2    1    2    0    0  0.28877085979E+02  0.14509579260E+03  0.43664254242E+03  0.46974272846E+03  0.90082439851E+02 0.  0.
         23    2    1    2    0    0 -0.28877085979E+02 -0.14509579260E+03  0.67053096730E+03  0.69794216345E+03  0.12499924114E+03 0.  0.
          5    1    4    4  502    0 -0.42259687840E+02 -0.12096801586E+03  0.29868720995E+03  0.32504658353E+03  0.47000000000E+01 0.  1.
         -5    1    4    4    0  502  0.13382601861E+02 -0.24127776748E+02  0.37184375735E+03  0.37289557992E+03  0.47000000000E+01 0.  1.
        -11    1    3    3    0    0 -0.20560972491E+02  0.79239265493E+02  0.14302567070E+03  0.16479671497E+03  0.00000000000E+00 0.  1.
         11    1    3    3    0    0  0.49438058471E+02  0.65856527110E+02  0.29361687172E+03  0.30494601349E+03  0.00000000000E+00 0. -1.
<mgrwt>
<rscale>  0 0.18834518E+03</rscale>
<asrwt>0</asrwt>
<pdfrwt beam="1">  1        2 0.17498907E+00 0.19367882E+03</pdfrwt>
<pdfrwt beam="2">  1       -2 0.46547226E-02 0.19367882E+03</pdfrwt>
<totfact> 0.46978994E+03</totfact>
</mgrwt>
</event>
<event>
 7    1  0.1273312E-005  0.2223382E+03  0.7546771E-02  0.1163939E+00
         -2   -1    0    0    0  501 -0.00000000000E+00  0.00000000000E+00  0.39070830947E+02  0.39070830947E+02  0.00000000000E+00 0.  1.
          2   -1    0    0  501    0  0.00000000000E+00 -0.00000000000E+00 -0.94077620111E+03  0.94077620111E+03  0.00000000000E+00 0. -1.
         23    2    1    2    0    0  0.64584347952E+02  0.31482740332E+02 -0.88720206024E+02  0.13700711102E+03  0.75745445903E+02 0.  0.
          5    1    1    2  502    0 -0.50521717927E+02  0.35443657248E+02 -0.74047269585E+03  0.74305491056E+03  0.47000000000E+01 0. -1.
         -5    1    1    2    0  502 -0.14062630025E+02 -0.66926397580E+02 -0.72512468294E+02  0.99785010470E+02  0.47000000000E+01 0.  1.
        -11    1    3    3    0    0  0.73461920889E+02  0.39095272829E+02 -0.51199389761E+02  0.97706047357E+02  0.00000000000E+00 0. -1.
         11    1    3    3    0    0 -0.88775729369E+01 -0.76125324971E+01 -0.37520816264E+02  0.39301063667E+02  0.00000000000E+00 0.  1.
<mgrwt>
<rscale>  0 0.18405058E+03</rscale>
<asrwt>0</asrwt>
<pdfrwt beam="2">  1        2 0.14473480E+00 0.22233816E+03</pdfrwt>
<pdfrwt beam="1">  1       -2 0.60108972E-02 0.22233816E+03</pdfrwt>
<totfact> 0.41902206E+03</totfact>
</mgrwt>
</event>
<event>
 8    1  0.1273312E-005  0.1368370E+03  0.7546771E-02  0.1229170E+00
          2   -1    0    0  501    0  0.00000000000E+00  0.00000000000E+00  0.93713198358E+03  0.93713198358E+03  0.00000000000E+00 0. -1.
         -2   -1    0    0    0  501 -0.00000000000E+00 -0.00000000000E+00 -0.17788798219E+02  0.17788798219E+02  0.00000000000E+00 0.  1.
         23    2    1    2    0    0 -0.44096825284E+02  0.33926948106E+02  0.25733826466E+03  0.27892162046E+03  0.92079965771E+02 0.  0.
         23    2    1    2    0    0  0.44096825284E+02 -0.33926948106E+02  0.66200492071E+03  0.67599916134E+03  0.12501513222E+03 0.  0.
          5    1    4    4  502    0  0.52895117008E+02  0.30518422569E+02  0.19308739394E+03  0.20256875183E+03  0.47000000000E+01 0. -1.
         -5    1    4    4    0  502 -0.87982917242E+01 -0.64445370675E+02  0.46891752677E+03  0.47343040951E+03  0.47000000000E+01 0. -1.
        -11    1    3    3    0    0  0.40421989635E+01  0.40589380676E+02  0.43509565386E+02  0.59639915126E+02  0.00000000000E+00 0.  1.
         11    1    3    3    0    0 -0.48139024247E+02 -0.66624325696E+01  0.21382869927E+03  0.21928170534E+03  0.00000000000E+00 0. -1.
<mgrwt>
<rscale>  0 0.12885145E+03</rscale>
<asrwt>0</asrwt>
<pdfrwt beam="1">  1        2 0.14417411E+00 0.13683695E+03</pdfrwt>
<pdfrwt beam="2">  1       -2 0.27367389E-02 0.13683695E+03</pdfrwt>
<totfact> 0.13391094E+04</totfact>
</mgrwt>
</event>
<event>
 8    1  0.1273312E-005  0.1322544E+03  0.7546771E-02  0.1237400E+00
          1   -1    0    0  501    0  0.00000000000E+00  0.00000000000E+00  0.24674758983E+02  0.24674758983E+02  0.00000000000E+00 0. -1.
         -1   -1    0    0    0  501 -0.00000000000E+00 -0.00000000000E+00 -0.55007037147E+03  0.55007037147E+03  0.00000000000E+00 0.  1.
         23    2    1    2    0    0 -0.13981921258E+02 -0.40873433783E+02 -0.23629249914E+03  0.25682714115E+03  0.90884011640E+02 0.  0.
         23    2    1    2    0    0  0.13981921258E+02  0.40873433783E+02 -0.28910311335E+03  0.31791798930E+03  0.12500042425E+03 0.  0.
          5    1    4    4  502    0 -0.33128036775E+01 -0.42460247442E+02 -0.62177549260E+02  0.75511488616E+02  0.47000000000E+01 0.  1.
         -5    1    4    4    0  502  0.17294724936E+02  0.83333681225E+02 -0.22692556409E+03  0.24240650068E+03  0.47000000000E+01 0.  1.
        -11    1    3    3    0    0 -0.32237263937E+02  0.84568665130E+01 -0.16441625822E+03  0.16776014349E+03  0.00000000000E+00 0.  1.
         11    1    3    3    0    0  0.18255342678E+02 -0.49330300296E+02 -0.71876240918E+02  0.89066997660E+02  0.00000000000E+00 0. -1.
<mgrwt>
<rscale>  0 0.12352010E+03</rscale>
<asrwt>0</asrwt>
<pdfrwt beam="1">  1        1 0.37961171E-02 0.13225444E+03</pdfrwt>
<pdfrwt beam="2">  1       -1 0.84626204E-01 0.13225444E+03</pdfrwt>
<totfact> 0.34045664E+03</totfact>
</mgrwt>
</event>
<event>
 8    1  0.1273312E-005  0.1268814E+03  0.7546771E-02  0.1252044E+00
          4   -1    0    0  501    0  0.00000000000E+00  0.00000000000E+00  0.21058471940E+03  0.21058471940E+03  0.00000000000E+00 0. -1.
         -4   -1    0    0    0  501 -0.00000000000E+00 -0.00000000000E+00 -0.53215954596E+02  0.53215954596E+02  0.00000000000E+00 0.  1.
         23    2    1    2    0    0 -0.13500173455E+02 -0.17244106462E+02  0.63385111806E+02  0.10590258463E+03  0.81963840455E+02 0.  0.
         23    2    1    2    0    0  0.13500173455E+02  0.17244106462E+02  0.93983652996E+02  0.15789808936E+03  0.12497706071E+03 0.  0.
          5    1    4    4  502    0 -0.31194347109E+02  0.26087733565E+02 -0.11817980358E+02  0.42607649476E+02  0.47000000000E+01 0.  1.
         -5    1    4    4    0  502  0.44694520564E+02 -0.88436271036E+01  0.10580163335E+03  0.11529043989E+03  0.47000000000E+01 0.  1.
        -11    1    3    3    0    0 -0.11478304255E+02  0.31860269428E+02  0.15352232083E+02  0.37182243968E+02  0.00000000000E+00 0.  1.
         11    1    3    3    0    0 -0.20218691999E+01 -0.49104375889E+02  0.48032879723E+02  0.68720340664E+02  0.00000000000E+00 0. -1.
<mgrwt>
<rscale>  0 0.11473541E+03</rscale>
<asrwt>0</asrwt>
<pdfrwt beam="1">  1        4 0.32397649E-01 0.12688136E+03</pdfrwt>
<pdfrwt beam="2">  1       -4 0.81870701E-02 0.12688136E+03</pdfrwt>
<totfact> 0.15811882E+03</totfact>
</mgrwt>
</event>
<event>
 8    1  0.1273312E-005  0.1509404E+03  0.7546771E-02  0.1208286E+00
         -1   -1    0    0    0  501 -0.00000000000E+00  0.00000000000E+00  0.15982325606E+03  0.15982325606E+03  0.00000000000E+00 0.  1.
          1   -1    0    0  501    0  0.00000000000E+00 -0.00000000000E+00 -0.14283832404E+03  0.14283832404E+03  0.00000000000E+00 0. -1.
         23    2    1    2    0    0 -0.78985582951E+02  0.30335560598E+02  0.69933725732E+02  0.14270350759E+03  0.91184409483E+02 0.  0.
         23    2    1    2    0    0  0.78985582951E+02 -0.30335560598E+02 -0.52948793709E+02  0.15995807252E+03  0.12499616657E+03 0.  0.
          5    1    4    4  502    0  0.65344532960E+02 -0.77232309051E+02 -0.42271080467E+02  0.10974366402E+03  0.47000000000E+01 0.  1.
         -5    1    4    4    0  502  0.13641049991E+02  0.46896748453E+02 -0.10677713241E+02  0.50214408493E+02  0.47000000000E+01 0.  1.
        -11    1    3    3    0    0 -0.21156182595E+02 -0.27686040341E+02 -0.22877358257E+00  0.34844701593E+02  0.00000000000E+00 0. -1.
         11    1    3    3    0    0 -0.57829400356E+02  0.58021600939E+02  0.70162499315E+02  0.10785880600E+03  0.00000000000E+00 0.  1.
<mgrwt>
<rscale>  0 0.14381459E+03</rscale>
<asrwt>0</asrwt>
<pdfrwt beam="2">  1        1 0.21975127E-01 0.15094042E+03</pdfrwt>
<pdfrwt beam="1">  1       -1 0.24588193E-01 0.15094042E+03</pdfrwt>
<totfact> 0.31388790E+03</totfact>
</mgrwt>
</event>
<event>
 7    1  0.1273312E-005  0.2529347E+03  0.7546771E-02  0.1111464E+00
         -2   -1    0    0    0  501 -0.00000000000E+00  0.00000000000E+00  0.17995551360E+03  0.17995551360E+03  0.00000000000E+00 0.  1.
          2   -1    0    0  501    0  0.00000000000E+00 -0.00000000000E+00 -0.88877441782E+02  0.88877441782E+02  0.00000000000E+00 0. -1.
         23    2    1    2    0    0  0.41007478333E+02  0.10020972570E+02  0.71650094087E+02  0.12511685571E+03  0.93479722022E+02 0.  0.
          5    1    1    2  502    0 -0.79648853797E+02 -0.37015807002E+02 -0.90894022821E+01  0.88424075415E+02  0.47000000000E+01 0. -1.
         -5    1    1    2    0  502  0.38641375464E+02  0.26994834432E+02  0.28517380013E+02  0.55292024258E+02  0.47000000000E+01 0.  1.
        -11    1    3    3    0    0  0.66084768058E+02 -0.13635192415E+02  0.53776220137E+02  0.86284395424E+02  0.00000000000E+00 0.  1.
         11    1    3    3    0    0 -0.25077289725E+02  0.23656164985E+02  0.17873873950E+02  0.38832460284E+02  0.00000000000E+00 0. -1.
<mgrwt>
<rscale>  0 0.25293466E+03</rscale>
<asrwt>0</asrwt>
<pdfrwt beam="2">  1        2 0.13673453E-01 0.25293466E+03</pdfrwt>
<pdfrwt beam="1">  1       -2 0.27685464E-01 0.25293466E+03</pdfrwt>
<totfact> 0.50997896E+03</totfact>
</mgrwt>
</event>
<event>
 8    1  0.1273312E-005  0.1385860E+03  0.7546771E-02  0.1226834E+00
         -1   -1    0    0    0  501 -0.00000000000E+00  0.00000000000E+00  0.29537239482E+03  0.29537239482E+03  0.00000000000E+00 0.  1.
          1   -1    0    0  501    0  0.00000000000E+00 -0.00000000000E+00 -0.83739998802E+02  0.83739998802E+02  0.00000000000E+00 0. -1.
         23    2    1    2    0    0 -0.42107069427E+02 -0.42504018464E+02  0.21453059207E+03  0.24049604844E+03  0.90748980705E+02 0.  0.
         23    2    1    2    0    0  0.42107069427E+02  0.42504018464E+02 -0.28981960445E+01  0.13861634519E+03  0.12500597879E+03 0.  0.
          5    1    4    4  502    0  0.25126827459E+02  0.40780627967E+02 -0.61101090071E+02  0.77780783510E+02  0.47000000000E+01 0. -1.
         -5    1    4    4    0  502  0.16980241968E+02  0.17233904979E+01  0.58202894026E+02  0.60835561682E+02  0.47000000000E+01 0. -1.
        -11    1    3    3    0    0  0.18065202340E+02 -0.23912524115E+02  0.13880681922E+03  0.14200525838E+03  0.00000000000E+00 0.  1.
         11    1    3    3    0    0 -0.60172271768E+02 -0.18591494349E+02  0.75723772846E+02  0.98490790056E+02  0.00000000000E+00 0. -1.
<mgrwt>
<rscale>  0 0.13041986E+03</rscale>
<asrwt>0</asrwt>
<pdfrwt beam="2">  1        1 0.12883077E-01 0.13858604E+03</pdfrwt>
<pdfrwt beam="1">  1       -1 0.45441906E-01 0.13858604E+03</pdfrwt>
<totfact> 0.21738869E+03</totfact>
</mgrwt>
</event>
<event>
 8    1  0.1273312E-005  0.1736904E+03  0.7546771E-02  0.1180319E+00
          2   -1    0    0  501    0  0.00000000000E+00  0.00000000000E+00  0.23251448301E+04  0.23251448301E+04  0.00000000000E+00 0. -1.
         -2   -1    0    0    0  501 -0.00000000000E+00 -0.00000000000E+00 -0.12401814664E+02  0.12401814664E+02  0.00000000000E+00 0.  1.
         23    2    1    2    0    0  0.79846680913E+02  0.90353269027E+02  0.73723202171E+03  0.75249042114E+03  0.90507316824E+02 0.  0.
         23    2    1    2    0    0 -0.79846680913E+02 -0.90353269027E+02  0.15755109938E+04  0.15850562237E+04  0.12501653897E+03 0.  0.
          5    1    4    4  502    0 -0.22671375735E+02 -0.77041409061E+02  0.13356793493E+04  0.13380996914E+04  0.47000000000E+01 0. -1.
         -5    1    4    4    0  502 -0.57175305178E+02 -0.13311859966E+02  0.23983164446E+03  0.24695653226E+03  0.47000000000E+01 0. -1.
        -11    1    3    3    0    0  0.24290501598E+02 -0.17158023830E+02  0.14188243385E+03  0.14496569002E+03  0.00000000000E+00 0.  1.
         11    1    3    3    0    0  0.55556179315E+02  0.10751129286E+03  0.59534958786E+03  0.60752473112E+03  0.00000000000E+00 0. -1.
<mgrwt>
<rscale>  0 0.16765194E+03</rscale>
<asrwt>0</asrwt>
<pdfrwt beam="1">  1        2 0.35771424E+00 0.17369036E+03</pdfrwt>
<pdfrwt beam="2">  1       -2 0.19079733E-02 0.17369036E+03</pdfrwt>
<totfact> 0.41419988E+03</totfact>
</mgrwt>
</event>
<event>
 8    1  0.1273312E-005  0.1356441E+03  0.7546771E-02  0.1232226E+00
          1   -1    0    0  501    0  0.00000000000E+00  0.00000000000E+00  0.44571692970E+02  0.44571692970E+02  0.00000000000E+00 0. -1.
         -1   -1    0    0    0  501 -0.00000000000E+00 -0.00000000000E+00 -0.33561410729E+03  0.33561410729E+03  0.00000000000E+00 0.  1.
         23    2    1    2    0    0 -0.25439822635E+01 -0.52525669920E+02 -0.16583408849E+03  0.19558774528E+03  0.89376749494E+02 0.  0.
         23    2    1    2    0    0  0.25439822635E+01  0.52525669920E+02 -0.12520832583E+03  0.18459805499E+03  0.12503559174E+03 0.  0.
          5    1    4    4  502    0  0.37587821209E+02  0.80205704713E+02 -0.97604519797E+02  0.13188833025E+03  0.47000000000E+01 0. -1.
         -5    1    4    4    0  502 -0.35043838946E+02 -0.27680034792E+02 -0.27603806035E+02  0.52709724736E+02  0.47000000000E+01 0. -1.
        -11    1    3    3    0    0  0.43069591586E+02 -0.31097319483E+02 -0.90862205014E+02  0.10525195152E+03  0.00000000000E+00 0.  1.
         11    1    3    3    0    0 -0.45613573849E+02 -0.21428350437E+02 -0.74971883478E+02  0.90335793759E+02  0.00000000000E+00 0. -1.
<mgrwt>
<rscale>  0 0.12683671E+03</rscale>
<asrwt>0</asrwt>
<pdfrwt beam="1">  1        1 0.68571837E-02 0.13564408E+03</pdfrwt>
<pdfrwt beam="2">  1       -1 0.51632939E-01 0.13564408E+03</pdfrwt>
<totfact> 0.39842413E+03</totfact>
</mgrwt>
</event>
<event>
 8    1  0.1273312E-005  0.1417220E+03  0.7546771E-02  0.1221674E+00
         -2   -1    0    0    0  501 -0.00000000000E+00  0.00000000000E+00  0.89606219066E+02  0.89606219066E+02  0.00000000000E+00 0.  1.
          2   -1    0    0  501    0  0.00000000000E+00 -0.00000000000E+00 -0.20182237803E+03  0.20182237803E+03  0.00000000000E+00 0. -1.
         23    2    1    2    0    0  0.27442100905E+02 -0.60876995941E+02 -0.42427382986E+01  0.11326189168E+03  0.91384778496E+02 0.  0.
         23    2    1    2    0    0 -0.27442100905E+02  0.60876995941E+02 -0.10797342066E+03  0.17816670542E+03  0.12500415118E+03 0.  0.
          5    1    4    4  502    0  0.43039154184E+02 -0.66679734380E+01 -0.29295541503E+02  0.52698666156E+02  0.47000000000E+01 0.  1.
         -5    1    4    4    0  502 -0.70481255089E+02  0.67544969379E+02 -0.78677879160E+02  0.12546803926E+03  0.47000000000E+01 0.  1.
        -11    1    3    3    0    0  0.53925717983E+02 -0.34159166162E+02 -0.26983439953E+02  0.69303230260E+02  0.00000000000E+00 0. -1.
         11    1    3    3    0    0 -0.26483617078E+02 -0.26717829780E+02  0.22740701654E+02  0.43958661415E+02  0.00000000000E+00 0.  1.
<mgrwt>
<rscale>  0 0.13397464E+03</rscale>
<asrwt>0</asrwt>
<pdfrwt beam="2">  1        2 0.31049596E-01 0.14172196E+03</pdfrwt>
<pdfrwt beam="1">  1       -2 0.13785572E-01 0.14172196E+03</pdfrwt>
<totfact> 0.63440320E+03</totfact>
</mgrwt>
</event>
<event>
 8    1  0.1273312E-005  0.1439295E+03  0.7546771E-02  0.1217840E+00
         -3   -1    0    0    0  501 -0.00000000000E+00  0.00000000000E+00  0.29935430078E+03  0.29935430078E+03  0.00000000000E+00 0.  1.
          3   -1    0    0  501    0  0.00000000000E+00 -0.00000000000E+00 -0.66950177881E+02  0.66950177881E+02  0.00000000000E+00 0. -1.
         23    2    1    2    0    0 -0.71262117069E+01 -0.70975774670E+02  0.17666231003E+03  0.21195793850E+03  0.92888386915E+02 0.  0.
         23    2    1    2    0    0  0.71262117069E+01  0.70975774670E+02  0.55741812870E+02  0.15434654016E+03  0.12500944475E+03 0.  0.
          5    1    4    4  502    0  0.13733092555E+02  0.87489133340E+02 -0.70023492125E+01  0.88961054278E+02  0.47000000000E+01 0. -1.
         -5    1    4    4    0  502 -0.66068808483E+01 -0.16513358671E+02  0.62744162083E+02  0.65385485886E+02  0.47000000000E+01 0. -1.
        -11    1    3    3    0    0  0.22478557953E+02 -0.85260422265E+01  0.20057705544E+01  0.24124719256E+02  0.00000000000E+00 0. -1.
         11    1    3    3    0    0 -0.29604769660E+02 -0.62449732443E+02  0.17465653948E+03  0.18783321924E+03  0.00000000000E+00 0.  1.
<mgrwt>
<rscale>  0 0.13669990E+03</rscale>
<asrwt>0</asrwt>
<pdfrwt beam="2">  1        3 0.10300028E-01 0.14392951E+03</pdfrwt>
<pdfrwt beam="1">  1       -3 0.46054507E-01 0.14392951E+03</pdfrwt>
<totfact> 0.77101057E+02</totfact>
</mgrwt>
</event>
<event>
 8    1  0.1273312E-005  0.1313298E+03  0.7546771E-02  0.1238561E+00
         -2   -1    0    0    0  501 -0.00000000000E+00  0.00000000000E+00  0.30802426507E+02  0.30802426507E+02  0.00000000000E+00 0.  1.
          2   -1    0    0  501    0  0.00000000000E+00 -0.00000000000E+00 -0.47349172627E+03  0.47349172627E+03  0.00000000000E+00 0. -1.
         23    2    1    2    0    0  0.30605843385E+02 -0.26153526300E+02 -0.12347924952E+03  0.15912378384E+03  0.91937636114E+02 0.  0.
         23    2    1    2    0    0 -0.30605843385E+02  0.26153526300E+02 -0.31921005025E+03  0.34517036894E+03  0.12500721111E+03 0.  0.
          5    1    4    4  502    0 -0.12692669477E+02 -0.46932657200E+02 -0.74301083173E+02  0.88918609587E+02  0.47000000000E+01 0.  1.
         -5    1    4    4    0  502 -0.17913173909E+02  0.73086183500E+02 -0.24490896708E+03  0.25625175936E+03  0.47000000000E+01 0.  1.
        -11    1    3    3    0    0  0.10495230561E+01 -0.33972969468E+02 -0.12397165958E+03  0.12854663174E+03  0.00000000000E+00 0. -1.
         11    1    3    3    0    0  0.29556320329E+02  0.78194431680E+01  0.49241005922E+00  0.30577152100E+02  0.00000000000E+00 0.  1.
<mgrwt>
<rscale>  0 0.12279164E+03</rscale>
<asrwt>0</asrwt>
<pdfrwt beam="2">  1        2 0.72844885E-01 0.13132984E+03</pdfrwt>
<pdfrwt beam="1">  1       -2 0.47388346E-02 0.13132984E+03</pdfrwt>
<totfact> 0.13283362E+04</totfact>
</mgrwt>
</event>
<event>
 8    1  0.1273312E-005  0.1358682E+03  0.7546771E-02  0.1232726E+00
         -1   -1    0    0    0  501 -0.00000000000E+00  0.00000000000E+00  0.48562869504E+02  0.48562869504E+02  0.00000000000E+00 0.  1.
          1   -1    0    0  501    0  0.00000000000E+00 -0.00000000000E+00 -0.29678214559E+03  0.29678214559E+03  0.00000000000E+00 0. -1.
         23    2    1    2    0    0  0.53227516987E+02  0.10646511905E+01 -0.84245197632E+02  0.13239508610E+03  0.87160217149E+02 0.  0.
         23    2    1    2    0    0 -0.53227516987E+02 -0.10646511905E+01 -0.16397407846E+03  0.21294992899E+03  0.12500348717E+03 0.  0.
          5    1    4    4  502    0 -0.53513040496E+02 -0.54242426354E+02 -0.12640738141E+03  0.14767126462E+03  0.47000000000E+01 0.  1.
         -5    1    4    4    0  502  0.28552350914E+00  0.53177775164E+02 -0.37566697042E+02  0.65278664368E+02  0.47000000000E+01 0.  1.
        -11    1    3    3    0    0  0.62116324285E+02  0.23531923053E+02 -0.85417329792E+02  0.10820494154E+03  0.00000000000E+00 0. -1.
         11    1    3    3    0    0 -0.88888072976E+01 -0.22467271863E+02  0.11721321599E+01  0.24190144562E+02  0.00000000000E+00 0.  1.
<mgrwt>
<rscale>  0 0.12651157E+03</rscale>
<asrwt>0</asrwt>
<pdfrwt beam="2">  1        1 0.45658793E-01 0.13586822E+03</pdfrwt>
<pdfrwt beam="1">  1       -1 0.74712105E-02 0.13586822E+03</pdfrwt>
<totfact> 0.80679282E+03</totfact>
</mgrwt>
</event>
<event>
 8    1  0.1273312E-005  0.1383503E+03  0.7546771E-02  0.1226464E+00
         -1   -1    0    0    0  501 -0.00000000000E+00  0.00000000000E+00  0.46398755610E+03  0.46398755610E+03  0.00000000000E+00 0.  1.
          1   -1    0    0  501    0  0.00000000000E+00 -0.00000000000E+00 -0.34424349221E+02  0.34424349221E+02  0.00000000000E+00 0. -1.
         23    2    1    2    0    0  0.57883567364E+02 -0.12896380783E+02  0.23676036068E+03  0.26110676409E+03  0.92760173864E+02 0.  0.
         23    2    1    2    0    0 -0.57883567364E+02  0.12896380783E+02  0.19280284620E+03  0.23730514123E+03  0.12499587411E+03 0.  0.
          5    1    4    4  502    0 -0.34391412793E+02  0.46632720566E+02  0.18662404684E+03  0.19546867974E+03  0.47000000000E+01 0.  1.
         -5    1    4    4    0  502 -0.23492154571E+02 -0.33736339783E+02  0.61787993568E+01  0.41836461488E+02  0.47000000000E+01 0.  1.
        -11    1    3    3    0    0  0.11969526810E+02  0.36516207312E+02  0.12288999683E+03  0.12875812320E+03  0.00000000000E+00 0.  1.
         11    1    3    3    0    0  0.45914040554E+02 -0.49412588095E+02  0.11387036385E+03  0.13234864089E+03  0.00000000000E+00 0. -1.
<mgrwt>
<rscale>  0 0.13067079E+03</rscale>
<asrwt>0</asrwt>
<pdfrwt beam="2">  1        1 0.52960540E-02 0.13835025E+03</pdfrwt>
<pdfrwt beam="1">  1       -1 0.71382697E-01 0.13835025E+03</pdfrwt>
<totfact> 0.30546533E+03</totfact>
</mgrwt>
</event>
<event>
 8    1  0.1273312E-005  0.1374946E+03  0.7546771E-02  0.1230229E+00
         -2   -1    0    0    0  501 -0.00000000000E+00  0.00000000000E+00  0.35583907799E+02  0.35583907799E+02  0.00000000000E+00 0.  1.
          2   -1    0    0  501    0  0.00000000000E+00 -0.00000000000E+00 -0.41261935929E+03  0.41261935929E+03  0.00000000000E+00 0. -1.
         23    2    1    2    0    0  0.43994818515E+02  0.36493464159E+02 -0.14130021058E+03  0.17530057985E+03  0.86586527837E+02 0.  0.
         23    2    1    2    0    0 -0.43994818515E+02 -0.36493464159E+02 -0.23573524091E+03  0.27290268725E+03  0.12504981373E+03 0.  0.
          5    1    4    4  502    0 -0.19813709061E+01  0.40944699854E+02 -0.36826037550E+02  0.55304984572E+02  0.47000000000E+01 0. -1.
         -5    1    4    4    0  502 -0.42013447609E+02 -0.77438164013E+02 -0.19890920336E+03  0.21759770267E+03  0.47000000000E+01 0. -1.
        -11    1    3    3    0    0 -0.13635831097E+02  0.27891655442E+02 -0.11653697545E+02  0.33161559062E+02  0.00000000000E+00 0.  1.
         11    1    3    3    0    0  0.57630649612E+02  0.86018087170E+01 -0.12964651303E+03  0.14213902079E+03  0.00000000000E+00 0. -1.
<mgrwt>
<rscale>  0 0.12814857E+03</rscale>
<asrwt>0</asrwt>
<pdfrwt beam="2">  1        2 0.63479898E-01 0.13749463E+03</pdfrwt>
<pdfrwt beam="1">  1       -2 0.54744476E-02 0.13749463E+03</pdfrwt>
<totfact> 0.12450035E+04</totfact>
</mgrwt>
</event>
<event>
 8    1  0.1273312E-005  0.1597530E+03  0.7546771E-02  0.1195726E+00
          2   -1    0    0  501    0  0.00000000000E+00  0.00000000000E+00  0.84526103438E+02  0.84526103438E+02  0.00000000000E+00 0. -1.
         -2   -1    0    0    0  501 -0.00000000000E+00 -0.00000000000E+00 -0.38475764540E+03  0.38475764540E+03  0.00000000000E+00 0.  1.
         23    2    1    2    0    0 -0.29501237877E+02  0.95005416108E+02 -0.27500042374E+03  0.30755055284E+03  0.95214270819E+02 0.  0.
         23    2    1    2    0    0  0.29501237877E+02 -0.95005416108E+02 -0.25231118220E+02  0.16173319600E+03  0.12499866093E+03 0.  0.
          5    1    4    4  502    0 -0.15565028588E+02 -0.77992016471E+02  0.32809799458E+02  0.86160302278E+02  0.47000000000E+01 0.  1.
         -5    1    4    4    0  502  0.45066266465E+02 -0.17013399637E+02 -0.58040917678E+02  0.75572893720E+02  0.47000000000E+01 0.  1.
        -11    1    3    3    0    0  0.25717036787E+02  0.58322925397E+02 -0.84499560209E+02  0.10584472251E+03  0.00000000000E+00 0. -1.
         11    1    3    3    0    0 -0.55218274665E+02  0.36682490711E+02 -0.19050086353E+03  0.20170583032E+03  0.00000000000E+00 0.  1.
<mgrwt>
<rscale>  0 0.15392975E+03</rscale>
<asrwt>0</asrwt>
<pdfrwt beam="1">  1        2 0.13004015E-01 0.15975299E+03</pdfrwt>
<pdfrwt beam="2">  1       -2 0.59193486E-01 0.15975299E+03</pdfrwt>
<totfact> 0.12367984E+03</totfact>
</mgrwt>
</event>
<event>
 8    1  0.1273312E-005  0.1552527E+03  0.7546771E-02  0.1202447E+00
         -2   -1    0    0    0  501 -0.00000000000E+00  0.00000000000E+00  0.20113689947E+02  0.20113689947E+02  0.00000000000E+00 0.  1.
          2   -1    0    0  501    0  0.00000000000E+00 -0.00000000000E+00 -0.10542053966E+04  0.10542053966E+04  0.00000000000E+00 0. -1.
         23    2    1    2    0    0  0.88899515410E+02  0.23981140025E+02 -0.36132704526E+03  0.38387307454E+03  0.91230942160E+02 0.  0.
         23    2    1    2    0    0 -0.88899515410E+02 -0.23981140025E+02 -0.67276466136E+03  0.69044601197E+03  0.12500074781E+03 0.  0.
          5    1    4    4  502    0 -0.71099689840E+02 -0.47533646939E+02 -0.21111420075E+03  0.22782868398E+03  0.47000000000E+01 0.  1.
         -5    1    4    4    0  502 -0.17799825570E+02  0.23552506914E+02 -0.46165046061E+03  0.46261732799E+03  0.47000000000E+01 0.  1.
        -11    1    3    3    0    0  0.37805572890E+02  0.52856285250E+02 -0.13163783294E+03  0.14680452069E+03  0.00000000000E+00 0.  1.
         11    1    3    3    0    0  0.51093942519E+02 -0.28875145225E+02 -0.22968921232E+03  0.23706855386E+03  0.00000000000E+00 0. -1.
<mgrwt>
<rscale>  0 0.14840457E+03</rscale>
<asrwt>0</asrwt>
<pdfrwt beam="2">  1        2 0.16218548E+00 0.15525272E+03</pdfrwt>
<pdfrwt beam="1">  1       -2 0.30944132E-02 0.15525272E+03</pdfrwt>
<totfact> 0.95743920E+03</totfact>
</mgrwt>
</event>
<event>
 8    1  0.1273312E-005  0.1324243E+03  0.7546771E-02  0.1236176E+00
         -2   -1    0    0    0  501 -0.00000000000E+00  0.00000000000E+00  0.85685511239E+02  0.85685511239E+02  0.00000000000E+00 0.  1.
          2   -1    0    0  501    0  0.00000000000E+00 -0.00000000000E+00 -0.16356168956E+03  0.16356168956E+03  0.00000000000E+00 0. -1.
         23    2    1    2    0    0  0.15160971727E+02  0.41004183940E+02 -0.19897035531E+02  0.10468661197E+03  0.93017184099E+02 0.  0.
         23    2    1    2    0    0 -0.15160971727E+02 -0.41004183940E+02 -0.57979142795E+02  0.14456058884E+03  0.12499993873E+03 0.  0.
          5    1    4    4  502    0 -0.21116217239E+01 -0.37749835006E+02  0.34253709007E+02  0.51233929871E+02  0.47000000000E+01 0. -1.
         -5    1    4    4    0  502 -0.13049350003E+02 -0.32543489337E+01 -0.92232851801E+02  0.93326658967E+02  0.47000000000E+01 0. -1.
        -11    1    3    3    0    0 -0.18924307155E+02  0.11289010961E+02  0.30080491037E+02  0.37288163146E+02  0.00000000000E+00 0.  1.
         11    1    3    3    0    0  0.34085278881E+02  0.29715172979E+02 -0.49977526568E+02  0.67398448821E+02  0.00000000000E+00 0. -1.
<mgrwt>
<rscale>  0 0.12429426E+03</rscale>
<asrwt>0</asrwt>
<pdfrwt beam="2">  1        2 0.25163337E-01 0.13242425E+03</pdfrwt>
<pdfrwt beam="1">  1       -2 0.13182387E-01 0.13242425E+03</pdfrwt>
<totfact> 0.85368647E+03</totfact>
</mgrwt>
</event>
<event>
 8    1  0.1273312E-005  0.1310889E+03  0.7546771E-02  0.1239343E+00
         -1   -1    0    0    0  501 -0.00000000000E+00  0.00000000000E+00  0.17324620608E+02  0.17324620608E+02  0.00000000000E+00 0.  1.
          1   -1    0    0  501    0  0.00000000000E+00 -0.00000000000E+00 -0.77078505663E+03  0.77078505663E+03  0.00000000000E+00 0. -1.
         23    2    1    2    0    0  0.37323805295E+02  0.13003143038E+02 -0.29478220078E+03  0.31106666650E+03  0.91125062076E+02 0.  0.
         23    2    1    2    0    0 -0.37323805295E+02 -0.13003143038E+02 -0.45867823525E+03  0.47704301075E+03  0.12498864925E+03 0.  0.
          5    1    4    4  502    0 -0.24010996269E+02 -0.23840297283E+02 -0.45795822339E+03  0.45923056528E+03  0.47000000000E+01 0. -1.
         -5    1    4    4    0  502 -0.13312809027E+02  0.10837154245E+02 -0.72001185319E+00  0.17812445463E+02  0.47000000000E+01 0. -1.
        -11    1    3    3    0    0  0.26326681019E+02  0.50851439939E+02 -0.13805324242E+03  0.14945788979E+03  0.00000000000E+00 0. -1.
         11    1    3    3    0    0  0.10997124276E+02 -0.37848296901E+02 -0.15672895836E+03  0.16160877671E+03  0.00000000000E+00 0.  1.
<mgrwt>
<rscale>  0 0.12230431E+03</rscale>
<asrwt>0</asrwt>
<pdfrwt beam="2">  1        1 0.11858233E+00 0.13108894E+03</pdfrwt>
<pdfrwt beam="1">  1       -1 0.26653260E-02 0.13108894E+03</pdfrwt>
<totfact> 0.10488954E+04</totfact>
</mgrwt>
</event>
<event>
 8    1  0.1273312E-005  0.1743882E+03  0.7546771E-02  0.1179573E+00
         -3   -1    0    0    0  501 -0.00000000000E+00  0.00000000000E+00  0.15551853233E+03  0.15551853233E+03  0.00000000000E+00 0.  1.
          3   -1    0    0  501    0  0.00000000000E+00 -0.00000000000E+00 -0.17642516793E+03  0.17642516793E+03  0.00000000000E+00 0. -1.
         23    2    1    2    0    0 -0.44262582013E+02  0.11324636079E+03  0.20062698201E+02  0.15280761823E+03  0.90353427883E+02 0.  0.
         23    2    1    2    0    0  0.44262582013E+02 -0.11324636079E+03 -0.40969333799E+02  0.17913608204E+03  0.12500934036E+03 0.  0.
          5    1    4    4  502    0  0.55388581779E+02 -0.55737720619E+01  0.14068673240E+02  0.57610584906E+02  0.47000000000E+01 0. -1.
         -5    1    4    4    0  502 -0.11125999766E+02 -0.10767258873E+03 -0.55038007039E+02  0.12152549713E+03  0.47000000000E+01 0. -1.
        -11    1    3    3    0    0 -0.14507510995E+02  0.68509916083E+02 -0.32892430994E+02  0.77369170175E+02  0.00000000000E+00 0.  1.
         11    1    3    3    0    0 -0.29755071018E+02  0.44736444708E+02  0.52955129195E+02  0.75438448052E+02  0.00000000000E+00 0. -1.
<mgrwt>
<rscale>  0 0.16835660E+03</rscale>
<asrwt>0</asrwt>
<pdfrwt beam="2">  1        3 0.27142334E-01 0.17438822E+03</pdfrwt>
<pdfrwt beam="1">  1       -3 0.23925928E-01 0.17438822E+03</pdfrwt>
<totfact> 0.50466311E+02</totfact>
</mgrwt>
</event>
<event>
 8    1  0.1273312E-005  0.1758884E+03  0.7546771E-02  0.1177313E+00
         -4   -1    0    0    0  501 -0.00000000000E+00  0.00000000000E+00  0.23460280286E+03  0.23460280286E+03  0.00000000000E+00 0.  1.
          4   -1    0    0  501    0  0.00000000000E+00 -0.00000000000E+00 -0.11863409986E+03  0.11863409986E+03  0.00000000000E+00 0. -1.
         23    2    1    2    0    0 -0.11402532614E+03 -0.48070819699E+02  0.75610948627E+02  0.17277779277E+03  0.93928544194E+02 0.  0.
         23    2    1    2    0    0  0.11402532614E+03  0.48070819699E+02  0.40357754377E+02  0.18045910994E+03  0.12499665321E+03 0.  0.
          5    1    4    4  502    0  0.83919882104E+02  0.24349153093E+02 -0.36211475155E+02  0.94703689482E+02  0.47000000000E+01 0.  1.
         -5    1    4    4    0  502  0.30105444038E+02  0.23721666606E+02  0.76569229532E+02  0.85755420461E+02  0.47000000000E+01 0.  1.
        -11    1    3    3    0    0 -0.26519680037E+02  0.27102142665E+02  0.70121064300E+01  0.38561498971E+02  0.00000000000E+00 0. -1.
         11    1    3    3    0    0 -0.87505646105E+02 -0.75172962364E+02  0.68598842197E+02  0.13421629380E+03  0.00000000000E+00 0.  1.
<mgrwt>
<rscale>  0 0.17051368E+03</rscale>
<asrwt>0</asrwt>
<pdfrwt beam="2">  1        4 0.18251400E-01 0.17588844E+03</pdfrwt>
<pdfrwt beam="1">  1       -4 0.36092739E-01 0.17588844E+03</pdfrwt>
<totfact> 0.34498105E+02</totfact>
</mgrwt>
</event>
<event>
 8    1  0.1273312E-005  0.1305275E+03  0.7546771E-02  0.1240476E+00
          1   -1    0    0  501    0  0.00000000000E+00  0.00000000000E+00  0.32474861762E+03  0.32474861762E+03  0.00000000000E+00 0. -1.
         -1   -1    0    0    0  501 -0.00000000000E+00 -0.00000000000E+00 -0.40994953860E+02  0.40994953860E+02  0.00000000000E+00 0.  1.
         23    2    1    2    0    0 -0.28923885242E+02  0.24000458925E+02  0.98990562605E+02  0.13952504037E+03  0.90859739376E+02 0.  0.
         23    2    1    2    0    0  0.28923885242E+02 -0.24000458925E+02  0.18476310115E+03  0.22621853111E+03  0.12499922841E+03 0.  0.
          5    1    4    4  502    0 -0.33712200731E+02 -0.15579783030E+02  0.14862081763E+03  0.15326277940E+03  0.47000000000E+01 0.  1.
         -5    1    4    4    0  502  0.62636085973E+02 -0.84206758953E+01  0.36142283525E+02  0.72955751705E+02  0.47000000000E+01 0.  1.
        -11    1    3    3    0    0 -0.55324905005E+01  0.34518926126E+02 -0.23027024220E+01  0.35035227278E+02  0.00000000000E+00 0.  1.
         11    1    3    3    0    0 -0.23391394741E+02 -0.10518467201E+02  0.10129326503E+03  0.10448981309E+03  0.00000000000E+00 0. -1.
<mgrwt>
<rscale>  0 0.12160295E+03</rscale>
<asrwt>0</asrwt>
<pdfrwt beam="1">  1        1 0.49961324E-01 0.13052747E+03</pdfrwt>
<pdfrwt beam="2">  1       -1 0.63069162E-02 0.13052747E+03</pdfrwt>
<totfact> 0.92734186E+03</totfact>
</mgrwt>
</event>
<event>
 8    1  0.1273312E-005  0.1256175E+03  0.7546771E-02  0.1248379E+00
         -2   -1    0    0    0  501 -0.00000000000E+00  0.00000000000E+00  0.97521677469E+01  0.97521677469E+01  0.00000000000E+00 0.  1.
          2   -1    0    0  501    0  0.00000000000E+00 -0.00000000000E+00 -0.17750041778E+04  0.17750041778E+04  0.00000000000E+00 0. -1.
         23    2    1    2    0    0 -0.28083253319E+01 -0.12058422553E+02 -0.30658478352E+03  0.32069014330E+03  0.93245087149E+02 0.  0.
         23    2    1    2    0    0  0.28083253319E+01  0.12058422553E+02 -0.14586672265E+04  0.14640662022E+04  0.12500589809E+03 0.  0.
          5    1    4    4  502    0  0.60179237058E+02  0.26410913928E+02 -0.82593559466E+03  0.82855945681E+03  0.47000000000E+01 0. -1.
         -5    1    4    4    0  502 -0.57370911726E+02 -0.14352491375E+02 -0.63273163184E+03  0.63550674540E+03  0.47000000000E+01 0. -1.
        -11    1    3    3    0    0 -0.29674919365E+02 -0.43530753122E+02 -0.17174230782E+03  0.17964116344E+03  0.00000000000E+00 0.  1.
         11    1    3    3    0    0  0.26866594033E+02  0.31472330569E+02 -0.13484247570E+03  0.14104897986E+03  0.00000000000E+00 0. -1.
<mgrwt>
<rscale>  0 0.11685384E+03</rscale>
<asrwt>0</asrwt>
<pdfrwt beam="2">  1        2 0.27307781E+00 0.12561754E+03</pdfrwt>
<pdfrwt beam="1">  1       -2 0.15003321E-02 0.12561754E+03</pdfrwt>
<totfact> 0.11212827E+04</totfact>
</mgrwt>
</event>
<event>
 8    1  0.1273312E-005  0.1275751E+03  0.7546771E-02  0.1245693E+00
         -2   -1    0    0    0  501 -0.00000000000E+00  0.00000000000E+00  0.70059558543E+01  0.70059558543E+01  0.00000000000E+00 0. -1.
          2   -1    0    0  501    0  0.00000000000E+00 -0.00000000000E+00 -0.24671657745E+04  0.24671657745E+04  0.00000000000E+00 0.  1.
         23    2    1    2    0    0  0.78646255987E+01  0.24251099161E+02 -0.44515006521E+03  0.45512747582E+03  0.91282367099E+02 0.  0.
         23    2    1    2    0    0 -0.78646255987E+01 -0.24251099161E+02 -0.20150097534E+04  0.20190442545E+04  0.12500170871E+03 0.  0.
          5    1    4    4  502    0  0.16984533866E+02  0.46759161705E+02 -0.62633902631E+03  0.62832918082E+03  0.47000000000E+01 0. -1.
         -5    1    4    4    0  502 -0.24849159465E+02 -0.71010260866E+02 -0.13886707271E+04  0.13907150737E+04  0.47000000000E+01 0. -1.
        -11    1    3    3    0    0 -0.12184731326E+02 -0.32030130865E+02 -0.13551394865E+03  0.13977992431E+03  0.00000000000E+00 0. -1.
         11    1    3    3    0    0  0.20049356925E+02  0.56281230026E+02 -0.30963611656E+03  0.31534755151E+03  0.00000000000E+00 0.  1.
<mgrwt>
<rscale>  0 0.11844006E+03</rscale>
<asrwt>0</asrwt>
<pdfrwt beam="2">  1        2 0.37956436E+00 0.12757506E+03</pdfrwt>
<pdfrwt beam="1">  1       -2 0.10778382E-02 0.12757506E+03</pdfrwt>
<totfact> 0.79272270E+03</totfact>
</mgrwt>
</event>
<event>
 7    1  0.1273312E-005  0.1770614E+03  0.7546771E-02  0.1192137E+00
          1   -1    0    0  501    0  0.00000000000E+00  0.00000000000E+00  0.12002990476E+03  0.12002990476E+03  0.00000000000E+00 0. -1.
         -1   -1    0    0    0  501 -0.00000000000E+00 -0.00000000000E+00 -0.22680398318E+03  0.22680398318E+03  0.00000000000E+00 0.  1.
         23    2    1    2    0    0 -0.21635181368E+02 -0.54586840246E+02 -0.12812076228E+03  0.16849034675E+03  0.92337765944E+02 0.  0.
          5    1    1    2  502    0  0.92512967542E+02  0.16814185773E+02  0.26266001097E+02  0.97741285137E+02  0.47000000000E+01 0. -1.
         -5    1    1    2    0  502 -0.70877786174E+02  0.37772654472E+02 -0.49193172387E+01  0.80602256053E+02  0.47000000000E+01 0.  1.
        -11    1    3    3    0    0  0.30600646711E+01  0.25253142471E+02 -0.36376088959E+02  0.44388118324E+02  0.00000000000E+00 0.  1.
         11    1    3    3    0    0 -0.24695246039E+02 -0.79839982716E+02 -0.91744673321E+02  0.12410222842E+03  0.00000000000E+00 0. -1.
<mgrwt>
<rscale>  0 0.15699041E+03</rscale>
<asrwt>0</asrwt>
<pdfrwt beam="1">  1        1 0.18466140E-01 0.17706140E+03</pdfrwt>
<pdfrwt beam="2">  1       -1 0.34892920E-01 0.17706140E+03</pdfrwt>
<totfact> 0.21894650E+03</totfact>
</mgrwt>
</event>
<event>
 8    1  0.1273312E-005  0.1318551E+03  0.7546771E-02  0.1237044E+00
         -3   -1    0    0    0  501 -0.00000000000E+00  0.00000000000E+00  0.19111915414E+03  0.19111915414E+03  0.00000000000E+00 0.  1.
          3   -1    0    0  501    0  0.00000000000E+00 -0.00000000000E+00 -0.10182546240E+03  0.10182546240E+03  0.00000000000E+00 0. -1.
         23    2    1    2    0    0 -0.32998956114E+02  0.26046188227E+02  0.11988062335E+03  0.15758833143E+03  0.93249039253E+02 0.  0.
         23    2    1    2    0    0  0.32998956114E+02 -0.26046188227E+02 -0.30586931602E+02  0.13535628511E+03  0.12497371127E+03 0.  0.
          5    1    4    4  502    0  0.41723182936E+02  0.12156175343E+02 -0.68089725298E+02  0.80912899370E+02  0.47000000000E+01 0.  1.
         -5    1    4    4    0  502 -0.87242268213E+01 -0.38202363570E+02  0.37502793696E+02  0.54443385741E+02  0.47000000000E+01 0.  1.
        -11    1    3    3    0    0 -0.23028754274E+02 -0.96353450738E+01 -0.65772264584E+01  0.25815175885E+02  0.00000000000E+00 0. -1.
         11    1    3    3    0    0 -0.99702018403E+01  0.35681533301E+02  0.12645784981E+03  0.13177315554E+03  0.00000000000E+00 0.  1.
<mgrwt>
<rscale>  0 0.12374516E+03</rscale>
<asrwt>0</asrwt>
<pdfrwt beam="2">  1        3 0.15665456E-01 0.13185509E+03</pdfrwt>
<pdfrwt beam="1">  1       -3 0.29402947E-01 0.13185509E+03</pdfrwt>
<totfact> 0.88201888E+02</totfact>
</mgrwt>
</event>
<event>
 8    1  0.1273312E-005  0.1147007E+03  0.7546771E-02  0.1260491E+00
         -1   -1    0    0    0  501 -0.00000000000E+00  0.00000000000E+00  0.44242975399E+02  0.44242975399E+02  0.00000000000E+00 0.  1.
          1   -1    0    0  501    0  0.00000000000E+00 -0.00000000000E+00 -0.38186870184E+03  0.38186870184E+03  0.00000000000E+00 0. -1.
         23    2    1    2    0    0  0.30484226745E+02 -0.58857592818E+01 -0.36365472426E+02  0.10375474778E+03  0.92079692983E+02 0.  0.
         23    2    1    2    0    0 -0.30484226745E+02  0.58857592818E+01 -0.30126025402E+03  0.32235692946E+03  0.11041883480E+03 0.  0.
          5    1    4    4  502    0  0.18291771662E+02 -0.23927204818E+01 -0.25084227308E+03  0.25156361021E+03  0.47000000000E+01 0. -1.
         -5    1    4    4    0  502 -0.48775998407E+02  0.82784797636E+01 -0.50417980941E+02  0.70793319247E+02  0.47000000000E+01 0.  1.
        -11    1    3    3    0    0 -0.12146527994E+02  0.35391817802E+02 -0.18764330775E+02  0.41859515275E+02  0.00000000000E+00 0.  1.
         11    1    3    3    0    0  0.42630754739E+02 -0.41277577084E+02 -0.17601141651E+02  0.61895232506E+02  0.00000000000E+00 0. -1.
<mgrwt>
<rscale>  0 0.11004264E+03</rscale>
<asrwt>0</asrwt>
<pdfrwt beam="2">  1        1 0.58749035E-01 0.11470069E+03</pdfrwt>
<pdfrwt beam="1">  1       -1 0.68066112E-02 0.11470069E+03</pdfrwt>
<totfact> 0.67047931E+03</totfact>
</mgrwt>
</event>
<event>
 7    1  0.1273312E-005  0.1386051E+03  0.7546771E-02  0.1228724E+00
         -1   -1    0    0    0  501 -0.00000000000E+00  0.00000000000E+00  0.19397124325E+02  0.19397124325E+02  0.00000000000E+00 0.  1.
          1   -1    0    0  501    0  0.00000000000E+00 -0.00000000000E+00 -0.13884876081E+04  0.13884876081E+04  0.00000000000E+00 0. -1.
         23    2    1    2    0    0 -0.33047712041E+02  0.41821920742E+02 -0.16138524780E+03  0.19225184382E+03  0.89857380997E+02 0.  0.
          5    1    1    2  502    0  0.45109307210E+02 -0.78708656562E+02 -0.61887287550E+03  0.62550429914E+03  0.47000000000E+01 0.  1.
         -5    1    1    2    0  502 -0.12061595168E+02  0.36886735820E+02 -0.58883236046E+03  0.59012858945E+03  0.47000000000E+01 0.  1.
        -11    1    3    3    0    0 -0.34998150407E+02  0.76579882596E+01 -0.15283825290E+03  0.15698103983E+03  0.00000000000E+00 0. -1.
         11    1    3    3    0    0  0.19504383652E+01  0.34163932482E+02 -0.85469948996E+01  0.35270803993E+02  0.00000000000E+00 0.  1.
<mgrwt>
<rscale>  0 0.12914878E+03</rscale>
<asrwt>0</asrwt>
<pdfrwt beam="2">  1        1 0.21361348E+00 0.13860513E+03</pdfrwt>
<pdfrwt beam="1">  1       -1 0.29841729E-02 0.13860513E+03</pdfrwt>
<totfact> 0.31982413E+03</totfact>
</mgrwt>
</event>
<event>
 8    1  0.1273312E-005  0.1439626E+03  0.7546771E-02  0.1218802E+00
         -1   -1    0    0    0  501 -0.00000000000E+00  0.00000000000E+00  0.38077360043E+02  0.38077360043E+02  0.00000000000E+00 0.  1.
          1   -1    0    0  501    0  0.00000000000E+00 -0.00000000000E+00 -0.52881316200E+03  0.52881316200E+03  0.00000000000E+00 0. -1.
         23    2    1    2    0    0  0.68857887482E+02 -0.18944666745E+02 -0.10627330369E+03  0.15635836594E+03  0.89741932540E+02 0.  0.
         23    2    1    2    0    0 -0.68857887482E+02  0.18944666745E+02 -0.38446249826E+03  0.41053215610E+03  0.12499971822E+03 0.  0.
          5    1    4    4  502    0  0.33373658510E+02 -0.13378334989E+02 -0.11053525047E+03  0.11633104713E+03  0.47000000000E+01 0. -1.
         -5    1    4    4    0  502 -0.10223154599E+03  0.32323001734E+02 -0.27392724779E+03  0.29420110897E+03  0.47000000000E+01 0. -1.
        -11    1    3    3    0    0 -0.69776622757E+00 -0.31349739056E+02 -0.33747939872E+01  0.31538583530E+02  0.00000000000E+00 0.  1.
         11    1    3    3    0    0  0.69555653709E+02  0.12405072312E+02 -0.10289850971E+03  0.12481978241E+03  0.00000000000E+00 0. -1.
<mgrwt>
<rscale>  0 0.13600950E+03</rscale>
<asrwt>0</asrwt>
<pdfrwt beam="2">  1        1 0.81355870E-01 0.14396263E+03</pdfrwt>
<pdfrwt beam="1">  1       -1 0.58580555E-02 0.14396263E+03</pdfrwt>
<totfact> 0.56037599E+03</totfact>
</mgrwt>
</event>
<event>
 8    1  0.1273312E-005  0.1293614E+03  0.7546771E-02  0.1242742E+00
         -2   -1    0    0    0  501 -0.00000000000E+00  0.00000000000E+00  0.11773828239E+02  0.11773828239E+02  0.00000000000E+00 0.  1.
          2   -1    0    0  501    0  0.00000000000E+00 -0.00000000000E+00 -0.11089053475E+04  0.11089053475E+04  0.00000000000E+00 0. -1.
         23    2    1    2    0    0 -0.29780438016E+02 -0.14779051714E+02 -0.38576552005E+03  0.39764670144E+03  0.90568028846E+02 0.  0.
         23    2    1    2    0    0  0.29780438016E+02  0.14779051714E+02 -0.71136599921E+03  0.72303247430E+03  0.12501631573E+03 0.  0.
          5    1    4    4  502    0  0.85406278270E+01 -0.47215222703E+02 -0.14358138076E+03  0.15145930965E+03  0.47000000000E+01 0.  1.
         -5    1    4    4    0  502  0.21239810189E+02  0.61994274417E+02 -0.56778461845E+03  0.57157316464E+03  0.47000000000E+01 0.  1.
        -11    1    3    3    0    0 -0.58014425986E+02  0.73019226477E+01 -0.19642223007E+03  0.20494068450E+03  0.00000000000E+00 0.  1.
         11    1    3    3    0    0  0.28233987970E+02 -0.22080974362E+02 -0.18934328998E+03  0.19270601694E+03  0.00000000000E+00 0. -1.
<mgrwt>
<rscale>  0 0.12021531E+03</rscale>
<asrwt>0</asrwt>
<pdfrwt beam="2">  1        2 0.17060083E+00 0.12936141E+03</pdfrwt>
<pdfrwt beam="1">  1       -2 0.18113581E-02 0.12936141E+03</pdfrwt>
<totfact> 0.19251722E+04</totfact>
</mgrwt>
</event>
<event>
 8    1  0.1273312E-005  0.2085303E+03  0.7546771E-02  0.1146580E+00
          2   -1    0    0  501    0  0.00000000000E+00  0.00000000000E+00  0.16273134690E+04  0.16273134690E+04  0.00000000000E+00 0. -1.
         -2   -1    0    0    0  501 -0.00000000000E+00 -0.00000000000E+00 -0.24862824427E+02  0.24862824427E+02  0.00000000000E+00 0.  1.
         23    2    1    2    0    0  0.12628881324E+03  0.10913775942E+03  0.87450700223E+03  0.89495318497E+03  0.91207409052E+02 0.  0.
         23    2    1    2    0    0 -0.12628881324E+03 -0.10913775942E+03  0.72794364236E+03  0.75722310847E+03  0.12499989867E+03 0.  0.
          5    1    4    4  502    0 -0.20807757931E+02 -0.99004464811E+02  0.31539161314E+03  0.33125338712E+03  0.47000000000E+01 0.  1.
         -5    1    4    4    0  502 -0.10548105531E+03 -0.10133294610E+02  0.41255202922E+03  0.42596972135E+03  0.47000000000E+01 0.  1.
        -11    1    3    3    0    0  0.31689585831E+02 -0.12929306920E+01  0.63126005969E+02  0.70645552935E+02  0.00000000000E+00 0.  1.
         11    1    3    3    0    0  0.94599227411E+02  0.11043069011E+03  0.81138099626E+03  0.82430763204E+03  0.00000000000E+00 0. -1.
<mgrwt>
<rscale>  0 0.20379030E+03</rscale>
<asrwt>0</asrwt>
<pdfrwt beam="1">  1        2 0.25035583E+00 0.20853031E+03</pdfrwt>
<pdfrwt beam="2">  1       -2 0.38250512E-02 0.20853031E+03</pdfrwt>
<totfact> 0.34266609E+03</totfact>
</mgrwt>
</event>
<event>
 8    1  0.1273312E-005  0.1370361E+03  0.7546771E-02  0.1228435E+00
         -2   -1    0    0    0  501 -0.00000000000E+00  0.00000000000E+00  0.10041339182E+02  0.10041339182E+02  0.00000000000E+00 0.  1.
          2   -1    0    0  501    0  0.00000000000E+00 -0.00000000000E+00 -0.20380921993E+04  0.20380921993E+04  0.00000000000E+00 0. -1.
         23    2    1    2    0    0 -0.20193527198E+02 -0.52393796879E+02 -0.40631623183E+03  0.42061945428E+03  0.93139446979E+02 0.  0.
         23    2    1    2    0    0  0.20193527198E+02  0.52393796879E+02 -0.16217346283E+04  0.16275140842E+04  0.12500400463E+03 0.  0.
          5    1    4    4  502    0  0.70518717261E+01  0.32789288973E+02 -0.99809995679E+02  0.10539920115E+03  0.47000000000E+01 0. -1.
         -5    1    4    4    0  502  0.13141655472E+02  0.19604507906E+02 -0.15219246326E+04  0.15221148830E+04  0.47000000000E+01 0. -1.
        -11    1    3    3    0    0 -0.42630110561E+02  0.25878763375E+01 -0.10228857105E+03  0.11084662916E+03  0.00000000000E+00 0.  1.
         11    1    3    3    0    0  0.22436583363E+02 -0.54981673216E+02 -0.30402766078E+03  0.30977282512E+03  0.00000000000E+00 0. -1.
<mgrwt>
<rscale>  0 0.12934195E+03</rscale>
<asrwt>0</asrwt>
<pdfrwt beam="2">  1        2 0.31355306E+00 0.13703609E+03</pdfrwt>
<pdfrwt beam="1">  1       -2 0.15448194E-02 0.13703609E+03</pdfrwt>
<totfact> 0.79139850E+03</totfact>
</mgrwt>
</event>
<event>
 8    1  0.1273312E-005  0.1295371E+03  0.7546771E-02  0.1242093E+00
         -1   -1    0    0    0  501 -0.00000000000E+00  0.00000000000E+00  0.35445072102E+02  0.35445072102E+02  0.00000000000E+00 0.  1.
          1   -1    0    0  501    0  0.00000000000E+00 -0.00000000000E+00 -0.38644976718E+03  0.38644976718E+03  0.00000000000E+00 0. -1.
         23    2    1    2    0    0 -0.33977969913E+02 -0.11354337976E+01 -0.10075207726E+03  0.14010373464E+03  0.91226551727E+02 0.  0.
         23    2    1    2    0    0  0.33977969913E+02  0.11354337976E+01 -0.25025261782E+03  0.28179110464E+03  0.12499624906E+03 0.  0.
          5    1    4    4  502    0 -0.10489332844E+02 -0.55893283744E+02 -0.11153682491E+03  0.12528622663E+03  0.47000000000E+01 0.  1.
         -5    1    4    4    0  502  0.44467302757E+02  0.57028717542E+02 -0.13871579291E+03  0.15650487801E+03  0.47000000000E+01 0.  1.
        -11    1    3    3    0    0  0.21003999818E+02 -0.81465983950E+00 -0.77684379837E+02  0.80477913427E+02  0.00000000000E+00 0. -1.
         11    1    3    3    0    0 -0.54981969731E+02 -0.32077395811E+00 -0.23067697422E+02  0.59625821217E+02  0.00000000000E+00 0.  1.
<mgrwt>
<rscale>  0 0.12061063E+03</rscale>
<asrwt>0</asrwt>
<pdfrwt beam="2">  1        1 0.59453815E-01 0.12953708E+03</pdfrwt>
<pdfrwt beam="1">  1       -1 0.54530876E-02 0.12953708E+03</pdfrwt>
<totfact> 0.92622473E+03</totfact>
</mgrwt>
</event>
<event>
 8    1  0.1273312E-005  0.1306874E+03  0.7546771E-02  0.1240199E+00
          1   -1    0    0  501    0  0.00000000000E+00  0.00000000000E+00  0.15515617089E+03  0.15515617089E+03  0.00000000000E+00 0. -1.
         -1   -1    0    0    0  501 -0.00000000000E+00 -0.00000000000E+00 -0.85554143971E+02  0.85554143971E+02  0.00000000000E+00 0.  1.
         23    2    1    2    0    0 -0.44658779242E+00  0.38115826713E+02  0.42224167095E+02  0.10718601892E+03  0.90845730104E+02 0.  0.
         23    2    1    2    0    0  0.44658779242E+00 -0.38115826713E+02  0.27377859823E+02  0.13352429594E+03  0.12500469876E+03 0.  0.
          5    1    4    4  502    0 -0.17473128062E+02 -0.44434302559E+02  0.71012502574E+02  0.85700542414E+02  0.47000000000E+01 0.  1.
         -5    1    4    4    0  502  0.17919715855E+02  0.63184758460E+01 -0.43634642751E+02  0.47823753526E+02  0.47000000000E+01 0.  1.
        -11    1    3    3    0    0 -0.40283990149E+02  0.17458691850E+01  0.33749050892E+02  0.52581806337E+02  0.00000000000E+00 0. -1.
         11    1    3    3    0    0  0.39837402356E+02  0.36369957528E+02  0.84751162028E+01  0.54604212582E+02  0.00000000000E+00 0.  1.
<mgrwt>
<rscale>  0 0.12177414E+03</rscale>
<asrwt>0</asrwt>
<pdfrwt beam="1">  1        1 0.23870180E-01 0.13068738E+03</pdfrwt>
<pdfrwt beam="2">  1       -1 0.13162176E-01 0.13068738E+03</pdfrwt>
<totfact> 0.75883417E+03</totfact>
</mgrwt>
</event>
<event>
 8    1  0.1273312E-005  0.1261621E+03  0.7546771E-02  0.1249233E+00
          1   -1    0    0  501    0  0.00000000000E+00  0.00000000000E+00  0.33956558702E+02  0.33956558702E+02  0.00000000000E+00 0. -1.
         -1   -1    0    0    0  501 -0.00000000000E+00 -0.00000000000E+00 -0.34907003779E+03  0.34907003779E+03  0.00000000000E+00 0.  1.
         23    2    1    2    0    0  0.49547032637E-01  0.17130104946E+02 -0.14234605959E+03  0.16909796051E+03  0.89656436564E+02 0.  0.
         23    2    1    2    0    0 -0.49547032637E-01 -0.17130104946E+02 -0.17276741950E+03  0.21392863599E+03  0.12499374826E+03 0.  0.
          5    1    4    4  502    0  0.59954583307E+02 -0.17010633670E+02 -0.11285323477E+03  0.12900331901E+03  0.47000000000E+01 0. -1.
         -5    1    4    4    0  502 -0.60004130340E+02 -0.11947127524E+00 -0.59914184729E+02  0.84925316973E+02  0.47000000000E+01 0. -1.
        -11    1    3    3    0    0 -0.15858958410E+02 -0.27576608799E+02 -0.10188951058E+03  0.10674009687E+03  0.00000000000E+00 0.  1.
         11    1    3    3    0    0  0.15908505443E+02  0.44706713745E+02 -0.40456549011E+02  0.62357863636E+02  0.00000000000E+00 0. -1.
<mgrwt>
<rscale>  0 0.11635594E+03</rscale>
<asrwt>0</asrwt>
<pdfrwt beam="1">  1        1 0.52240861E-02 0.12616212E+03</pdfrwt>
<pdfrwt beam="2">  1       -1 0.53703081E-01 0.12616212E+03</pdfrwt>
<totfact> 0.53333016E+03</totfact>
</mgrwt>
</event>
<event>
 8    1  0.1273312E-005  0.1328469E+03  0.7546771E-02  0.1234849E+00
          2   -1    0    0  501    0  0.00000000000E+00  0.00000000000E+00  0.21082316026E+04  0.21082316026E+04  0.00000000000E+00 0. -1.
         -2   -1    0    0    0  501 -0.00000000000E+00 -0.00000000000E+00 -0.13942609882E+02  0.13942609882E+02  0.00000000000E+00 0.  1.
         23    2    1    2    0    0 -0.39350078635E+02 -0.21756801085E+02  0.22451389767E+03  0.24768569603E+03  0.94445363502E+02 0.  0.
         23    2    1    2    0    0  0.39350078635E+02  0.21756801085E+02  0.18697750951E+04  0.18744885165E+04  0.12500602059E+03 0.  0.
          5    1    4    4  502    0 -0.31703585162E+02  0.40551859750E+02  0.10954989694E+04  0.10967176722E+04  0.47000000000E+01 0.  1.
         -5    1    4    4    0  502  0.71053663797E+02 -0.18795058665E+02  0.77427612574E+03  0.77777084431E+03  0.47000000000E+01 0.  1.
        -11    1    3    3    0    0 -0.67845260023E+02 -0.30933028523E+02  0.15515563452E+03  0.17214268060E+03  0.00000000000E+00 0. -1.
         11    1    3    3    0    0  0.28495181388E+02  0.91762274383E+01  0.69358263150E+02  0.75543015425E+02  0.00000000000E+00 0.  1.
<mgrwt>
<rscale>  0 0.12514087E+03</rscale>
<asrwt>0</asrwt>
<pdfrwt beam="1">  1        2 0.32434307E+00 0.13284688E+03</pdfrwt>
<pdfrwt beam="2">  1       -2 0.21450186E-02 0.13284688E+03</pdfrwt>
<totfact> 0.45258348E+03</totfact>
</mgrwt>
</event>
<event>
 8    1  0.1273312E-005  0.2231377E+03  0.7546771E-02  0.1134616E+00
         -1   -1    0    0    0  501 -0.00000000000E+00  0.00000000000E+00  0.35535418576E+03  0.35535418576E+03  0.00000000000E+00 0.  1.
          1   -1    0    0  501    0  0.00000000000E+00 -0.00000000000E+00 -0.20413696381E+03  0.20413696381E+03  0.00000000000E+00 0. -1.
         23    2    1    2    0    0 -0.85783174566E+02  0.16372725870E+03  0.24205712082E+03  0.31857137993E+03  0.93438247469E+02 0.  0.
         23    2    1    2    0    0  0.85783174566E+02 -0.16372725870E+03 -0.90839898863E+02  0.24091976964E+03  0.12500031959E+03 0.  0.
          5    1    4    4  502    0  0.76609113211E+02 -0.56145399164E+02 -0.92736600158E+02  0.13282857028E+03  0.47000000000E+01 0. -1.
         -5    1    4    4    0  502  0.91740613544E+01 -0.10758185953E+03  0.18967012956E+01  0.10809119936E+03  0.47000000000E+01 0. -1.
        -11    1    3    3    0    0 -0.73961065427E+02  0.47914785984E+02  0.12950331417E+03  0.15664346235E+03  0.00000000000E+00 0.  1.
         11    1    3    3    0    0 -0.11822109138E+02  0.11581247271E+03  0.11255380665E+03  0.16192791758E+03  0.00000000000E+00 0. -1.
<mgrwt>
<rscale>  0 0.21901908E+03</rscale>
<asrwt>0</asrwt>
<pdfrwt beam="2">  1        1 0.31405687E-01 0.22313773E+03</pdfrwt>
<pdfrwt beam="1">  1       -1 0.54669875E-01 0.22313773E+03</pdfrwt>
<totfact> 0.49873660E+02</totfact>
</mgrwt>
</event>
<event>
 8    1  0.1273312E-005  0.1255826E+03  0.7546771E-02  0.1249687E+00
         -2   -1    0    0    0  501 -0.00000000000E+00  0.00000000000E+00  0.91630180317E+02  0.91630180317E+02  0.00000000000E+00 0.  1.
          2   -1    0    0  501    0  0.00000000000E+00 -0.00000000000E+00 -0.14001267743E+03  0.14001267743E+03  0.00000000000E+00 0. -1.
         23    2    1    2    0    0  0.96591362307E+01 -0.72076021928E+01  0.11653816431E+02  0.92447494160E+02  0.90914681416E+02 0.  0.
         23    2    1    2    0    0 -0.96591362307E+01  0.72076021928E+01 -0.60036313547E+02  0.13919536359E+03  0.12500296740E+03 0.  0.
          5    1    4    4  502    0 -0.45281177725E+02  0.13386067202E+02  0.19808892261E+02  0.51420366236E+02  0.47000000000E+01 0. -1.
         -5    1    4    4    0  502  0.35622041494E+02 -0.61784650087E+01 -0.79845205807E+02  0.87774997354E+02  0.47000000000E+01 0. -1.
        -11    1    3    3    0    0 -0.18761813238E+02 -0.24895993784E+02  0.38498603703E+02  0.49537446741E+02  0.00000000000E+00 0. -1.
         11    1    3    3    0    0  0.28420949469E+02  0.17688391591E+02 -0.26844787272E+02  0.42910047419E+02  0.00000000000E+00 0.  1.
<mgrwt>
<rscale>  0 0.11609174E+03</rscale>
<asrwt>0</asrwt>
<pdfrwt beam="2">  1        2 0.21540412E-01 0.12558260E+03</pdfrwt>
<pdfrwt beam="1">  1       -2 0.14096951E-01 0.12558260E+03</pdfrwt>
<totfact> 0.90644294E+03</totfact>
</mgrwt>
</event>
<event>
 8    1  0.1273312E-005  0.1378523E+03  0.7546771E-02  0.1227958E+00
          2   -1    0    0  501    0  0.00000000000E+00  0.00000000000E+00  0.74869644826E+02  0.74869644826E+02  0.00000000000E+00 0. -1.
         -2   -1    0    0    0  501 -0.00000000000E+00 -0.00000000000E+00 -0.20265980360E+03  0.20265980360E+03  0.00000000000E+00 0.  1.
         23    2    1    2    0    0  0.18207326831E+02 -0.55223134394E+02 -0.46463294211E+02  0.11747530969E+03  0.90887344304E+02 0.  0.
         23    2    1    2    0    0 -0.18207326831E+02  0.55223134394E+02 -0.81326864566E+02  0.16005413874E+03  0.12498866791E+03 0.  0.
          5    1    4    4  502    0  0.20827774573E+01  0.38331358047E+02 -0.11248346740E+03  0.11894642243E+03  0.47000000000E+01 0. -1.
         -5    1    4    4    0  502 -0.20290104289E+02  0.16891776347E+02  0.31156602832E+02  0.41107716310E+02  0.47000000000E+01 0. -1.
        -11    1    3    3    0    0  0.10189101912E+02  0.20097406427E+02 -0.33883445836E+02  0.40691663084E+02  0.00000000000E+00 0.  1.
         11    1    3    3    0    0  0.80182249195E+01 -0.75320540821E+02 -0.12579848375E+02  0.76783646603E+02  0.00000000000E+00 0. -1.
<mgrwt>
<rscale>  0 0.12966186E+03</rscale>
<asrwt>0</asrwt>
<pdfrwt beam="1">  1        2 0.11518407E-01 0.13785234E+03</pdfrwt>
<pdfrwt beam="2">  1       -2 0.31178430E-01 0.13785234E+03</pdfrwt>
<totfact> 0.48793147E+03</totfact>
</mgrwt>
</event>
<event>
 8    1  0.1273312E-005  0.3450660E+03  0.7546771E-02  0.1065623E+00
          2   -1    0    0  501    0  0.00000000000E+00  0.00000000000E+00  0.31161769801E+03  0.31161769801E+03  0.00000000000E+00 0. -1.
         -2   -1    0    0    0  501 -0.00000000000E+00 -0.00000000000E+00 -0.20248078426E+04  0.20248078426E+04  0.00000000000E+00 0.  1.
         23    2    1    2    0    0 -0.31521087033E+03 -0.63932456950E+02 -0.19099033090E+04  0.19392271262E+04  0.97087309088E+02 0.  0.
         23    2    1    2    0    0  0.31521087033E+03  0.63932456950E+02  0.19671316436E+03  0.39719841442E+03  0.12500103825E+03 0.  0.
          5    1    4    4  502    0  0.15794247436E+03 -0.15472590417E+02  0.45983164931E+02  0.16529297540E+03  0.47000000000E+01 0. -1.
         -5    1    4    4    0  502  0.15726839597E+03  0.79405047367E+02  0.15072999943E+03  0.23190543902E+03  0.47000000000E+01 0. -1.
        -11    1    3    3    0    0 -0.24539587091E+03 -0.63745151583E+01 -0.13924622351E+04  0.14139345261E+04  0.00000000000E+00 0.  1.
         11    1    3    3    0    0 -0.69814999417E+02 -0.57557941792E+02 -0.51744107388E+03  0.52529260013E+03  0.00000000000E+00 0. -1.
<mgrwt>
<rscale>  0 0.34276737E+03</rscale>
<asrwt>0</asrwt>
<pdfrwt beam="1">  1        2 0.47941185E-01 0.34506595E+03</pdfrwt>
<pdfrwt beam="2">  1       -2 0.31150889E+00 0.34506595E+03</pdfrwt>
<totfact> 0.32251603E+00</totfact>
</mgrwt>
</event>
<event>
 8    1  0.1273312E-005  0.1395365E+03  0.7546771E-02  0.1225349E+00
         -1   -1    0    0    0  501 -0.00000000000E+00  0.00000000000E+00  0.15035607176E+03  0.15035607176E+03  0.00000000000E+00 0.  1.
          1   -1    0    0  501    0  0.00000000000E+00 -0.00000000000E+00 -0.10552200690E+03  0.10552200690E+03  0.00000000000E+00 0. -1.
         23    2    1    2    0    0  0.59638834076E+02 -0.17037859199E+02  0.37844297142E+02  0.11616664825E+03  0.90638954996E+02 0.  0.
         23    2    1    2    0    0 -0.59638834076E+02  0.17037859199E+02  0.69897677246E+01  0.13971143041E+03  0.12499339086E+03 0.  0.
          5    1    4    4  502    0  0.29149382434E+02  0.86531385512E+01 -0.30068832588E+02  0.43020785631E+02  0.47000000000E+01 0. -1.
         -5    1    4    4    0  502 -0.88788216511E+02  0.83847206475E+01  0.37058600313E+02  0.96690644783E+02  0.47000000000E+01 0. -1.
        -11    1    3    3    0    0  0.29147822051E+02  0.35802458210E+02  0.29006429859E+02  0.54523247495E+02  0.00000000000E+00 0.  1.
         11    1    3    3    0    0  0.30491012025E+02 -0.52840317409E+02  0.88378672830E+01  0.61643400752E+02  0.00000000000E+00 0. -1.
<mgrwt>
<rscale>  0 0.13143029E+03</rscale>
<asrwt>0</asrwt>
<pdfrwt beam="2">  1        1 0.16234155E-01 0.13953647E+03</pdfrwt>
<pdfrwt beam="1">  1       -1 0.23131703E-01 0.13953647E+03</pdfrwt>
<totfact> 0.50861454E+03</totfact>
</mgrwt>
</event>
<event>
 8    1  0.1273312E-005  0.1463699E+03  0.7546771E-02  0.1214065E+00
         -1   -1    0    0    0  501 -0.00000000000E+00  0.00000000000E+00  0.72687287412E+02  0.72687287412E+02  0.00000000000E+00 0.  1.
          1   -1    0    0  501    0  0.00000000000E+00 -0.00000000000E+00 -0.25029874752E+03  0.25029874752E+03  0.00000000000E+00 0. -1.
         23    2    1    2    0    0 -0.59324574603E+02 -0.47769331975E+02 -0.10346675952E+03  0.15890807624E+03  0.93515197375E+02 0.  0.
         23    2    1    2    0    0  0.59324574603E+02  0.47769331975E+02 -0.74144700580E+02  0.16407795868E+03  0.12499130239E+03 0.  0.
          5    1    4    4  502    0  0.64629935644E+02 -0.27694075528E+02 -0.38813389670E+02  0.80452219475E+02  0.47000000000E+01 0.  1.
         -5    1    4    4    0  502 -0.53053610419E+01  0.75463407503E+02 -0.35331310910E+02  0.83625739210E+02  0.47000000000E+01 0.  1.
        -11    1    3    3    0    0 -0.19528650467E+02 -0.71376280078E+02 -0.57809735998E+02  0.93903711977E+02  0.00000000000E+00 0.  1.
         11    1    3    3    0    0 -0.39795924136E+02  0.23606948103E+02 -0.45657023526E+02  0.65004364268E+02  0.00000000000E+00 0. -1.
<mgrwt>
<rscale>  0 0.13945473E+03</rscale>
<asrwt>0</asrwt>
<pdfrwt beam="2">  1        1 0.38507500E-01 0.14636987E+03</pdfrwt>
<pdfrwt beam="1">  1       -1 0.11182660E-01 0.14636987E+03</pdfrwt>
<totfact> 0.54203938E+03</totfact>
</mgrwt>
</event>
<event>
 8    1  0.1273312E-005  0.1476406E+03  0.7546771E-02  0.1213309E+00
          3   -1    0    0  501    0  0.00000000000E+00  0.00000000000E+00  0.69426083513E+03  0.69426083513E+03  0.00000000000E+00 0.  1.
         -3   -1    0    0    0  501 -0.00000000000E+00 -0.00000000000E+00 -0.36923848088E+02  0.36923848088E+02  0.00000000000E+00 0. -1.
         23    2    1    2    0    0 -0.77945898006E+02 -0.98686960501E+01  0.10357867244E+03  0.15808258674E+03  0.89936692553E+02 0.  0.
         23    2    1    2    0    0  0.77945898006E+02  0.98686960501E+01  0.55375831460E+03  0.57310209648E+03  0.12499915129E+03 0.  0.
          5    1    4    4  502    0  0.28448023877E+02 -0.27594942258E+02  0.45236390825E+03  0.45412109221E+03  0.47000000000E+01 0. -1.
         -5    1    4    4    0  502  0.49497874129E+02  0.37463638308E+02  0.10139440635E+03  0.11898100427E+03  0.47000000000E+01 0. -1.
        -11    1    3    3    0    0 -0.73015076613E+02  0.30081778117E+02  0.72866826659E+02  0.10745086884E+03  0.00000000000E+00 0.  1.
         11    1    3    3    0    0 -0.49308213933E+01 -0.39950474167E+02  0.30711845786E+02  0.50631717899E+02  0.00000000000E+00 0. -1.
<mgrwt>
<rscale>  0 0.14001521E+03</rscale>
<asrwt>0</asrwt>
<pdfrwt beam="1">  1        3 0.10680935E+00 0.14764058E+03</pdfrwt>
<pdfrwt beam="2">  1       -3 0.56805925E-02 0.14764058E+03</pdfrwt>
<totfact> 0.34087410E+02</totfact>
</mgrwt>
</event>
<event>
 8    1  0.1273312E-005  0.1588715E+03  0.7546771E-02  0.1198153E+00
          3   -1    0    0  501    0  0.00000000000E+00  0.00000000000E+00  0.47169288074E+03  0.47169288074E+03  0.00000000000E+00 0. -1.
         -3   -1    0    0    0  501 -0.00000000000E+00 -0.00000000000E+00 -0.11312989641E+03  0.11312989641E+03  0.00000000000E+00 0.  1.
         23    2    1    2    0    0 -0.92328445636E+02  0.33043748944E+02 -0.53531219915E+02  0.14316476437E+03  0.89521656781E+02 0.  0.
         23    2    1    2    0    0  0.92328445636E+02 -0.33043748944E+02  0.41209420424E+03  0.44165801278E+03  0.12499494335E+03 0.  0.
          5    1    4    4  502    0  0.18163729164E+02  0.34152737014E+02  0.38180658532E+02  0.54554405767E+02  0.47000000000E+01 0. -1.
         -5    1    4    4    0  502  0.74164716472E+02 -0.67196485958E+02  0.37391354571E+03  0.38710360701E+03  0.47000000000E+01 0. -1.
        -11    1    3    3    0    0 -0.56148144316E+02  0.11813344723E+02 -0.76275030488E+02  0.95446579298E+02  0.00000000000E+00 0.  1.
         11    1    3    3    0    0 -0.36180301320E+02  0.21230404221E+02  0.22743810573E+02  0.47718185069E+02  0.00000000000E+00 0. -1.
<mgrwt>
<rscale>  0 0.15190352E+03</rscale>
<asrwt>0</asrwt>
<pdfrwt beam="1">  1        3 0.72568134E-01 0.15887154E+03</pdfrwt>
<pdfrwt beam="2">  1       -3 0.17404600E-01 0.15887154E+03</pdfrwt>
<totfact> 0.12620705E+02</totfact>
</mgrwt>
</event>
<event>
 8    1  0.1301587E-005  0.1570731E+03  0.7546771E-02  0.1200176E+00
          3   -1    0    0  501    0  0.00000000000E+00  0.00000000000E+00  0.76855928674E+03  0.76855928674E+03  0.00000000000E+00 0. -1.
         -3   -1    0    0    0  501 -0.00000000000E+00 -0.00000000000E+00 -0.28473595985E+02  0.28473595985E+02  0.00000000000E+00 0.  1.
         23    2    1    2    0    0 -0.14771721701E+02  0.93960203557E+02  0.25112767021E+03  0.28346507591E+03  0.90777854684E+02 0.  0.
         23    2    1    2    0    0  0.14771721701E+02 -0.93960203557E+02  0.48895802054E+03  0.51356780681E+03  0.12500089090E+03 0.  0.
          5    1    4    4  502    0 -0.18789992510E+02  0.99013722054E+01  0.24855085289E+03  0.24950093680E+03  0.47000000000E+01 0. -1.
         -5    1    4    4    0  502  0.33561714211E+02 -0.10386157576E+03  0.24040716765E+03  0.26406687001E+03  0.47000000000E+01 0. -1.
        -11    1    3    3    0    0 -0.57205685747E+01  0.61159343562E+02  0.23989167601E+03  0.24763119034E+03  0.00000000000E+00 0. -1.
         11    1    3    3    0    0 -0.90511531261E+01  0.32800859995E+02  0.11235994197E+02  0.35833885568E+02  0.00000000000E+00 0.  1.
<mgrwt>
<rscale>  0 0.15024233E+03</rscale>
<asrwt>0</asrwt>
<pdfrwt beam="1">  1        3 0.11823987E+00 0.15707306E+03</pdfrwt>
<pdfrwt beam="2">  1       -3 0.43805538E-02 0.15707306E+03</pdfrwt>
<totfact> 0.40973730E+02</totfact>
</mgrwt>
</event>
<event>
 8    1  0.1273312E-005  0.1498015E+03  0.7546771E-02  0.1209394E+00
         -1   -1    0    0    0  501 -0.00000000000E+00  0.00000000000E+00  0.10781771666E+03  0.10781771666E+03  0.00000000000E+00 0.  1.
          1   -1    0    0  501    0  0.00000000000E+00 -0.00000000000E+00 -0.17482846490E+03  0.17482846490E+03  0.00000000000E+00 0. -1.
         23    2    1    2    0    0 -0.60540198568E+02 -0.56105252012E+02 -0.21774880990E+02  0.12616371976E+03  0.92898997814E+02 0.  0.
         23    2    1    2    0    0  0.60540198568E+02  0.56105252012E+02 -0.45235867251E+02  0.15648246180E+03  0.12501024846E+03 0.  0.
          5    1    4    4  502    0 -0.38723837425E+01  0.52114492046E+02 -0.69755182018E+02  0.87285686429E+02  0.47000000000E+01 0.  1.
         -5    1    4    4    0  502  0.64412582310E+02  0.39907599659E+01  0.24519314767E+02  0.69196775370E+02  0.47000000000E+01 0.  1.
        -11    1    3    3    0    0 -0.10587437065E+02 -0.38524124486E+01 -0.47970030920E+02  0.49275336343E+02  0.00000000000E+00 0. -1.
         11    1    3    3    0    0 -0.49952761503E+02 -0.52252839564E+02  0.26195149930E+02  0.76888383414E+02  0.00000000000E+00 0.  1.
<mgrwt>
<rscale>  0 0.14296475E+03</rscale>
<asrwt>0</asrwt>
<pdfrwt beam="2">  1        1 0.26896687E-01 0.14980146E+03</pdfrwt>
<pdfrwt beam="1">  1       -1 0.16587341E-01 0.14980146E+03</pdfrwt>
<totfact> 0.45867623E+03</totfact>
</mgrwt>
</event>
<event>
 8    1  0.1273312E-005  0.1308896E+03  0.7546771E-02  0.1239905E+00
          2   -1    0    0  501    0  0.00000000000E+00  0.00000000000E+00  0.18028357715E+03  0.18028357715E+03  0.00000000000E+00 0. -1.
         -2   -1    0    0    0  501 -0.00000000000E+00 -0.00000000000E+00 -0.86280612385E+02  0.86280612385E+02  0.00000000000E+00 0.  1.
         23    2    1    2    0    0 -0.36976529402E+02 -0.11829181591E+02 -0.10316485900E+02  0.99188495010E+02  0.90690321409E+02 0.  0.
         23    2    1    2    0    0  0.36976529402E+02  0.11829181591E+02  0.10431945067E+03  0.16737569453E+03  0.12499952827E+03 0.  0.
          5    1    4    4  502    0  0.52980021005E+02  0.19638069939E+02 -0.46245704804E+01  0.56885965482E+02  0.47000000000E+01 0.  1.
         -5    1    4    4    0  502 -0.16003491603E+02 -0.78088883474E+01  0.10894402115E+03  0.11048972905E+03  0.47000000000E+01 0.  1.
        -11    1    3    3    0    0  0.12680265500E+02  0.29081691735E+02  0.71483796466E+01  0.32521273943E+02  0.00000000000E+00 0. -1.
         11    1    3    3    0    0 -0.49656794902E+02 -0.40910873326E+02 -0.17464865546E+02  0.66667221067E+02  0.00000000000E+00 0.  1.
<mgrwt>
<rscale>  0 0.12195612E+03</rscale>
<asrwt>0</asrwt>
<pdfrwt beam="1">  1        2 0.27735935E-01 0.13088955E+03</pdfrwt>
<pdfrwt beam="2">  1       -2 0.13273940E-01 0.13088955E+03</pdfrwt>
<totfact> 0.75813260E+03</totfact>
</mgrwt>
</event>
<event>
 8    1  0.1273312E-005  0.1280196E+03  0.7546771E-02  0.1243463E+00
         -3   -1    0    0    0  501 -0.00000000000E+00  0.00000000000E+00  0.11251680720E+03  0.11251680720E+03  0.00000000000E+00 0.  1.
          3   -1    0    0  501    0  0.00000000000E+00 -0.00000000000E+00 -0.11581930995E+03  0.11581930995E+03  0.00000000000E+00 0. -1.
         23    2    1    2    0    0 -0.18188996684E+02  0.20810534925E+02  0.14200754569E+02  0.99125550154E+02  0.94129141602E+02 0.  0.
         23    2    1    2    0    0  0.18188996684E+02 -0.20810534925E+02 -0.17503257320E+02  0.12921056699E+03  0.12500035457E+03 0.  0.
          5    1    4    4  502    0 -0.78512141737E+01 -0.22765558804E+02  0.50537914966E+02  0.56179027054E+02  0.47000000000E+01 0.  1.
         -5    1    4    4    0  502  0.26040210858E+02  0.19550238787E+01 -0.68041172285E+02  0.73031539939E+02  0.47000000000E+01 0.  1.
        -11    1    3    3    0    0  0.19606821477E+02 -0.27339669320E+02  0.17307484056E+02  0.37834296231E+02  0.00000000000E+00 0.  1.
         11    1    3    3    0    0 -0.37795818161E+02  0.48150204245E+02 -0.31067294865E+01  0.61291253923E+02  0.00000000000E+00 0. -1.
<mgrwt>
<rscale>  0 0.11977823E+03</rscale>
<asrwt>0</asrwt>
<pdfrwt beam="2">  1        3 0.17818355E-01 0.12801956E+03</pdfrwt>
<pdfrwt beam="1">  1       -3 0.17310278E-01 0.12801956E+03</pdfrwt>
<totfact> 0.18086813E+03</totfact>
</mgrwt>
</event>
<event>
 8    1  0.1273312E-005  0.1338309E+03  0.7546771E-02  0.1234740E+00
          2   -1    0    0  501    0  0.00000000000E+00  0.00000000000E+00  0.21954362410E+03  0.21954362410E+03  0.00000000000E+00 0. -1.
         -2   -1    0    0    0  501 -0.00000000000E+00 -0.00000000000E+00 -0.79707768556E+02  0.79707768556E+02  0.00000000000E+00 0.  1.
         23    2    1    2    0    0  0.21392117790E+01 -0.47750583864E+02 -0.42137031364E+01  0.10262745171E+03  0.90719039150E+02 0.  0.
         23    2    1    2    0    0 -0.21392117790E+01  0.47750583864E+02  0.14404955868E+03  0.19662394094E+03  0.12500401717E+03 0.  0.
          5    1    4    4  502    0  0.34482539743E+01  0.73851770644E+02  0.15139050927E+03  0.16854421016E+03  0.47000000000E+01 0.  1.
         -5    1    4    4    0  502 -0.55874657533E+01 -0.26101186780E+02 -0.73409505931E+01  0.28079730777E+02  0.47000000000E+01 0.  1.
        -11    1    3    3    0    0 -0.26048970917E+02 -0.64187223986E+02  0.24872629823E+01  0.69316196419E+02  0.00000000000E+00 0. -1.
         11    1    3    3    0    0  0.28188182696E+02  0.16436640122E+02 -0.67009661187E+01  0.33311255292E+02  0.00000000000E+00 0.  1.
<mgrwt>
<rscale>  0 0.12521071E+03</rscale>
<asrwt>0</asrwt>
<pdfrwt beam="1">  1        2 0.33775942E-01 0.13383086E+03</pdfrwt>
<pdfrwt beam="2">  1       -2 0.12262734E-01 0.13383086E+03</pdfrwt>
<totfact> 0.69695385E+03</totfact>
</mgrwt>
</event>
<event>
 8    1  0.1273312E-005  0.1329701E+03  0.7546771E-02  0.1234946E+00
         -1   -1    0    0    0  501 -0.00000000000E+00  0.00000000000E+00  0.10176440002E+02  0.10176440002E+02  0.00000000000E+00 0.  1.
          1   -1    0    0  501    0  0.00000000000E+00 -0.00000000000E+00 -0.15355250362E+04  0.15355250362E+04  0.00000000000E+00 0. -1.
         23    2    1    2    0    0 -0.32949227448E+02 -0.31127006881E+02 -0.43545414303E+03  0.44772562495E+03  0.93719701278E+02 0.  0.
         23    2    1    2    0    0  0.32949227448E+02  0.31127006881E+02 -0.10898944531E+04  0.10979758512E+04  0.12500603482E+03 0.  0.
          5    1    4    4  502    0  0.61978423559E+02  0.17327389691E+02 -0.27635779104E+03  0.28379091263E+03  0.47000000000E+01 0. -1.
         -5    1    4    4    0  502 -0.29029196111E+02  0.13799617190E+02 -0.81353666208E+03  0.81418493858E+03  0.47000000000E+01 0. -1.
        -11    1    3    3    0    0 -0.13239679262E+02  0.32900129612E+02 -0.11500983255E+03  0.12035351769E+03  0.00000000000E+00 0. -1.
         11    1    3    3    0    0 -0.19709548186E+02 -0.64027136494E+02 -0.32044431047E+03  0.32737210726E+03  0.00000000000E+00 0.  1.
<mgrwt>
<rscale>  0 0.12507883E+03</rscale>
<asrwt>0</asrwt>
<pdfrwt beam="2">  1        1 0.23623457E+00 0.13297011E+03</pdfrwt>
<pdfrwt beam="1">  1       -1 0.15656065E-02 0.13297011E+03</pdfrwt>
<totfact> 0.65083809E+03</totfact>
</mgrwt>
</event>
<event>
 8    1  0.1273312E-005  0.1629983E+03  0.7546771E-02  0.1192799E+00
         -2   -1    0    0    0  501 -0.00000000000E+00  0.00000000000E+00  0.44793493493E+02  0.44793493493E+02  0.00000000000E+00 0.  1.
          2   -1    0    0  501    0  0.00000000000E+00 -0.00000000000E+00 -0.56360486784E+03  0.56360486784E+03  0.00000000000E+00 0. -1.
         23    2    1    2    0    0 -0.32792490339E+02 -0.99338067434E+02 -0.14366410824E+03  0.19937036608E+03  0.90364638050E+02 0.  0.
         23    2    1    2    0    0  0.32792490339E+02  0.99338067434E+02 -0.37514726610E+03  0.40902799525E+03  0.12500012227E+03 0.  0.
          5    1    4    4  502    0  0.32485559387E+02  0.32470432765E+01 -0.14967939105E+02  0.36221320514E+02  0.47000000000E+01 0.  1.
         -5    1    4    4    0  502  0.30693095184E+00  0.96091024158E+02 -0.36017932700E+03  0.37280667474E+03  0.47000000000E+01 0.  1.
        -11    1    3    3    0    0  0.19030107122E+02 -0.23376767026E+02 -0.85270159311E+02  0.90441242155E+02  0.00000000000E+00 0. -1.
         11    1    3    3    0    0 -0.51822597461E+02 -0.75961300408E+02 -0.58393948928E+02  0.10892912392E+03  0.00000000000E+00 0.  1.
<mgrwt>
<rscale>  0 0.15642005E+03</rscale>
<asrwt>0</asrwt>
<pdfrwt beam="2">  1        2 0.86708441E-01 0.16299825E+03</pdfrwt>
<pdfrwt beam="1">  1       -2 0.68913067E-02 0.16299825E+03</pdfrwt>
<totfact> 0.62965245E+03</totfact>
</mgrwt>
</event>
<event>
 8    1  0.1273312E-005  0.1360587E+03  0.7546771E-02  0.1230353E+00
         -1   -1    0    0    0  501 -0.00000000000E+00  0.00000000000E+00  0.21976856649E+02  0.21976856649E+02  0.00000000000E+00 0.  1.
          1   -1    0    0  501    0  0.00000000000E+00 -0.00000000000E+00 -0.67534461011E+03  0.67534461011E+03  0.00000000000E+00 0. -1.
         23    2    1    2    0    0  0.24046453638E+02  0.48060696196E+02 -0.31557801358E+03  0.33315958035E+03  0.92291716185E+02 0.  0.
         23    2    1    2    0    0 -0.24046453638E+02 -0.48060696196E+02 -0.33778973989E+03  0.36416188641E+03  0.12499563468E+03 0.  0.
          5    1    4    4  502    0 -0.57346811996E+02 -0.72084639113E+02 -0.26311811227E+03  0.27881550001E+03  0.47000000000E+01 0. -1.
         -5    1    4    4    0  502  0.33300358358E+02  0.24023942917E+02 -0.74671627616E+02  0.85346386396E+02  0.47000000000E+01 0. -1.
        -11    1    3    3    0    0  0.27612922534E+02 -0.22095686239E+02 -0.83426885783E+02  0.90613123292E+02  0.00000000000E+00 0.  1.
         11    1    3    3    0    0 -0.35664688970E+01  0.70156382435E+02 -0.23215112779E+03  0.24254645706E+03  0.00000000000E+00 0. -1.
<mgrwt>
<rscale>  0 0.12806651E+03</rscale>
<asrwt>0</asrwt>
<pdfrwt beam="2">  1        1 0.10389917E+00 0.13605870E+03</pdfrwt>
<pdfrwt beam="1">  1       -1 0.33810549E-02 0.13605870E+03</pdfrwt>
<totfact> 0.90017671E+03</totfact>
</mgrwt>
</event>
<event>
 8    1  0.1273312E-005  0.1270090E+03  0.7546771E-02  0.1248553E+00
         -1   -1    0    0    0  501 -0.00000000000E+00  0.00000000000E+00  0.10693289435E+02  0.10693289435E+02  0.00000000000E+00 0.  1.
          1   -1    0    0  501    0  0.00000000000E+00 -0.00000000000E+00 -0.15750746942E+04  0.15750746942E+04  0.00000000000E+00 0. -1.
         23    2    1    2    0    0 -0.60895224171E+01  0.21656997571E+02 -0.26287476196E+03  0.27807886847E+03  0.87855613299E+02 0.  0.
         23    2    1    2    0    0  0.60895224171E+01 -0.21656997571E+02 -0.13015066428E+04  0.13076891152E+04  0.12500069128E+03 0.  0.
          5    1    4    4  502    0  0.27410840376E+01  0.43042767023E+02 -0.89273693424E+03  0.89379053312E+03  0.47000000000E+01 0.  1.
         -5    1    4    4    0  502  0.33484383795E+01 -0.64699764593E+02 -0.40876970858E+03  0.41389858205E+03  0.47000000000E+01 0.  1.
        -11    1    3    3    0    0 -0.44452033227E+02  0.21817332917E+02 -0.11302138000E+03  0.12339291556E+03  0.00000000000E+00 0.  1.
         11    1    3    3    0    0  0.38362510810E+02 -0.16033534598E+00 -0.14985338196E+03  0.15468595291E+03  0.00000000000E+00 0. -1.
<mgrwt>
<rscale>  0 0.11675243E+03</rscale>
<asrwt>0</asrwt>
<pdfrwt beam="2">  1        1 0.24231921E+00 0.12700898E+03</pdfrwt>
<pdfrwt beam="1">  1       -1 0.16451213E-02 0.12700898E+03</pdfrwt>
<totfact> 0.57076435E+03</totfact>
</mgrwt>
</event>
<event>
 8    1  0.1273312E-005  0.1441250E+03  0.7546771E-02  0.1216283E+00
         -2   -1    0    0    0  501 -0.00000000000E+00  0.00000000000E+00  0.36982807588E+02  0.36982807588E+02  0.00000000000E+00 0.  1.
          2   -1    0    0  501    0  0.00000000000E+00 -0.00000000000E+00 -0.47438985588E+03  0.47438985588E+03  0.00000000000E+00 0. -1.
         23    2    1    2    0    0  0.51732761564E+02 -0.49677875679E+02 -0.18822797597E+03  0.22351468003E+03  0.96875545405E+02 0.  0.
         23    2    1    2    0    0 -0.51732761564E+02  0.49677875679E+02 -0.24917907232E+03  0.28785798344E+03  0.12501135388E+03 0.  0.
          5    1    4    4  502    0 -0.83972386455E+02  0.23432176324E+02 -0.99177638399E+02  0.13213145928E+03  0.47000000000E+01 0. -1.
         -5    1    4    4    0  502  0.32239624891E+02  0.26245699355E+02 -0.15000143392E+03  0.15572652416E+03  0.47000000000E+01 0. -1.
        -11    1    3    3    0    0  0.55731629298E+02  0.11288815962E+02 -0.11384256477E+03  0.12725400357E+03  0.00000000000E+00 0. -1.
         11    1    3    3    0    0 -0.39988677335E+01 -0.60966691642E+02 -0.74385411201E+02  0.96260676459E+02  0.00000000000E+00 0.  1.
<mgrwt>
<rscale>  0 0.13782692E+03</rscale>
<asrwt>0</asrwt>
<pdfrwt beam="2">  1        2 0.72983048E-01 0.14412498E+03</pdfrwt>
<pdfrwt beam="1">  1       -2 0.56896632E-02 0.14412498E+03</pdfrwt>
<totfact> 0.10134882E+04</totfact>
</mgrwt>
</event>
<event>
 8    1  0.1273312E-005  0.1411402E+03  0.7546771E-02  0.1227494E+00
          2   -1    0    0  501    0  0.00000000000E+00  0.00000000000E+00  0.15706683670E+04  0.15706683670E+04  0.00000000000E+00 0. -1.
         -2   -1    0    0    0  501 -0.00000000000E+00 -0.00000000000E+00 -0.12246841872E+02  0.12246841872E+02  0.00000000000E+00 0.  1.
         23    2    1    2    0    0 -0.46285632611E+02 -0.46395088312E+02  0.30223017880E+03  0.31881978403E+03  0.77511997187E+02 0.  0.
         23    2    1    2    0    0  0.46285632611E+02  0.46395088312E+02  0.12561913463E+04  0.12640954248E+04  0.12500272198E+03 0.  0.
          5    1    4    4  502    0  0.64662432636E+02  0.51335575395E+01  0.30674598451E+03  0.31356462272E+03  0.47000000000E+01 0.  1.
         -5    1    4    4    0  502 -0.18376800025E+02  0.41261530772E+02  0.94944536179E+03  0.95053080209E+03  0.47000000000E+01 0.  1.
        -11    1    3    3    0    0 -0.42081535569E+00 -0.53078116193E+02  0.12893636956E+03  0.13943475499E+03  0.00000000000E+00 0.  1.
         11    1    3    3    0    0 -0.45864817256E+02  0.66830278813E+01  0.17329380923E+03  0.17938502904E+03  0.00000000000E+00 0. -1.
<mgrwt>
<rscale>  0 0.12997454E+03</rscale>
<asrwt>0</asrwt>
<pdfrwt beam="1">  1        2 0.24164113E+00 0.14114016E+03</pdfrwt>
<pdfrwt beam="2">  1       -2 0.18841308E-02 0.14114016E+03</pdfrwt>
<totfact> 0.10318997E+04</totfact>
</mgrwt>
</event>
<event>
 7    1  0.1273312E-005  0.2164770E+03  0.7546771E-02  0.1172835E+00
         -2   -1    0    0    0  501 -0.00000000000E+00  0.00000000000E+00  0.85933165013E+02  0.85933165013E+02  0.00000000000E+00 0.  1.
          2   -1    0    0  501    0  0.00000000000E+00 -0.00000000000E+00 -0.84569514831E+03  0.84569514831E+03  0.00000000000E+00 0. -1.
         23    2    1    2    0    0  0.10796584758E+02  0.50162152793E+01  0.41861551685E+02  0.10128947747E+03  0.91462779742E+02 0.  0.
          5    1    1    2  502    0  0.10816664089E+02 -0.97003044862E+02 -0.59646854043E+03  0.60441988771E+03  0.47000000000E+01 0. -1.
         -5    1    1    2    0  502 -0.21613248848E+02  0.91986829582E+02 -0.20515499455E+03  0.22591894815E+03  0.47000000000E+01 0.  1.
        -11    1    3    3    0    0  0.43114771679E+02  0.28897623361E+02  0.26416782728E+02  0.58239184253E+02  0.00000000000E+00 0.  1.
         11    1    3    3    0    0 -0.32318186920E+02 -0.23881408081E+02  0.15444768957E+02  0.43050293215E+02  0.00000000000E+00 0. -1.
<mgrwt>
<rscale>  0 0.17489683E+03</rscale>
<asrwt>0</asrwt>
<pdfrwt beam="2">  1        2 0.13010694E+00 0.21647700E+03</pdfrwt>
<pdfrwt beam="1">  1       -2 0.13220488E-01 0.21647700E+03</pdfrwt>
<totfact> 0.13922843E+03</totfact>
</mgrwt>
</event>
<event>
 8    1  0.1273312E-005  0.2330484E+03  0.7546771E-02  0.1127498E+00
          1   -1    0    0  501    0  0.00000000000E+00  0.00000000000E+00  0.64069117258E+03  0.64069117258E+03  0.00000000000E+00 0. -1.
         -1   -1    0    0    0  501 -0.00000000000E+00 -0.00000000000E+00 -0.80514318127E+02  0.80514318127E+02  0.00000000000E+00 0.  1.
         23    2    1    2    0    0  0.10352314513E+03 -0.16723069446E+03  0.21803392829E+03  0.30723286287E+03  0.90388557899E+02 0.  0.
         23    2    1    2    0    0 -0.10352314513E+03  0.16723069446E+03  0.34214292617E+03  0.41397262784E+03  0.12501363095E+03 0.  0.
          5    1    4    4  502    0 -0.88105580601E+02  0.33814060031E+02  0.10388842887E+03  0.14043104942E+03  0.47000000000E+01 0. -1.
         -5    1    4    4    0  502 -0.15417564530E+02  0.13341663443E+03  0.23825449730E+03  0.27354157841E+03  0.47000000000E+01 0. -1.
        -11    1    3    3    0    0  0.86332615151E+02 -0.62838115372E+02  0.80555970280E+02  0.13375804099E+03  0.00000000000E+00 0.  1.
         11    1    3    3    0    0  0.17190529979E+02 -0.10439257909E+03  0.13747795801E+03  0.17347482188E+03  0.00000000000E+00 0. -1.
<mgrwt>
<rscale>  0 0.22878473E+03</rscale>
<asrwt>0</asrwt>
<pdfrwt beam="1">  1        1 0.98567869E-01 0.23304840E+03</pdfrwt>
<pdfrwt beam="2">  1       -1 0.12386819E-01 0.23304840E+03</pdfrwt>
<totfact> 0.13953917E+03</totfact>
</mgrwt>
</event>
<event>
 8    1  0.1273312E-005  0.1491250E+03  0.7546771E-02  0.1210670E+00
          1   -1    0    0  501    0  0.00000000000E+00  0.00000000000E+00  0.80470710202E+03  0.80470710202E+03  0.00000000000E+00 0. -1.
         -1   -1    0    0    0  501 -0.00000000000E+00 -0.00000000000E+00 -0.27474706149E+02  0.27474706149E+02  0.00000000000E+00 0.  1.
         23    2    1    2    0    0  0.57032586846E+01 -0.81120391893E+02  0.18847464392E+03  0.22483185910E+03  0.91725832364E+02 0.  0.
         23    2    1    2    0    0 -0.57032586846E+01  0.81120391893E+02  0.58875775195E+03  0.60734994907E+03  0.12500090006E+03 0.  0.
          5    1    4    4  502    0  0.47626797905E+02  0.83897940265E-01  0.26691721536E+03  0.27117376122E+03  0.47000000000E+01 0.  1.
         -5    1    4    4    0  502 -0.53330056589E+02  0.81036493952E+02  0.32184053659E+03  0.33617618785E+03  0.47000000000E+01 0.  1.
        -11    1    3    3    0    0 -0.19688334996E+02 -0.72758197684E+02  0.68289982121E+02  0.10170991851E+03  0.00000000000E+00 0.  1.
         11    1    3    3    0    0  0.25391593680E+02 -0.83621942083E+01  0.12018466180E+03  0.12312194059E+03  0.00000000000E+00 0. -1.
<mgrwt>
<rscale>  0 0.14199424E+03</rscale>
<asrwt>0</asrwt>
<pdfrwt beam="1">  1        1 0.12380107E+00 0.14912502E+03</pdfrwt>
<pdfrwt beam="2">  1       -1 0.42268785E-02 0.14912502E+03</pdfrwt>
<totfact> 0.50456285E+03</totfact>
</mgrwt>
</event>
<event>
 8    1  0.1273312E-005  0.1380211E+03  0.7546771E-02  0.1228460E+00
          2   -1    0    0  501    0  0.00000000000E+00  0.00000000000E+00  0.12497165631E+03  0.12497165631E+03  0.00000000000E+00 0. -1.
         -2   -1    0    0    0  501 -0.00000000000E+00 -0.00000000000E+00 -0.11951079747E+03  0.11951079747E+03  0.00000000000E+00 0.  1.
         23    2    1    2    0    0 -0.43916321952E+02  0.39079159216E+02  0.12931690183E+01  0.10639844639E+03  0.88674309074E+02 0.  0.
         23    2    1    2    0    0  0.43916321952E+02 -0.39079159216E+02  0.41676898169E+01  0.13808400738E+03  0.12487593618E+03 0.  0.
          5    1    4    4  502    0  0.26879751264E+02  0.42182952410E+02  0.18805662483E+02  0.53643876104E+02  0.47000000000E+01 0.  1.
         -5    1    4    4    0  502  0.17036570688E+02 -0.81262111626E+02 -0.14637972666E+02  0.84440131280E+02  0.47000000000E+01 0.  1.
        -11    1    3    3    0    0 -0.42730215320E+02  0.12783017438E+02 -0.38343393617E+02  0.58817452088E+02  0.00000000000E+00 0.  1.
         11    1    3    3    0    0 -0.11861066321E+01  0.26296141778E+02  0.39636562636E+02  0.47580994304E+02  0.00000000000E+00 0. -1.
<mgrwt>
<rscale>  0 0.12932572E+03</rscale>
<asrwt>0</asrwt>
<pdfrwt beam="1">  1        2 0.19226409E-01 0.13802110E+03</pdfrwt>
<pdfrwt beam="2">  1       -2 0.18386276E-01 0.13802110E+03</pdfrwt>
<totfact> 0.67014069E+03</totfact>
</mgrwt>
</event>
<event>
 8    1  0.1273312E-005  0.1807960E+03  0.7546771E-02  0.1172644E+00
         -2   -1    0    0    0  501 -0.00000000000E+00  0.00000000000E+00  0.95595204007E+02  0.95595204007E+02  0.00000000000E+00 0.  1.
          2   -1    0    0  501    0  0.00000000000E+00 -0.00000000000E+00 -0.46187693725E+03  0.46187693725E+03  0.00000000000E+00 0. -1.
         23    2    1    2    0    0  0.11574643914E+03  0.60541327333E+02 -0.11692715569E+02  0.15945132926E+03  0.90694632239E+02 0.  0.
         23    2    1    2    0    0 -0.11574643914E+03 -0.60541327333E+02 -0.35458901767E+03  0.39802081199E+03  0.12499881935E+03 0.  0.
          5    1    4    4  502    0 -0.10538429557E+03 -0.96484753023E+02 -0.28670454314E+03  0.32036969641E+03  0.47000000000E+01 0. -1.
         -5    1    4    4    0  502 -0.10362143568E+02  0.35943425690E+02 -0.67884474530E+02  0.77651115587E+02  0.47000000000E+01 0. -1.
        -11    1    3    3    0    0  0.34871673721E+02 -0.15206444872E+02  0.21603074241E+02  0.43748856104E+02  0.00000000000E+00 0.  1.
         11    1    3    3    0    0  0.80874765417E+02  0.75747772205E+02 -0.33295789810E+02  0.11570247316E+03  0.00000000000E+00 0. -1.
<mgrwt>
<rscale>  0 0.17508782E+03</rscale>
<asrwt>0</asrwt>
<pdfrwt beam="2">  1        2 0.71057990E-01 0.18079600E+03</pdfrwt>
<pdfrwt beam="1">  1       -2 0.14706955E-01 0.18079600E+03</pdfrwt>
<totfact> 0.23754656E+03</totfact>
</mgrwt>
</event>
<event>
 8    1  0.1273312E-005  0.2669720E+03  0.7546771E-02  0.1104301E+00
          2   -1    0    0  501    0  0.00000000000E+00  0.00000000000E+00  0.23743762918E+03  0.23743762918E+03  0.00000000000E+00 0. -1.
         -2   -1    0    0    0  501 -0.00000000000E+00 -0.00000000000E+00 -0.34093895294E+03  0.34093895294E+03  0.00000000000E+00 0.  1.
         23    2    1    2    0    0 -0.29049186321E+02  0.23410400424E+03 -0.16218988114E+03  0.30502992596E+03  0.10530507185E+03 0.  0.
         23    2    1    2    0    0  0.29049186321E+02 -0.23410400424E+03  0.58688557382E+02  0.27334665615E+03  0.12500203052E+03 0.  0.
          5    1    4    4  502    0  0.21078973763E+02 -0.13623882222E+03 -0.29756513697E+02  0.14111300409E+03  0.47000000000E+01 0.  1.
         -5    1    4    4    0  502  0.79702125584E+01 -0.97865182023E+02  0.88445071079E+02  0.13223365207E+03  0.47000000000E+01 0.  1.
        -11    1    3    3    0    0  0.82035325360E+00  0.56551945235E+02 -0.99370614696E+02  0.11433859608E+03  0.00000000000E+00 0.  1.
         11    1    3    3    0    0 -0.29869539575E+02  0.17755205901E+03 -0.62819266444E+02  0.19069132988E+03  0.00000000000E+00 0. -1.
<mgrwt>
<rscale>  0 0.26478641E+03</rscale>
<asrwt>0</asrwt>
<pdfrwt beam="1">  1        2 0.36528866E-01 0.26697200E+03</pdfrwt>
<pdfrwt beam="2">  1       -2 0.52452147E-01 0.26697200E+03</pdfrwt>
<totfact> 0.49400814E+02</totfact>
</mgrwt>
</event>
<event>
 8    1  0.1273312E-005  0.1380695E+03  0.7546771E-02  0.1226474E+00
         -2   -1    0    0    0  501 -0.00000000000E+00  0.00000000000E+00  0.29508377683E+02  0.29508377683E+02  0.00000000000E+00 0. -1.
          2   -1    0    0  501    0  0.00000000000E+00 -0.00000000000E+00 -0.53156075407E+03  0.53156075407E+03  0.00000000000E+00 0.  1.
         23    2    1    2    0    0 -0.40087501496E+02 -0.42781850165E+02 -0.19170422010E+03  0.22139402488E+03  0.93954838974E+02 0.  0.
         23    2    1    2    0    0  0.40087501496E+02  0.42781850165E+02 -0.31034815629E+03  0.33967510688E+03  0.12500362252E+03 0.  0.
          5    1    4    4  502    0  0.33606026795E+02  0.29657783737E+02 -0.20655949826E+02  0.49575270411E+02  0.47000000000E+01 0. -1.
         -5    1    4    4    0  502  0.64814747007E+01  0.13124066428E+02 -0.28969220646E+03  0.29009983647E+03  0.47000000000E+01 0. -1.
        -11    1    3    3    0    0  0.18828728822E+02 -0.31574360197E+02 -0.13100179687E+03  0.13606223588E+03  0.00000000000E+00 0.  1.
         11    1    3    3    0    0 -0.58916230318E+02 -0.11207489968E+02 -0.60702423230E+02  0.85331788990E+02  0.00000000000E+00 0. -1.
<mgrwt>
<rscale>  0 0.13066402E+03</rscale>
<asrwt>0</asrwt>
<pdfrwt beam="2">  1        2 0.81778574E-01 0.13806955E+03</pdfrwt>
<pdfrwt beam="1">  1       -2 0.45397506E-02 0.13806955E+03</pdfrwt>
<totfact> 0.12520386E+04</totfact>
</mgrwt>
</event>
<event>
 8    1  0.1273312E-005  0.1688482E+03  0.7546771E-02  0.1185664E+00
          2   -1    0    0  501    0  0.00000000000E+00  0.00000000000E+00  0.88593938347E+03  0.88593938347E+03  0.00000000000E+00 0. -1.
         -2   -1    0    0    0  501 -0.00000000000E+00 -0.00000000000E+00 -0.27913602772E+02  0.27913602772E+02  0.00000000000E+00 0.  1.
         23    2    1    2    0    0  0.63457883346E+02  0.94134598197E+02  0.38990516566E+03  0.41621194152E+03  0.91203708903E+02 0.  0.
         23    2    1    2    0    0 -0.63457883346E+02 -0.94134598197E+02  0.46812061504E+03  0.49764104472E+03  0.12498589374E+03 0.  0.
          5    1    4    4  502    0  0.16727346724E+01 -0.56687037516E+02  0.36802781780E+03  0.37240137344E+03  0.47000000000E+01 0. -1.
         -5    1    4    4    0  502 -0.65130618019E+02 -0.37447560681E+02  0.10009279723E+03  0.12523967128E+03  0.47000000000E+01 0. -1.
        -11    1    3    3    0    0  0.58589066327E+02  0.25224016657E+02  0.10337457304E+03  0.12147111616E+03  0.00000000000E+00 0.  1.
         11    1    3    3    0    0  0.48688170196E+01  0.68910581539E+02  0.28653059262E+03  0.29474082536E+03  0.00000000000E+00 0. -1.
<mgrwt>
<rscale>  0 0.16271607E+03</rscale>
<asrwt>0</asrwt>
<pdfrwt beam="1">  1        2 0.13629834E+00 0.16884815E+03</pdfrwt>
<pdfrwt beam="2">  1       -2 0.42944011E-02 0.16884815E+03</pdfrwt>
<totfact> 0.74848444E+03</totfact>
</mgrwt>
</event>
<event>
 8    1  0.1273312E-005  0.1312626E+03  0.7546771E-02  0.1238586E+00
         -1   -1    0    0    0  501 -0.00000000000E+00  0.00000000000E+00  0.22400586302E+03  0.22400586302E+03  0.00000000000E+00 0.  1.
          1   -1    0    0  501    0  0.00000000000E+00 -0.00000000000E+00 -0.59931820098E+02  0.59931820098E+02  0.00000000000E+00 0. -1.
         23    2    1    2    0    0 -0.20664207945E+01  0.39901957257E+02  0.70799186600E+02  0.12290951065E+03  0.92183440473E+02 0.  0.
         23    2    1    2    0    0  0.20664207945E+01 -0.39901957257E+02  0.93274856321E+02  0.16102817247E+03  0.12503374432E+03 0.  0.
          5    1    4    4  502    0 -0.38614637998E+02  0.12519659480E+02 -0.62288606730E+01  0.41336676771E+02  0.47000000000E+01 0.  1.
         -5    1    4    4    0  502  0.40681058792E+02 -0.52421616738E+02  0.99503716994E+02  0.11969149569E+03  0.47000000000E+01 0.  1.
        -11    1    3    3    0    0 -0.28122391400E+02  0.59894540285E+02  0.37124862860E+02  0.75871472218E+02  0.00000000000E+00 0. -1.
         11    1    3    3    0    0  0.26055970606E+02 -0.19992583028E+02  0.33674323740E+02  0.47038038434E+02  0.00000000000E+00 0.  1.
<mgrwt>
<rscale>  0 0.12277640E+03</rscale>
<asrwt>0</asrwt>
<pdfrwt beam="2">  1        1 0.92202801E-02 0.13126261E+03</pdfrwt>
<pdfrwt beam="1">  1       -1 0.34462440E-01 0.13126261E+03</pdfrwt>
<totfact> 0.54673551E+03</totfact>
</mgrwt>
</event>
<event>
 8    1  0.1273312E-005  0.1329797E+03  0.7546771E-02  0.1231393E+00
         -1   -1    0    0    0  501 -0.00000000000E+00  0.00000000000E+00  0.46728843312E+02  0.46728843312E+02  0.00000000000E+00 0.  1.
          1   -1    0    0  501    0  0.00000000000E+00 -0.00000000000E+00 -0.36714157381E+03  0.36714157381E+03  0.00000000000E+00 0. -1.
         23    2    1    2    0    0  0.33187042601E+02  0.60301888502E+02 -0.75052212167E+02  0.13479089032E+03  0.88306579638E+02 0.  0.
         23    2    1    2    0    0 -0.33187042601E+02 -0.60301888502E+02 -0.24536051833E+03  0.27907952681E+03  0.11378005437E+03 0.  0.
          5    1    4    4  502    0  0.69469176291E-01 -0.71776308474E+01 -0.20323700442E+03  0.20341802569E+03  0.47000000000E+01 0. -1.
         -5    1    4    4    0  502 -0.33256511777E+02 -0.53124257655E+02 -0.42123513914E+02  0.75661501118E+02  0.47000000000E+01 0.  1.
        -11    1    3    3    0    0  0.54689764683E+02  0.51219670150E+02 -0.81364689605E+02  0.11061029647E+03  0.00000000000E+00 0.  1.
         11    1    3    3    0    0 -0.21502722082E+02  0.90822183522E+01  0.63124774384E+01  0.24180593842E+02  0.00000000000E+00 0. -1.
<mgrwt>
<rscale>  0 0.12738192E+03</rscale>
<asrwt>0</asrwt>
<pdfrwt beam="2">  1        1 0.56483319E-01 0.13297969E+03</pdfrwt>
<pdfrwt beam="1">  1       -1 0.71890528E-02 0.13297969E+03</pdfrwt>
<totfact> 0.65525547E+03</totfact>
</mgrwt>
</event>
<event>
 8    1  0.1273312E-005  0.1502958E+03  0.7546771E-02  0.1209044E+00
          1   -1    0    0  501    0  0.00000000000E+00  0.00000000000E+00  0.15855927357E+03  0.15855927357E+03  0.00000000000E+00 0. -1.
         -1   -1    0    0    0  501 -0.00000000000E+00 -0.00000000000E+00 -0.11868584208E+03  0.11868584208E+03  0.00000000000E+00 0.  1.
         23    2    1    2    0    0  0.81145034241E+02 -0.19435983784E+02  0.14413519802E+02  0.12480810849E+03  0.91689914084E+02 0.  0.
         23    2    1    2    0    0 -0.81145034241E+02  0.19435983784E+02  0.25459911690E+02  0.15243700716E+03  0.12500623985E+03 0.  0.
          5    1    4    4  502    0 -0.11139517889E+03  0.40917020202E+01  0.34927896451E+02  0.11690883566E+03  0.47000000000E+01 0. -1.
         -5    1    4    4    0  502  0.30250144651E+02  0.15344281764E+02 -0.94679847607E+01  0.35528171494E+02  0.47000000000E+01 0. -1.
        -11    1    3    3    0    0  0.70710944651E+02 -0.27287873065E+02 -0.27715247688E+02  0.80701924787E+02  0.00000000000E+00 0.  1.
         11    1    3    3    0    0  0.10434089589E+02  0.78518892808E+01  0.42128767490E+02  0.44106183705E+02  0.00000000000E+00 0. -1.
<mgrwt>
<rscale>  0 0.14323264E+03</rscale>
<asrwt>0</asrwt>
<pdfrwt beam="1">  1        1 0.24393734E-01 0.15029582E+03</pdfrwt>
<pdfrwt beam="2">  1       -1 0.18259360E-01 0.15029582E+03</pdfrwt>
<totfact> 0.44527022E+03</totfact>
</mgrwt>
</event>
<event>
 8    1  0.1273312E-005  0.2189193E+03  0.7546771E-02  0.1136716E+00
          2   -1    0    0  501    0  0.00000000000E+00  0.00000000000E+00  0.11089531077E+03  0.11089531077E+03  0.00000000000E+00 0. -1.
         -2   -1    0    0    0  501 -0.00000000000E+00 -0.00000000000E+00 -0.55943760121E+03  0.55943760121E+03  0.00000000000E+00 0.  1.
         23    2    1    2    0    0 -0.49377742633E+02  0.18066568919E+03 -0.39243327023E+03  0.44433756682E+03  0.91398845668E+02 0.  0.
         23    2    1    2    0    0  0.49377742633E+02 -0.18066568919E+03 -0.56109020210E+02  0.22599534516E+03  0.11334646517E+03 0.  0.
          5    1    4    4  502    0  0.68879413521E+02 -0.16632389400E+03 -0.18511667348E+02  0.18103254722E+03  0.47000000000E+01 0. -1.
         -5    1    4    4    0  502 -0.19501670887E+02 -0.14341795189E+02 -0.37597352862E+02  0.44962797943E+02  0.47000000000E+01 0. -1.
        -11    1    3    3    0    0 -0.34252778098E+02  0.12275483881E+02 -0.44340067606E+02  0.57358363882E+02  0.00000000000E+00 0. -1.
         11    1    3    3    0    0 -0.15124964536E+02  0.16839020531E+03 -0.34809320262E+03  0.38697920294E+03  0.00000000000E+00 0.  1.
<mgrwt>
<rscale>  0 0.21624163E+03</rscale>
<asrwt>0</asrwt>
<pdfrwt beam="1">  1        2 0.17060817E-01 0.21891933E+03</pdfrwt>
<pdfrwt beam="2">  1       -2 0.86067324E-01 0.21891933E+03</pdfrwt>
<totfact> 0.40468559E+02</totfact>
</mgrwt>
</event>
<event>
 8    1  0.1273312E-005  0.1911121E+03  0.7546771E-02  0.1162258E+00
         -4   -1    0    0    0  501 -0.00000000000E+00  0.00000000000E+00  0.73418080878E+03  0.73418080878E+03  0.00000000000E+00 0.  1.
          4   -1    0    0  501    0  0.00000000000E+00 -0.00000000000E+00 -0.45136436563E+02  0.45136436563E+02  0.00000000000E+00 0. -1.
         23    2    1    2    0    0 -0.58747367544E+02  0.13209642487E+03  0.28433875455E+03  0.33175666795E+03  0.91176974799E+02 0.  0.
         23    2    1    2    0    0  0.58747367544E+02 -0.13209642487E+03  0.40470561766E+03  0.44756057739E+03  0.12499245900E+03 0.  0.
          5    1    4    4  502    0  0.27944982409E+02  0.20749655355E+02  0.74083023065E+02  0.81986916917E+02  0.47000000000E+01 0.  1.
         -5    1    4    4    0  502  0.30802385134E+02 -0.15284608023E+03  0.33062259460E+03  0.36557366047E+03  0.47000000000E+01 0.  1.
        -11    1    3    3    0    0 -0.11944601579E+01  0.88622954449E+02  0.21116409566E+03  0.22901032747E+03  0.00000000000E+00 0. -1.
         11    1    3    3    0    0 -0.57552907386E+02  0.43473470424E+02  0.73174658889E+02  0.10274634048E+03  0.00000000000E+00 0.  1.
<mgrwt>
<rscale>  0 0.18585101E+03</rscale>
<asrwt>0</asrwt>
<pdfrwt beam="2">  1        4 0.69440677E-02 0.19111210E+03</pdfrwt>
<pdfrwt beam="1">  1       -4 0.11295088E+00 0.19111210E+03</pdfrwt>
<totfact> 0.15830362E+02</totfact>
</mgrwt>
</event>
<event>
 8    1  0.1273312E-005  0.1206638E+03  0.7546771E-02  0.1255140E+00
         -1   -1    0    0    0  501 -0.00000000000E+00  0.00000000000E+00  0.19656288273E+02  0.19656288273E+02  0.00000000000E+00 0.  1.
          1   -1    0    0  501    0  0.00000000000E+00 -0.00000000000E+00 -0.73300867122E+03  0.73300867122E+03  0.00000000000E+00 0. -1.
         23    2    1    2    0    0 -0.15266740977E+02 -0.65377615253E+01 -0.14866611822E+03  0.17523068738E+03  0.91259867338E+02 0.  0.
         23    2    1    2    0    0  0.15266740977E+02  0.65377615253E+01 -0.56468626473E+03  0.57743427212E+03  0.11951546066E+03 0.  0.
          5    1    4    4  502    0  0.16251559207E+02 -0.46572267718E+02 -0.42561353280E+03  0.42848810789E+03  0.47000000000E+01 0. -1.
         -5    1    4    4    0  502 -0.98481822961E+00  0.53110029243E+02 -0.13907273193E+03  0.14894616423E+03  0.47000000000E+01 0.  1.
        -11    1    3    3    0    0 -0.35382569290E+02 -0.36142193462E+02 -0.11690969062E+03  0.12738155329E+03  0.00000000000E+00 0. -1.
         11    1    3    3    0    0  0.20115828313E+02  0.29604431937E+02 -0.31756427601E+02  0.47849134089E+02  0.00000000000E+00 0.  1.
<mgrwt>
<rscale>  0 0.11298519E+03</rscale>
<asrwt>0</asrwt>
<pdfrwt beam="2">  1        1 0.11277056E+00 0.12066383E+03</pdfrwt>
<pdfrwt beam="1">  1       -1 0.30240445E-02 0.12066383E+03</pdfrwt>
<totfact> 0.93481843E+03</totfact>
</mgrwt>
</event>
<event>
 8    1  0.1273312E-005  0.1642691E+03  0.7546771E-02  0.1191189E+00
          1   -1    0    0  501    0  0.00000000000E+00  0.00000000000E+00  0.23019254443E+03  0.23019254443E+03  0.00000000000E+00 0. -1.
         -1   -1    0    0    0  501 -0.00000000000E+00 -0.00000000000E+00 -0.10645759233E+03  0.10645759233E+03  0.00000000000E+00 0.  1.
         23    2    1    2    0    0  0.42233973677E+02 -0.97854786835E+02  0.17481042794E+02  0.14101214585E+03  0.90661847434E+02 0.  0.
         23    2    1    2    0    0 -0.42233973677E+02  0.97854786835E+02  0.10625390931E+03  0.19563799092E+03  0.12500024963E+03 0.  0.
          5    1    4    4  502    0 -0.53671752260E+02  0.32364099166E+02  0.11232598267E+03  0.12871405630E+03  0.47000000000E+01 0.  1.
         -5    1    4    4    0  502  0.11437778583E+02  0.65490687669E+02 -0.60720733587E+01  0.66923934621E+02  0.47000000000E+01 0.  1.
        -11    1    3    3    0    0  0.18520689074E+02 -0.33136048084E+02 -0.37109655680E+02  0.53086157811E+02  0.00000000000E+00 0.  1.
         11    1    3    3    0    0  0.23713284603E+02 -0.64718738750E+02  0.54590698475E+02  0.87925988036E+02  0.00000000000E+00 0. -1.
<mgrwt>
<rscale>  0 0.15781208E+03</rscale>
<asrwt>0</asrwt>
<pdfrwt beam="1">  1        1 0.35414237E-01 0.16426908E+03</pdfrwt>
<pdfrwt beam="2">  1       -1 0.16378091E-01 0.16426908E+03</pdfrwt>
<totfact> 0.33352733E+03</totfact>
</mgrwt>
</event>
<event>
 8    1  0.1273312E-005  0.1284644E+03  0.7546771E-02  0.1243425E+00
         -1   -1    0    0    0  501 -0.00000000000E+00  0.00000000000E+00  0.48245120057E+03  0.48245120057E+03  0.00000000000E+00 0.  1.
          1   -1    0    0  501    0  0.00000000000E+00 -0.00000000000E+00 -0.26512762601E+02  0.26512762601E+02  0.00000000000E+00 0. -1.
         23    2    1    2    0    0 -0.29323230402E+02 -0.42914975646E+01  0.17864335929E+03  0.20335693913E+03  0.92532837860E+02 0.  0.
         23    2    1    2    0    0  0.29323230402E+02  0.42914975646E+01  0.27729507868E+03  0.30560702404E+03  0.12499929476E+03 0.  0.
          5    1    4    4  502    0  0.38860062360E+02 -0.54188161719E+02  0.11853142760E+03  0.13608177926E+03  0.47000000000E+01 0.  1.
         -5    1    4    4    0  502 -0.95368319580E+01  0.58479659284E+02  0.15876365109E+03  0.16952524479E+03  0.47000000000E+01 0.  1.
        -11    1    3    3    0    0 -0.53084565822E+02 -0.27358748857E+02  0.14154576565E+03  0.15362836991E+03  0.00000000000E+00 0.  1.
         11    1    3    3    0    0  0.23761335420E+02  0.23067251292E+02  0.37097593639E+02  0.49728569223E+02  0.00000000000E+00 0. -1.
<mgrwt>
<rscale>  0 0.11980141E+03</rscale>
<asrwt>0</asrwt>
<pdfrwt beam="2">  1        1 0.40788869E-02 0.12846436E+03</pdfrwt>
<pdfrwt beam="1">  1       -1 0.74223255E-01 0.12846436E+03</pdfrwt>
<totfact> 0.40226947E+03</totfact>
</mgrwt>
</event>
<event>
 8    1  0.1273312E-005  0.1754299E+03  0.7546771E-02  0.1178502E+00
         -1   -1    0    0    0  501 -0.00000000000E+00  0.00000000000E+00  0.48068118526E+02  0.48068118526E+02  0.00000000000E+00 0.  1.
          1   -1    0    0  501    0  0.00000000000E+00 -0.00000000000E+00 -0.55910265554E+03  0.55910265554E+03  0.00000000000E+00 0. -1.
         23    2    1    2    0    0  0.12303545230E+03 -0.36029908379E+01 -0.23545904478E+03  0.28049434642E+03  0.89918922034E+02 0.  0.
         23    2    1    2    0    0 -0.12303545230E+03  0.36029908379E+01 -0.27557549223E+03  0.32667642765E+03  0.12499972958E+03 0.  0.
          5    1    4    4  502    0 -0.11478408856E+03  0.51727486875E+02 -0.20784585297E+03  0.24304960086E+03  0.47000000000E+01 0.  1.
         -5    1    4    4    0  502 -0.82513637379E+01 -0.48124496037E+02 -0.67729639269E+02  0.83626826783E+02  0.47000000000E+01 0.  1.
        -11    1    3    3    0    0  0.10938339987E+03 -0.11032513037E+02 -0.24026724560E+03  0.26422489250E+03  0.00000000000E+00 0. -1.
         11    1    3    3    0    0  0.13652052432E+02  0.74295221987E+01  0.48082008176E+01  0.16269453919E+02  0.00000000000E+00 0.  1.
<mgrwt>
<rscale>  0 0.16937452E+03</rscale>
<asrwt>0</asrwt>
<pdfrwt beam="2">  1        1 0.86015796E-01 0.17542986E+03</pdfrwt>
<pdfrwt beam="1">  1       -1 0.73950949E-02 0.17542986E+03</pdfrwt>
<totfact> 0.36994255E+03</totfact>
</mgrwt>
</event>
<event>
 8    1  0.1273312E-005  0.1700885E+03  0.7546771E-02  0.1183890E+00
         -1   -1    0    0    0  501 -0.00000000000E+00  0.00000000000E+00  0.70788114803E+02  0.70788114803E+02  0.00000000000E+00 0.  1.
          1   -1    0    0  501    0  0.00000000000E+00 -0.00000000000E+00 -0.84531575715E+03  0.84531575715E+03  0.00000000000E+00 0. -1.
         23    2    1    2    0    0 -0.78250514777E+02 -0.84752225888E+02 -0.28487821077E+02  0.15092054258E+03  0.93055743325E+02 0.  0.
         23    2    1    2    0    0  0.78250514777E+02  0.84752225888E+02 -0.74603982127E+03  0.76518332937E+03  0.12499611907E+03 0.  0.
          5    1    4    4  502    0 -0.18873838927E+02  0.37380923929E+02 -0.41011985373E+03  0.41227895858E+03  0.47000000000E+01 0.  1.
         -5    1    4    4    0  502  0.97124353704E+02  0.47371301959E+02 -0.33591996754E+03  0.35290437079E+03  0.47000000000E+01 0.  1.
        -11    1    3    3    0    0  0.44300782565E+01 -0.61906067156E+02 -0.67519324453E+01  0.62430564116E+02  0.00000000000E+00 0.  1.
         11    1    3    3    0    0 -0.82680593034E+02 -0.22846158732E+02 -0.21735888632E+02  0.88489978460E+02  0.00000000000E+00 0. -1.
<mgrwt>
<rscale>  0 0.16433264E+03</rscale>
<asrwt>0</asrwt>
<pdfrwt beam="2">  1        1 0.13004858E+00 0.17008854E+03</pdfrwt>
<pdfrwt beam="1">  1       -1 0.10890479E-01 0.17008854E+03</pdfrwt>
<totfact> 0.11290707E+03</totfact>
</mgrwt>
</event>
<event>
 8    1  0.1273312E-005  0.1305005E+03  0.7546771E-02  0.1240979E+00
          4   -1    0    0  501    0  0.00000000000E+00  0.00000000000E+00  0.87479964542E+02  0.87479964542E+02  0.00000000000E+00 0. -1.
         -4   -1    0    0    0  501 -0.00000000000E+00 -0.00000000000E+00 -0.15850557745E+03  0.15850557745E+03  0.00000000000E+00 0.  1.
         23    2    1    2    0    0  0.36113240075E+02  0.10067434657E+02 -0.61403948565E+02  0.11513077999E+03  0.89883993308E+02 0.  0.
         23    2    1    2    0    0 -0.36113240075E+02 -0.10067434657E+02 -0.96216643450E+01  0.13085476200E+03  0.12499949186E+03 0.  0.
          5    1    4    4  502    0 -0.68182574369E+02  0.10271247601E+02  0.30383598470E+02  0.75495794789E+02  0.47000000000E+01 0.  1.
         -5    1    4    4    0  502  0.32069334294E+02 -0.20338682258E+02 -0.40005262815E+02  0.55358967213E+02  0.47000000000E+01 0.  1.
        -11    1    3    3    0    0  0.55236609241E+02 -0.94368545148E+01 -0.10003012347E+02  0.56922732538E+02  0.00000000000E+00 0. -1.
         11    1    3    3    0    0 -0.19123369166E+02  0.19504289172E+02 -0.51400936218E+02  0.58208047455E+02  0.00000000000E+00 0.  1.
<mgrwt>
<rscale>  0 0.12129333E+03</rscale>
<asrwt>0</asrwt>
<pdfrwt beam="1">  1        4 0.13458456E-01 0.13050055E+03</pdfrwt>
<pdfrwt beam="2">  1       -4 0.24385473E-01 0.13050055E+03</pdfrwt>
<totfact> 0.11690185E+03</totfact>
</mgrwt>
</event>
<event>
 8    1  0.1273312E-005  0.1939186E+03  0.7546771E-02  0.1159555E+00
         -1   -1    0    0    0  501 -0.00000000000E+00  0.00000000000E+00  0.32398047945E+03  0.32398047945E+03  0.00000000000E+00 0.  1.
          1   -1    0    0  501    0  0.00000000000E+00 -0.00000000000E+00 -0.14351957369E+03  0.14351957369E+03  0.00000000000E+00 0. -1.
         23    2    1    2    0    0 -0.14778618296E+03  0.11819526908E+02  0.20834719290E+03  0.27158664431E+03  0.91489318962E+02 0.  0.
         23    2    1    2    0    0  0.14778618296E+03 -0.11819526908E+02 -0.27886287146E+02  0.19591340883E+03  0.12499584656E+03 0.  0.
          5    1    4    4  502    0  0.11304114170E+03 -0.53104716691E+02 -0.53557059328E+02  0.13597374473E+03  0.47000000000E+01 0.  1.
         -5    1    4    4    0  502  0.34745041257E+02  0.41285189783E+02  0.25670772182E+02  0.59939664095E+02  0.47000000000E+01 0.  1.
        -11    1    3    3    0    0 -0.84305611632E+02  0.41460824130E+02  0.16298381806E+03  0.18812272866E+03  0.00000000000E+00 0.  1.
         11    1    3    3    0    0 -0.63480571329E+02 -0.29641297223E+02  0.45363374844E+02  0.83463915643E+02  0.00000000000E+00 0. -1.
<mgrwt>
<rscale>  0 0.18879295E+03</rscale>
<asrwt>0</asrwt>
<pdfrwt beam="2">  1        1 0.22079935E-01 0.19391859E+03</pdfrwt>
<pdfrwt beam="1">  1       -1 0.49843150E-01 0.19391859E+03</pdfrwt>
<totfact> 0.92507749E+02</totfact>
</mgrwt>
</event>
<event>
 8    1  0.1273312E-005  0.1974612E+03  0.7546771E-02  0.1156384E+00
          3   -1    0    0  501    0  0.00000000000E+00  0.00000000000E+00  0.29288566002E+03  0.29288566002E+03  0.00000000000E+00 0.  1.
         -3   -1    0    0    0  501 -0.00000000000E+00 -0.00000000000E+00 -0.16647960792E+03  0.16647960792E+03  0.00000000000E+00 0. -1.
         23    2    1    2    0    0  0.12681981631E+03  0.85127169557E+02 -0.60266831046E+02  0.18763437589E+03  0.90800150251E+02 0.  0.
         23    2    1    2    0    0 -0.12681981631E+03 -0.85127169557E+02  0.18667288316E+03  0.27173089205E+03  0.12514396342E+03 0.  0.
          5    1    4    4  502    0 -0.15001145837E+03 -0.67897663630E+02  0.13781480503E+03  0.21477555926E+03  0.47000000000E+01 0. -1.
         -5    1    4    4    0  502  0.23191642051E+02 -0.17229505927E+02  0.48858078122E+02  0.56955332790E+02  0.47000000000E+01 0. -1.
        -11    1    3    3    0    0  0.11229309209E+03  0.32843977589E+02 -0.63787397919E+02  0.13325651027E+03  0.00000000000E+00 0.  1.
         11    1    3    3    0    0  0.14526724225E+02  0.52283191968E+02  0.35205668732E+01  0.54377865627E+02  0.00000000000E+00 0. -1.
<mgrwt>
<rscale>  0 0.19232177E+03</rscale>
<asrwt>0</asrwt>
<pdfrwt beam="1">  1        3 0.45059332E-01 0.19746117E+03</pdfrwt>
<pdfrwt beam="2">  1       -3 0.25612247E-01 0.19746117E+03</pdfrwt>
<totfact> 0.17246269E+02</totfact>
</mgrwt>
</event>
<event>
 8    1  0.1273312E-005  0.1586329E+03  0.7546771E-02  0.1195550E+00
          2   -1    0    0  501    0  0.00000000000E+00  0.00000000000E+00  0.23242535070E+03  0.23242535070E+03  0.00000000000E+00 0. -1.
         -2   -1    0    0    0  501 -0.00000000000E+00 -0.00000000000E+00 -0.96821907264E+02  0.96821907264E+02  0.00000000000E+00 0.  1.
         23    2    1    2    0    0  0.64521522587E+02 -0.73322123448E+02  0.57684433820E+02  0.15251077938E+03  0.10194549160E+03 0.  0.
         23    2    1    2    0    0 -0.64521522587E+02  0.73322123448E+02  0.77919009619E+02  0.17673647859E+03  0.12500100056E+03 0.  0.
          5    1    4    4  502    0  0.37148532374E+02  0.19662666880E+02  0.11270035586E+02  0.43769140139E+02  0.47000000000E+01 0. -1.
         -5    1    4    4    0  502 -0.10167005496E+03  0.53659456568E+02  0.66648974033E+02  0.13296733845E+03  0.47000000000E+01 0. -1.
        -11    1    3    3    0    0  0.54435700382E+02  0.10620103325E+02  0.32548660567E+02  0.64307444168E+02  0.00000000000E+00 0. -1.
         11    1    3    3    0    0  0.10085822205E+02 -0.83942226774E+02  0.25135773253E+02  0.88203335211E+02  0.00000000000E+00 0.  1.
<mgrwt>
<rscale>  0 0.15407743E+03</rscale>
<asrwt>0</asrwt>
<pdfrwt beam="1">  1        2 0.35757746E-01 0.15863294E+03</pdfrwt>
<pdfrwt beam="2">  1       -2 0.14895678E-01 0.15863294E+03</pdfrwt>
<totfact> 0.48355469E+03</totfact>
</mgrwt>
</event>
<event>
 8    1  0.1273312E-005  0.1536877E+03  0.7546771E-02  0.1204578E+00
         -2   -1    0    0    0  501 -0.00000000000E+00  0.00000000000E+00  0.59414602601E+03  0.59414602601E+03  0.00000000000E+00 0.  1.
          2   -1    0    0  501    0  0.00000000000E+00 -0.00000000000E+00 -0.33919149653E+02  0.33919149653E+02  0.00000000000E+00 0. -1.
         23    2    1    2    0    0 -0.27629855582E+02  0.85033753339E+02  0.21222873436E+03  0.24764090020E+03  0.91054003968E+02 0.  0.
         23    2    1    2    0    0  0.27629855582E+02 -0.85033753339E+02  0.34799814200E+03  0.38042427547E+03  0.12500309756E+03 0.  0.
          5    1    4    4  502    0  0.63971811363E+01 -0.81709392921E+02  0.91282739796E+02  0.12276798199E+03  0.47000000000E+01 0.  1.
         -5    1    4    4    0  502  0.21232674446E+02 -0.33243604177E+01  0.25671540221E+03  0.25765629347E+03  0.47000000000E+01 0.  1.
        -11    1    3    3    0    0 -0.40290640966E+02  0.15538947709E+02  0.31075028092E+02  0.53201992597E+02  0.00000000000E+00 0. -1.
         11    1    3    3    0    0  0.12660785384E+02  0.69494805630E+02  0.18115370626E+03  0.19443890760E+03  0.00000000000E+00 0.  1.
<mgrwt>
<rscale>  0 0.14670767E+03</rscale>
<asrwt>0</asrwt>
<pdfrwt beam="2">  1        2 0.52183311E-02 0.15368774E+03</pdfrwt>
<pdfrwt beam="1">  1       -2 0.91407073E-01 0.15368774E+03</pdfrwt>
<totfact> 0.15232176E+03</totfact>
</mgrwt>
</event>
<event>
 8    1  0.1273312E-005  0.1382567E+03  0.7546771E-02  0.1226265E+00
          2   -1    0    0  501    0  0.00000000000E+00  0.00000000000E+00  0.10082170103E+04  0.10082170103E+04  0.00000000000E+00 0. -1.
         -2   -1    0    0    0  501 -0.00000000000E+00 -0.00000000000E+00 -0.20319603241E+02  0.20319603241E+02  0.00000000000E+00 0.  1.
         23    2    1    2    0    0  0.31679779304E+02  0.49880836480E+02  0.20025831220E+03  0.22885527068E+03  0.93699717428E+02 0.  0.
         23    2    1    2    0    0 -0.31679779304E+02 -0.49880836480E+02  0.78763909484E+03  0.79968134285E+03  0.12499280024E+03 0.  0.
          5    1    4    4  502    0 -0.32993130227E+02  0.27517101350E+02  0.11985111253E+03  0.12740532440E+03  0.47000000000E+01 0.  1.
         -5    1    4    4    0  502  0.13133509229E+01 -0.77397937830E+02  0.66778798231E+03  0.67227601845E+03  0.47000000000E+01 0.  1.
        -11    1    3    3    0    0  0.28193607058E+02  0.62505652126E+02  0.20401487160E+03  0.21522988607E+03  0.00000000000E+00 0. -1.
         11    1    3    3    0    0  0.34861722468E+01 -0.12624815645E+02 -0.37565593981E+01  0.13625384601E+02  0.00000000000E+00 0.  1.
<mgrwt>
<rscale>  0 0.13080552E+03</rscale>
<asrwt>0</asrwt>
<pdfrwt beam="1">  1        2 0.15511027E+00 0.13825667E+03</pdfrwt>
<pdfrwt beam="2">  1       -2 0.31260936E-02 0.13825667E+03</pdfrwt>
<totfact> 0.99802458E+03</totfact>
</mgrwt>
</event>
<event>
 8    1  0.1273312E-005  0.1675373E+03  0.7546771E-02  0.1187406E+00
         -3   -1    0    0    0  501 -0.00000000000E+00  0.00000000000E+00  0.32203412580E+03  0.32203412580E+03  0.00000000000E+00 0.  1.
          3   -1    0    0  501    0  0.00000000000E+00 -0.00000000000E+00 -0.10761181158E+03  0.10761181158E+03  0.00000000000E+00 0. -1.
         23    2    1    2    0    0  0.56908741693E+02  0.95939045874E+02  0.21931131424E+03  0.26203735328E+03  0.90128888568E+02 0.  0.
         23    2    1    2    0    0 -0.56908741693E+02 -0.95939045874E+02 -0.48890000310E+01  0.16760858410E+03  0.12500331891E+03 0.  0.
          5    1    4    4  502    0 -0.27069605128E+02 -0.60312323660E+02  0.58819032146E+02  0.88612123604E+02  0.47000000000E+01 0. -1.
         -5    1    4    4    0  502 -0.29839136565E+02 -0.35626722214E+02 -0.63708032177E+02  0.78996460493E+02  0.47000000000E+01 0. -1.
        -11    1    3    3    0    0  0.27873113429E+02  0.59471276494E+02  0.20183746568E+03  0.21225481321E+03  0.00000000000E+00 0.  1.
         11    1    3    3    0    0  0.29035628263E+02  0.36467769380E+02  0.17473848569E+02  0.49782540072E+02  0.00000000000E+00 0. -1.
<mgrwt>
<rscale>  0 0.16114900E+03</rscale>
<asrwt>0</asrwt>
<pdfrwt beam="2">  1        3 0.16555663E-01 0.16753726E+03</pdfrwt>
<pdfrwt beam="1">  1       -3 0.49543711E-01 0.16753726E+03</pdfrwt>
<totfact> 0.30455116E+02</totfact>
</mgrwt>
</event>
<event>
 8    1  0.1273312E-005  0.1621728E+03  0.7546771E-02  0.1193995E+00
         -1   -1    0    0    0  501 -0.00000000000E+00  0.00000000000E+00  0.62432805869E+03  0.62432805869E+03  0.00000000000E+00 0.  1.
          1   -1    0    0  501    0  0.00000000000E+00 -0.00000000000E+00 -0.36095066974E+02  0.36095066974E+02  0.00000000000E+00 0. -1.
         23    2    1    2    0    0 -0.93079451668E+02 -0.44834193708E+02  0.30039774144E+03  0.33004584038E+03  0.89540853465E+02 0.  0.
         23    2    1    2    0    0  0.93079451668E+02  0.44834193708E+02  0.28783525028E+03  0.33037728529E+03  0.12500452025E+03 0.  0.
          5    1    4    4  502    0  0.98268025228E+02 -0.68885722203E+01  0.12404506296E+03  0.15847184246E+03  0.47000000000E+01 0. -1.
         -5    1    4    4    0  502 -0.51885735599E+01  0.51722765929E+02  0.16379018732E+03  0.17190544282E+03  0.47000000000E+01 0. -1.
        -11    1    3    3    0    0 -0.64790151406E+02 -0.10308745830E+02  0.26522341832E+03  0.27321693868E+03  0.00000000000E+00 0.  1.
         11    1    3    3    0    0 -0.28289300262E+02 -0.34525447878E+02  0.35174323123E+02  0.56828901693E+02  0.00000000000E+00 0. -1.
<mgrwt>
<rscale>  0 0.15539567E+03</rscale>
<asrwt>0</asrwt>
<pdfrwt beam="2">  1        1 0.55530877E-02 0.16217281E+03</pdfrwt>
<pdfrwt beam="1">  1       -1 0.96050462E-01 0.16217281E+03</pdfrwt>
<totfact> 0.15579236E+03</totfact>
</mgrwt>
</event>
<event>
 8    1  0.1273312E-005  0.1284574E+03  0.7546771E-02  0.1243162E+00
          1   -1    0    0  501    0  0.00000000000E+00  0.00000000000E+00  0.13953984071E+04  0.13953984071E+04  0.00000000000E+00 0. -1.
         -1   -1    0    0    0  501 -0.00000000000E+00 -0.00000000000E+00 -0.10324233180E+02  0.10324233180E+02  0.00000000000E+00 0.  1.
         23    2    1    2    0    0  0.34928037154E+01  0.29376200524E+02  0.37516599340E+03  0.38767753076E+03  0.93108455117E+02 0.  0.
         23    2    1    2    0    0 -0.34928037154E+01 -0.29376200524E+02  0.10099081805E+04  0.10180451095E+04  0.12500460434E+03 0.  0.
          5    1    4    4  502    0 -0.41925181980E+02  0.31884022786E+02  0.53977009572E+03  0.54235427354E+03  0.47000000000E+01 0.  1.
         -5    1    4    4    0  502  0.38432378264E+02 -0.61260223310E+02  0.47013808479E+03  0.47569083597E+03  0.47000000000E+01 0.  1.
        -11    1    3    3    0    0 -0.27395620289E+02  0.48390998435E+02  0.15792234070E+03  0.16742662402E+03  0.00000000000E+00 0.  1.
         11    1    3    3    0    0  0.30888424004E+02 -0.19014797911E+02  0.21724365270E+03  0.22025090673E+03  0.00000000000E+00 0. -1.
<mgrwt>
<rscale>  0 0.11996034E+03</rscale>
<asrwt>0</asrwt>
<pdfrwt beam="1">  1        1 0.21467653E+00 0.12845743E+03</pdfrwt>
<pdfrwt beam="2">  1       -1 0.15883447E-02 0.12845743E+03</pdfrwt>
<totfact> 0.78520799E+03</totfact>
</mgrwt>
</event>
<event>
 8    1  0.1273312E-005  0.1293830E+03  0.7546771E-02  0.1242778E+00
         -1   -1    0    0    0  501 -0.00000000000E+00  0.00000000000E+00  0.89774859490E+02  0.89774859490E+02  0.00000000000E+00 0.  1.
          1   -1    0    0  501    0  0.00000000000E+00 -0.00000000000E+00 -0.14278871287E+03  0.14278871287E+03  0.00000000000E+00 0. -1.
         23    2    1    2    0    0 -0.97701054828E+01  0.31927681437E+02 -0.31684941317E+02  0.10143432185E+03  0.90388906063E+02 0.  0.
         23    2    1    2    0    0  0.97701054828E+01 -0.31927681437E+02 -0.21328912063E+02  0.13112925051E+03  0.12500050419E+03 0.  0.
          5    1    4    4  502    0  0.41965860631E+02 -0.16656487778E+02  0.39698193417E+02  0.60304300047E+02  0.47000000000E+01 0. -1.
         -5    1    4    4    0  502 -0.32195755148E+02 -0.15271193660E+02 -0.61027105480E+02  0.70824950467E+02  0.47000000000E+01 0. -1.
        -11    1    3    3    0    0  0.13591408569E+02  0.28225957209E+02  0.24956118012E+02  0.40052950871E+02  0.00000000000E+00 0.  1.
         11    1    3    3    0    0 -0.23361514052E+02  0.37017242288E+01 -0.56641059329E+02  0.61381370976E+02  0.00000000000E+00 0. -1.
<mgrwt>
<rscale>  0 0.12019338E+03</rscale>
<asrwt>0</asrwt>
<pdfrwt beam="2">  1        1 0.21967494E-01 0.12938299E+03</pdfrwt>
<pdfrwt beam="1">  1       -1 0.13811517E-01 0.12938299E+03</pdfrwt>
<totfact> 0.78120735E+03</totfact>
</mgrwt>
</event>
<event>
 8    1  0.1273312E-005  0.1333890E+03  0.7546771E-02  0.1234050E+00
          2   -1    0    0  501    0  0.00000000000E+00  0.00000000000E+00  0.14003673770E+04  0.14003673770E+04  0.00000000000E+00 0. -1.
         -2   -1    0    0    0  501 -0.00000000000E+00 -0.00000000000E+00 -0.12910757742E+02  0.12910757742E+02  0.00000000000E+00 0.  1.
         23    2    1    2    0    0 -0.29946843061E+01  0.46597257241E+02  0.30387856266E+03  0.32152082097E+03  0.94091364933E+02 0.  0.
         23    2    1    2    0    0  0.29946843061E+01 -0.46597257241E+02  0.10835780566E+04  0.10917573138E+04  0.12494940945E+03 0.  0.
          5    1    4    4  502    0 -0.46140190353E+02  0.45062079685E+01  0.20128607000E+03  0.20660928114E+03  0.47000000000E+01 0. -1.
         -5    1    4    4    0  502  0.49134874659E+02 -0.51103465210E+02  0.88229198663E+03  0.88514803267E+03  0.47000000000E+01 0. -1.
        -11    1    3    3    0    0 -0.30320165070E+02 -0.17200916623E+02  0.83909624056E+02  0.90862582792E+02  0.00000000000E+00 0.  1.
         11    1    3    3    0    0  0.27325480764E+02  0.63798173865E+02  0.21996893860E+03  0.23065823817E+03  0.00000000000E+00 0. -1.
<mgrwt>
<rscale>  0 0.12565477E+03</rscale>
<asrwt>0</asrwt>
<pdfrwt beam="1">  1        2 0.21544101E+00 0.13338901E+03</pdfrwt>
<pdfrwt beam="2">  1       -2 0.19862715E-02 0.13338901E+03</pdfrwt>
<totfact> 0.11700857E+04</totfact>
</mgrwt>
</event>
<event>
 8    1  0.1273312E-005  0.1489854E+03  0.7546771E-02  0.1210738E+00
         -2   -1    0    0    0  501 -0.00000000000E+00  0.00000000000E+00  0.19167410930E+02  0.19167410930E+02  0.00000000000E+00 0.  1.
          2   -1    0    0  501    0  0.00000000000E+00 -0.00000000000E+00 -0.26232643189E+04  0.26232643189E+04  0.00000000000E+00 0. -1.
         23    2    1    2    0    0  0.77756541607E+02  0.22931446170E+02 -0.20663479672E+03  0.24034488136E+03  0.92172619542E+02 0.  0.
         23    2    1    2    0    0 -0.77756541607E+02 -0.22931446170E+02 -0.23974621113E+04  0.24020868485E+04  0.12499888694E+03 0.  0.
          5    1    4    4  502    0 -0.53730942273E+02 -0.68785926958E+02 -0.10535685780E+04  0.10571884205E+04  0.47000000000E+01 0. -1.
         -5    1    4    4    0  502 -0.24025599334E+02  0.45854480788E+02 -0.13438935332E+04  0.13448984279E+04  0.47000000000E+01 0. -1.
        -11    1    3    3    0    0  0.56036143902E+02 -0.20993480359E+02 -0.16675300014E+03  0.17716472193E+03  0.00000000000E+00 0. -1.
         11    1    3    3    0    0  0.21720397705E+02  0.43924926528E+02 -0.39881796586E+02  0.63180159432E+02  0.00000000000E+00 0.  1.
<mgrwt>
<rscale>  0 0.14194293E+03</rscale>
<asrwt>0</asrwt>
<pdfrwt beam="2">  1        2 0.40357891E+00 0.14898541E+03</pdfrwt>
<pdfrwt beam="1">  1       -2 0.29488340E-02 0.14898541E+03</pdfrwt>
<totfact> 0.15183354E+03</totfact>
</mgrwt>
</event>
<event>
 8    1  0.1273312E-005  0.1397005E+03  0.7546771E-02  0.1224978E+00
          1   -1    0    0  501    0  0.00000000000E+00  0.00000000000E+00  0.67019679789E+03  0.67019679789E+03  0.00000000000E+00 0. -1.
         -1   -1    0    0    0  501 -0.00000000000E+00 -0.00000000000E+00 -0.31275622576E+02  0.31275622576E+02  0.00000000000E+00 0.  1.
         23    2    1    2    0    0  0.62322333591E+02  0.27723402002E+01  0.11538342741E+03  0.15961634134E+03  0.90952086117E+02 0.  0.
         23    2    1    2    0    0 -0.62322333591E+02 -0.27723402002E+01  0.52353774791E+03  0.54185607913E+03  0.12499791145E+03 0.  0.
          5    1    4    4  502    0 -0.48585236128E+02  0.54454462714E+02  0.37405378906E+03  0.38113533133E+03  0.47000000000E+01 0. -1.
         -5    1    4    4    0  502 -0.13737097463E+02 -0.57226802915E+02  0.14948395885E+03  0.16072074779E+03  0.47000000000E+01 0. -1.
        -11    1    3    3    0    0  0.19383004887E+02  0.44113880689E+02  0.35047060146E+02  0.59582143069E+02  0.00000000000E+00 0.  1.
         11    1    3    3    0    0  0.42939328704E+02 -0.41341540488E+02  0.80336367263E+02  0.10003419827E+03  0.00000000000E+00 0. -1.
<mgrwt>
<rscale>  0 0.13168408E+03</rscale>
<asrwt>0</asrwt>
<pdfrwt beam="1">  1        1 0.10310719E+00 0.13970053E+03</pdfrwt>
<pdfrwt beam="2">  1       -1 0.48116348E-02 0.13970053E+03</pdfrwt>
<totfact> 0.54260204E+03</totfact>
</mgrwt>
</event>
<event>
 8    1  0.1273312E-005  0.1314263E+03  0.7546771E-02  0.1238567E+00
         -2   -1    0    0    0  501 -0.00000000000E+00  0.00000000000E+00  0.47284099829E+02  0.47284099829E+02  0.00000000000E+00 0.  1.
          2   -1    0    0  501    0  0.00000000000E+00 -0.00000000000E+00 -0.48045510142E+03  0.48045510142E+03  0.00000000000E+00 0. -1.
         23    2    1    2    0    0 -0.28072522213E+02 -0.29183947358E+02 -0.31281806310E+02  0.10490614715E+03  0.91580451061E+02 0.  0.
         23    2    1    2    0    0  0.28072522213E+02  0.29183947358E+02 -0.40188919528E+03  0.42283305410E+03  0.12503238408E+03 0.  0.
          5    1    4    4  502    0 -0.41905303548E+01  0.73676594018E+02 -0.26831378115E+03  0.27831668330E+03  0.47000000000E+01 0.  1.
         -5    1    4    4    0  502  0.32263052568E+02 -0.44492646660E+02 -0.13357541413E+03  0.14451637080E+03  0.47000000000E+01 0.  1.
        -11    1    3    3    0    0 -0.34225308414E+02 -0.10715574343E+02  0.26071924738E+02  0.44338927920E+02  0.00000000000E+00 0.  1.
         11    1    3    3    0    0  0.61527862013E+01 -0.18468373015E+02 -0.57353731047E+02  0.60567219227E+02  0.00000000000E+00 0. -1.
<mgrwt>
<rscale>  0 0.12278821E+03</rscale>
<asrwt>0</asrwt>
<pdfrwt beam="2">  1        2 0.73916168E-01 0.13142628E+03</pdfrwt>
<pdfrwt beam="1">  1       -2 0.72744771E-02 0.13142628E+03</pdfrwt>
<totfact> 0.68342840E+03</totfact>
</mgrwt>
</event>
<event>
 8    1  0.1273312E-005  0.3292162E+03  0.7546771E-02  0.1072674E+00
          1   -1    0    0  501    0  0.00000000000E+00  0.00000000000E+00  0.80987904103E+03  0.80987904103E+03  0.00000000000E+00 0. -1.
         -1   -1    0    0    0  501 -0.00000000000E+00 -0.00000000000E+00 -0.13365963503E+03  0.13365963503E+03  0.00000000000E+00 0.  1.
         23    2    1    2    0    0  0.21200953109E+03 -0.21865780337E+03  0.25032815603E+03  0.40523891410E+03  0.93782277387E+02 0.  0.
         23    2    1    2    0    0 -0.21200953109E+03  0.21865780337E+03  0.42589124997E+03  0.53829976196E+03  0.12499600266E+03 0.  0.
          5    1    4    4  502    0 -0.20187086033E+03  0.19655287958E+03  0.42906703715E+03  0.51332785925E+03  0.47000000000E+01 0.  1.
         -5    1    4    4    0  502 -0.10138670756E+02  0.22104923797E+02 -0.31757871763E+01  0.24971902710E+02  0.47000000000E+01 0.  1.
        -11    1    3    3    0    0  0.15835358923E+03 -0.10156902427E+03  0.12749994789E+03  0.22726276119E+03  0.00000000000E+00 0.  1.
         11    1    3    3    0    0  0.53655941856E+02 -0.11708877910E+03  0.12282820814E+03  0.17797615291E+03  0.00000000000E+00 0. -1.
<mgrwt>
<rscale>  0 0.32654888E+03</rscale>
<asrwt>0</asrwt>
<pdfrwt beam="1">  1        1 0.12459677E+00 0.32921616E+03</pdfrwt>
<pdfrwt beam="2">  1       -1 0.20563021E-01 0.32921616E+03</pdfrwt>
<totfact> 0.43603529E+02</totfact>
</mgrwt>
</event>
<event>
 8    1  0.1273312E-005  0.1816805E+03  0.7546771E-02  0.1171628E+00
         -2   -1    0    0    0  501 -0.00000000000E+00  0.00000000000E+00  0.62503007903E+03  0.62503007903E+03  0.00000000000E+00 0.  1.
          2   -1    0    0  501    0  0.00000000000E+00 -0.00000000000E+00 -0.46819713672E+02  0.46819713672E+02  0.00000000000E+00 0. -1.
         23    2    1    2    0    0  0.12921266720E+03  0.26246536816E+02  0.27807298878E+03  0.32100761767E+03  0.91304487585E+02 0.  0.
         23    2    1    2    0    0 -0.12921266720E+03 -0.26246536816E+02  0.30013737657E+03  0.35084217503E+03  0.12499197135E+03 0.  0.
          5    1    4    4  502    0  0.58227999861E+01 -0.44461954805E+02  0.82812169234E+02  0.94290592309E+02  0.47000000000E+01 0.  1.
         -5    1    4    4    0  502 -0.13503546719E+03  0.18215417989E+02  0.21732520734E+03  0.25655158272E+03  0.47000000000E+01 0.  1.
        -11    1    3    3    0    0  0.59558115932E+02  0.16127274385E+02  0.22373522371E+03  0.23208771721E+03  0.00000000000E+00 0.  1.
         11    1    3    3    0    0  0.69654551267E+02  0.10119262431E+02  0.54337765069E+02  0.88919900456E+02  0.00000000000E+00 0. -1.
<mgrwt>
<rscale>  0 0.17610341E+03</rscale>
<asrwt>0</asrwt>
<pdfrwt beam="2">  1        2 0.72030333E-02 0.18168045E+03</pdfrwt>
<pdfrwt beam="1">  1       -2 0.96158468E-01 0.18168045E+03</pdfrwt>
<totfact> 0.90154025E+02</totfact>
</mgrwt>
</event>
<event>
 8    1  0.1273312E-005  0.1601338E+03  0.7546771E-02  0.1196666E+00
          2   -1    0    0  501    0  0.00000000000E+00  0.00000000000E+00  0.41311451920E+03  0.41311451920E+03  0.00000000000E+00 0. -1.
         -2   -1    0    0    0  501 -0.00000000000E+00 -0.00000000000E+00 -0.52818720045E+02  0.52818720045E+02  0.00000000000E+00 0.  1.
         23    2    1    2    0    0  0.99220162727E+02 -0.13072498582E+02  0.18648430992E+03  0.22960031177E+03  0.89018955329E+02 0.  0.
         23    2    1    2    0    0 -0.99220162727E+02  0.13072498582E+02  0.17381148923E+03  0.23633292747E+03  0.12500915130E+03 0.  0.
          5    1    4    4  502    0  0.16970973856E+02  0.64144602625E+01 -0.80271024536E+01  0.20388320869E+02  0.47000000000E+01 0.  1.
         -5    1    4    4    0  502 -0.11619113658E+03  0.66580383191E+01  0.18183859169E+03  0.21594460660E+03  0.47000000000E+01 0.  1.
        -11    1    3    3    0    0  0.28392201488E+02 -0.30894794847E+02  0.17414865048E+02  0.45429978854E+02  0.00000000000E+00 0.  1.
         11    1    3    3    0    0  0.70827961239E+02  0.17822296265E+02  0.16906944487E+03  0.18417033292E+03  0.00000000000E+00 0. -1.
<mgrwt>
<rscale>  0 0.15314037E+03</rscale>
<asrwt>0</asrwt>
<pdfrwt beam="1">  1        2 0.63556078E-01 0.16013375E+03</pdfrwt>
<pdfrwt beam="2">  1       -2 0.81259572E-02 0.16013375E+03</pdfrwt>
<totfact> 0.68656602E+03</totfact>
</mgrwt>
</event>
<event>
 8    1  0.1273312E-005  0.1645165E+03  0.7546771E-02  0.1191294E+00
         -4   -1    0    0    0  501 -0.00000000000E+00  0.00000000000E+00  0.62211394212E+02  0.62211394212E+02  0.00000000000E+00 0.  1.
          4   -1    0    0  501    0  0.00000000000E+00 -0.00000000000E+00 -0.37016828964E+03  0.37016828964E+03  0.00000000000E+00 0. -1.
         23    2    1    2    0    0 -0.65443306355E+02 -0.84621760368E+02 -0.13885510127E+03  0.19645362287E+03  0.88710868089E+02 0.  0.
         23    2    1    2    0    0  0.65443306355E+02  0.84621760368E+02 -0.16910179416E+03  0.23592606098E+03  0.12498808258E+03 0.  0.
          5    1    4    4  502    0 -0.32053286505E+01 -0.16279077559E+02 -0.87170792792E+02  0.88860112615E+02  0.47000000000E+01 0.  1.
         -5    1    4    4    0  502  0.68648635006E+02  0.10090083793E+03 -0.81931001363E+02  0.14706594836E+03  0.47000000000E+01 0.  1.
        -11    1    3    3    0    0 -0.42796498023E+02 -0.53328226909E+01 -0.92011156556E+02  0.10161708602E+03  0.00000000000E+00 0. -1.
         11    1    3    3    0    0 -0.22646808332E+02 -0.79288937677E+02 -0.46843944714E+02  0.94836536852E+02  0.00000000000E+00 0.  1.
<mgrwt>
<rscale>  0 0.15772088E+03</rscale>
<asrwt>0</asrwt>
<pdfrwt beam="2">  1        4 0.56948968E-01 0.16451653E+03</pdfrwt>
<pdfrwt beam="1">  1       -4 0.95709837E-02 0.16451653E+03</pdfrwt>
<totfact> 0.41671424E+02</totfact>
</mgrwt>
</event>
<event>
 8    1  0.1273312E-005  0.1328631E+03  0.7546771E-02  0.1235371E+00
          1   -1    0    0  501    0  0.00000000000E+00  0.00000000000E+00  0.85182992594E+03  0.85182992594E+03  0.00000000000E+00 0. -1.
         -1   -1    0    0    0  501 -0.00000000000E+00 -0.00000000000E+00 -0.18367900515E+02  0.18367900515E+02  0.00000000000E+00 0.  1.
         23    2    1    2    0    0 -0.49713768369E+01  0.44753855652E+02  0.22866512309E+03  0.25097905423E+03  0.93140350878E+02 0.  0.
         23    2    1    2    0    0  0.49713768369E+01 -0.44753855652E+02  0.60479690234E+03  0.61921877223E+03  0.12499989047E+03 0.  0.
          5    1    4    4  502    0  0.61393396777E+02 -0.11037669774E+02  0.21594357000E+03  0.22482147305E+03  0.47000000000E+01 0.  1.
         -5    1    4    4    0  502 -0.56422019940E+02 -0.33716185878E+02  0.38885333234E+03  0.39439729918E+03  0.47000000000E+01 0.  1.
        -11    1    3    3    0    0  0.11878942170E+02 -0.16192280203E+02  0.83150096273E+01  0.21735652518E+02  0.00000000000E+00 0.  1.
         11    1    3    3    0    0 -0.16850319007E+02  0.60946135855E+02  0.22035011346E+03  0.22924340171E+03  0.00000000000E+00 0. -1.
<mgrwt>
<rscale>  0 0.12480734E+03</rscale>
<asrwt>0</asrwt>
<pdfrwt beam="1">  1        1 0.13105073E+00 0.13286307E+03</pdfrwt>
<pdfrwt beam="2">  1       -1 0.28258315E-02 0.13286307E+03</pdfrwt>
<totfact> 0.82885915E+03</totfact>
</mgrwt>
</event>
<event>
 8    1  0.1273312E-005  0.1435734E+03  0.7546771E-02  0.1219777E+00
         -3   -1    0    0    0  501 -0.00000000000E+00  0.00000000000E+00  0.43200762746E+03  0.43200762746E+03  0.00000000000E+00 0.  1.
          3   -1    0    0  501    0  0.00000000000E+00 -0.00000000000E+00 -0.38182423038E+02  0.38182423038E+02  0.00000000000E+00 0. -1.
         23    2    1    2    0    0 -0.38651956911E+02 -0.59102969513E+02  0.17617467528E+03  0.20945055254E+03  0.88571343957E+02 0.  0.
         23    2    1    2    0    0  0.38651956911E+02  0.59102969513E+02  0.21765052914E+03  0.26073949796E+03  0.12500479264E+03 0.  0.
          5    1    4    4  502    0  0.54693628941E+02  0.13509996978E+02  0.24562375892E+02  0.61638570510E+02  0.47000000000E+01 0.  1.
         -5    1    4    4    0  502 -0.16041672030E+02  0.45592972535E+02  0.19308815325E+03  0.19910092745E+03  0.47000000000E+01 0.  1.
        -11    1    3    3    0    0 -0.61928376644E+01 -0.34033808833E+02  0.16261581654E+03  0.16625448918E+03  0.00000000000E+00 0.  1.
         11    1    3    3    0    0 -0.32459119246E+02 -0.25069160680E+02  0.13558858735E+02  0.43196063358E+02  0.00000000000E+00 0. -1.
<mgrwt>
<rscale>  0 0.13531391E+03</rscale>
<asrwt>0</asrwt>
<pdfrwt beam="2">  1        3 0.58742192E-02 0.14357344E+03</pdfrwt>
<pdfrwt beam="1">  1       -3 0.66462709E-01 0.14357344E+03</pdfrwt>
<totfact> 0.91115026E+02</totfact>
</mgrwt>
</event>
<event>
 8    1  0.1273312E-005  0.1283899E+03  0.7546771E-02  0.1246164E+00
          1   -1    0    0  501    0  0.00000000000E+00  0.00000000000E+00  0.29354956485E+03  0.29354956485E+03  0.00000000000E+00 0. -1.
         -1   -1    0    0    0  501 -0.00000000000E+00 -0.00000000000E+00 -0.42201275743E+02  0.42201275743E+02  0.00000000000E+00 0.  1.
         23    2    1    2    0    0 -0.53211501375E+00 -0.29278357463E+02  0.82635885504E+02  0.12374177610E+03  0.87326011118E+02 0.  0.
         23    2    1    2    0    0  0.53211501375E+00  0.29278357463E+02  0.16871240360E+03  0.21200906449E+03  0.12500585160E+03 0.  0.
          5    1    4    4  502    0 -0.32971400274E+02  0.61236575406E+02  0.53876462339E+02  0.88101047653E+02  0.47000000000E+01 0.  1.
         -5    1    4    4    0  502  0.33503515288E+02 -0.31958217943E+02  0.11483594127E+03  0.12390801684E+03  0.47000000000E+01 0.  1.
        -11    1    3    3    0    0 -0.39083092516E+02 -0.28825574604E+02  0.25599475102E+02  0.54897495365E+02  0.00000000000E+00 0.  1.
         11    1    3    3    0    0  0.38550977502E+02 -0.45278285898E+00  0.57036410401E+02  0.68844280737E+02  0.00000000000E+00 0. -1.
<mgrwt>
<rscale>  0 0.11815960E+03</rscale>
<asrwt>0</asrwt>
<pdfrwt beam="1">  1        1 0.45161470E-01 0.12838991E+03</pdfrwt>
<pdfrwt beam="2">  1       -1 0.64925041E-02 0.12838991E+03</pdfrwt>
<totfact> 0.10050193E+04</totfact>
</mgrwt>
</event>
<event>
 8    1  0.1273312E-005  0.1288622E+03  0.7546771E-02  0.1240746E+00
          4   -1    0    0  501    0  0.00000000000E+00  0.00000000000E+00  0.40053979716E+02  0.40053979716E+02  0.00000000000E+00 0.  1.
         -4   -1    0    0    0  501 -0.00000000000E+00 -0.00000000000E+00 -0.33443199505E+03  0.33443199505E+03  0.00000000000E+00 0. -1.
         23    2    1    2    0    0 -0.13046066570E+02 -0.28518647487E+02 -0.14707244049E+03  0.17877087026E+03  0.96670617020E+02 0.  0.
         23    2    1    2    0    0  0.13046066570E+02  0.28518647487E+02 -0.14730557484E+03  0.19571510450E+03  0.12498782598E+03 0.  0.
          5    1    4    4  502    0  0.54851026305E+02  0.48513176718E+02 -0.12287899987E+03  0.14312058556E+03  0.47000000000E+01 0. -1.
         -5    1    4    4    0  502 -0.41804959735E+02 -0.19994529231E+02 -0.24426574965E+02  0.52594518936E+02  0.47000000000E+01 0. -1.
        -11    1    3    3    0    0  0.27477670936E+02 -0.34194069404E+02 -0.26050685123E+02  0.51018574832E+02  0.00000000000E+00 0.  1.
         11    1    3    3    0    0 -0.40523737506E+02  0.56754219171E+01 -0.12102175537E+03  0.12775229543E+03  0.00000000000E+00 0. -1.
<mgrwt>
<rscale>  0 0.12143671E+03</rscale>
<asrwt>0</asrwt>
<pdfrwt beam="1">  1        4 0.61621508E-02 0.12886221E+03</pdfrwt>
<pdfrwt beam="2">  1       -4 0.51451076E-01 0.12886221E+03</pdfrwt>
<totfact> 0.10156395E+03</totfact>
</mgrwt>
</event>
<event>
 7    1  0.1273312E-005  0.2882205E+03  0.7546771E-02  0.1091282E+00
         -1   -1    0    0    0  501 -0.00000000000E+00  0.00000000000E+00  0.24608068283E+02  0.24608068283E+02  0.00000000000E+00 0.  1.
          1   -1    0    0  501    0  0.00000000000E+00 -0.00000000000E+00 -0.84394099427E+03  0.84394099427E+03  0.00000000000E+00 0. -1.
         23    2    1    2    0    0  0.23114433050E+02  0.14779836491E+02 -0.45930239386E+03  0.47426150422E+03  0.11494592120E+03 0.  0.
          5    1    3    3  502    0  0.60507448376E+01 -0.24654206734E+01 -0.44623522864E+03  0.44630780756E+03  0.47000000000E+01 0. -1.
         -5    1    3    3    0  502  0.17063688213E+02  0.17245257165E+02 -0.13067165221E+02  0.27953696661E+02  0.47000000000E+01 0.  1.
        -11    1    1    2    0    0 -0.90314586728E+02 -0.20065593038E+02 -0.22770282433E+03  0.24578024495E+03  0.00000000000E+00 0.  1.
         11    1    1    2    0    0  0.67200153678E+02  0.52857565470E+01 -0.13232770780E+03  0.14850731338E+03  0.00000000000E+00 0. -1.
<mgrwt>
<rscale>  0 0.28822045E+03</rscale>
<asrwt>0</asrwt>
<pdfrwt beam="2">  1        1 0.12983708E+00 0.28822045E+03</pdfrwt>
<pdfrwt beam="1">  1       -1 0.37858564E-02 0.28822045E+03</pdfrwt>
<totfact> 0.56553879E+03</totfact>
</mgrwt>
</event>
<event>
 7    1  0.1273312E-005  0.2198481E+03  0.7546771E-02  0.1170385E+00
          2   -1    0    0  501    0  0.00000000000E+00  0.00000000000E+00  0.24431211208E+03  0.24431211208E+03  0.00000000000E+00 0. -1.
         -2   -1    0    0    0  501 -0.00000000000E+00 -0.00000000000E+00 -0.12144142454E+03  0.12144142454E+03  0.00000000000E+00 0.  1.
         23    2    1    2    0    0 -0.16951343509E+02  0.24278346020E+02 -0.30170501589E+02  0.97882692786E+02  0.88283499301E+02 0.  0.
          5    1    1    2  502    0  0.55015154727E+02  0.73675393222E+02  0.13144498710E+03  0.16048241477E+03  0.47000000000E+01 0. -1.
         -5    1    1    2    0  502 -0.38063811218E+02 -0.97953739242E+02  0.21596202028E+02  0.10738842907E+03  0.47000000000E+01 0.  1.
        -11    1    3    3    0    0  0.32225856846E+02  0.13152328824E+02  0.66670016859E+01  0.35439222824E+02  0.00000000000E+00 0. -1.
         11    1    3    3    0    0 -0.49177200354E+02  0.11126017197E+02 -0.36837503275E+02  0.62443469962E+02  0.00000000000E+00 0.  1.
<mgrwt>
<rscale>  0 0.17735735E+03</rscale>
<asrwt>0</asrwt>
<pdfrwt beam="1">  1        2 0.37586479E-01 0.21984809E+03</pdfrwt>
<pdfrwt beam="2">  1       -2 0.18683296E-01 0.21984809E+03</pdfrwt>
<totfact> 0.31904941E+03</totfact>
</mgrwt>
</event>
<event>
 8    1  0.1273312E-005  0.1783460E+03  0.7546771E-02  0.1175160E+00
          1   -1    0    0  501    0  0.00000000000E+00  0.00000000000E+00  0.94926876102E+02  0.94926876102E+02  0.00000000000E+00 0. -1.
         -1   -1    0    0    0  501 -0.00000000000E+00 -0.00000000000E+00 -0.33848553171E+03  0.33848553171E+03  0.00000000000E+00 0.  1.
         23    2    1    2    0    0  0.46571903260E+01  0.12712995038E+03 -0.19217426180E+03  0.24781165180E+03  0.91082128691E+02 0.  0.
         23    2    1    2    0    0 -0.46571903260E+01 -0.12712995038E+03 -0.51384393816E+02  0.18560075601E+03  0.12499428386E+03 0.  0.
          5    1    4    4  502    0  0.22380902210E+02  0.58639669293E+01 -0.43600301910E+02  0.49581924312E+02  0.47000000000E+01 0. -1.
         -5    1    4    4    0  502 -0.27038092536E+02 -0.13299391731E+03 -0.77840919062E+01  0.13601883170E+03  0.47000000000E+01 0. -1.
        -11    1    3    3    0    0  0.13416017543E+02  0.10392955805E+03 -0.19644522684E+03  0.22264786034E+03  0.00000000000E+00 0.  1.
         11    1    3    3    0    0 -0.87588272172E+01  0.23200392331E+02  0.42709650467E+01  0.25163791467E+02  0.00000000000E+00 0. -1.
<mgrwt>
<rscale>  0 0.17260293E+03</rscale>
<asrwt>0</asrwt>
<pdfrwt beam="1">  1        1 0.14604135E-01 0.17834597E+03</pdfrwt>
<pdfrwt beam="2">  1       -1 0.52074697E-01 0.17834597E+03</pdfrwt>
<totfact> 0.14524383E+03</totfact>
</mgrwt>
</event>
<event>
 8    1  0.1273312E-005  0.1879333E+03  0.7546771E-02  0.1166888E+00
          3   -1    0    0  501    0  0.00000000000E+00  0.00000000000E+00  0.39377446621E+02  0.39377446621E+02  0.00000000000E+00 0. -1.
         -3   -1    0    0    0  501 -0.00000000000E+00 -0.00000000000E+00 -0.90513229494E+03  0.90513229494E+03  0.00000000000E+00 0.  1.
         23    2    1    2    0    0 -0.12561475872E+03  0.62563306056E+02 -0.58328313410E+03  0.60523225868E+03  0.79960224746E+02 0.  0.
         23    2    1    2    0    0  0.12561475872E+03 -0.62563306056E+02 -0.28247171422E+03  0.33927748289E+03  0.12500282471E+03 0.  0.
          5    1    4    4  502    0  0.79472159683E+02 -0.16098516707E+02 -0.25585015662E+03  0.26843319290E+03  0.47000000000E+01 0.  1.
         -5    1    4    4    0  502  0.46142599039E+02 -0.46464789349E+02 -0.26621557598E+02  0.70844289990E+02  0.47000000000E+01 0.  1.
        -11    1    3    3    0    0 -0.25653738472E+02 -0.10980938351E+02 -0.45993988029E+02  0.53797232637E+02  0.00000000000E+00 0. -1.
         11    1    3    3    0    0 -0.99961020250E+02  0.73544244407E+02 -0.53728914607E+03  0.55143502604E+03  0.00000000000E+00 0.  1.
<mgrwt>
<rscale>  0 0.18094877E+03</rscale>
<asrwt>0</asrwt>
<pdfrwt beam="1">  1        3 0.60580687E-02 0.18793334E+03</pdfrwt>
<pdfrwt beam="2">  1       -3 0.13925112E+00 0.18793334E+03</pdfrwt>
<totfact> 0.16780440E+02</totfact>
</mgrwt>
</event>
<event>
 8    1  0.1273312E-005  0.1436757E+03  0.7546771E-02  0.1218627E+00
          2   -1    0    0  501    0  0.00000000000E+00  0.00000000000E+00  0.77689314363E+03  0.77689314363E+03  0.00000000000E+00 0. -1.
         -2   -1    0    0    0  501 -0.00000000000E+00 -0.00000000000E+00 -0.21827524577E+02  0.21827524577E+02  0.00000000000E+00 0.  1.
         23    2    1    2    0    0  0.14749432759E+02 -0.69284050529E+02  0.30313774045E+03  0.32450393390E+03  0.91610523460E+02 0.  0.
         23    2    1    2    0    0 -0.14749432759E+02  0.69284050529E+02  0.45192787861E+03  0.47421673431E+03  0.12499951285E+03 0.  0.
          5    1    4    4  502    0 -0.40120947145E+02  0.55552118448E+02  0.43510208708E+03  0.44049023195E+03  0.47000000000E+01 0. -1.
         -5    1    4    4    0  502  0.25371514386E+02  0.13731932081E+02  0.16825791533E+02  0.33726502363E+02  0.47000000000E+01 0. -1.
        -11    1    3    3    0    0 -0.37054310971E+01  0.21214465101E+02  0.83590332017E+02  0.86319912858E+02  0.00000000000E+00 0. -1.
         11    1    3    3    0    0  0.18454863856E+02 -0.90498515630E+02  0.21954740843E+03  0.23818402104E+03  0.00000000000E+00 0.  1.
<mgrwt>
<rscale>  0 0.13613423E+03</rscale>
<asrwt>0</asrwt>
<pdfrwt beam="1">  1        2 0.11952200E+00 0.14367569E+03</pdfrwt>
<pdfrwt beam="2">  1       -2 0.33580813E-02 0.14367569E+03</pdfrwt>
<totfact> 0.12636881E+04</totfact>
</mgrwt>
</event>
<event>
 8    1  0.1273312E-005  0.1447861E+03  0.7546771E-02  0.1216691E+00
         -1   -1    0    0    0  501 -0.00000000000E+00  0.00000000000E+00  0.64349707387E+02  0.64349707387E+02  0.00000000000E+00 0.  1.
          1   -1    0    0  501    0  0.00000000000E+00 -0.00000000000E+00 -0.26803016964E+03  0.26803016964E+03  0.00000000000E+00 0. -1.
         23    2    1    2    0    0  0.30420330206E+02  0.66425062190E+02 -0.91255088440E+02  0.14907011556E+03  0.92502555702E+02 0.  0.
         23    2    1    2    0    0 -0.30420330206E+02 -0.66425062190E+02 -0.11242537381E+03  0.18330976146E+03  0.12500127437E+03 0.  0.
          5    1    4    4  502    0  0.31135143336E+02 -0.43712133017E+02 -0.95890952079E+00  0.53880954250E+02  0.47000000000E+01 0. -1.
         -5    1    4    4    0  502 -0.61555473542E+02 -0.22712929173E+02 -0.11146646429E+03  0.12942880721E+03  0.47000000000E+01 0. -1.
        -11    1    3    3    0    0  0.58996116215E+02  0.30675293272E+02 -0.30896444893E+02  0.73321931595E+02  0.00000000000E+00 0.  1.
         11    1    3    3    0    0 -0.28575786010E+02  0.35749768918E+02 -0.60358643548E+02  0.75748183969E+02  0.00000000000E+00 0. -1.
<mgrwt>
<rscale>  0 0.13753083E+03</rscale>
<asrwt>0</asrwt>
<pdfrwt beam="2">  1        1 0.41235411E-01 0.14478606E+03</pdfrwt>
<pdfrwt beam="1">  1       -1 0.98999550E-02 0.14478606E+03</pdfrwt>
<totfact> 0.59988532E+03</totfact>
</mgrwt>
</event>
<event>
 8    1  0.1273312E-005  0.1274905E+03  0.7546771E-02  0.1243707E+00
          1   -1    0    0  501    0  0.00000000000E+00  0.00000000000E+00  0.14492081936E+03  0.14492081936E+03  0.00000000000E+00 0. -1.
         -1   -1    0    0    0  501 -0.00000000000E+00 -0.00000000000E+00 -0.94107822540E+02  0.94107822540E+02  0.00000000000E+00 0.  1.
         23    2    1    2    0    0 -0.19848413881E+02  0.15337332258E+02 -0.69024308703E+01  0.99082542281E+02  0.95606031915E+02 0.  0.
         23    2    1    2    0    0  0.19848413881E+02 -0.15337332258E+02  0.57715427691E+02  0.13994609962E+03  0.12499858764E+03 0.  0.
          5    1    4    4  502    0  0.58948833470E+02  0.55278061373E+01  0.71822302700E+02  0.93199006289E+02  0.47000000000E+01 0.  1.
         -5    1    4    4    0  502 -0.39100419589E+02 -0.20865138396E+02 -0.14106875009E+02  0.46747093330E+02  0.47000000000E+01 0.  1.
        -11    1    3    3    0    0 -0.16746558121E+02 -0.87668021509E+01  0.41122316508E+02  0.45258689153E+02  0.00000000000E+00 0. -1.
         11    1    3    3    0    0 -0.31018557604E+01  0.24104134409E+02 -0.48024747379E+02  0.53823853128E+02  0.00000000000E+00 0.  1.
<mgrwt>
<rscale>  0 0.11963099E+03</rscale>
<asrwt>0</asrwt>
<pdfrwt beam="1">  1        1 0.22295511E-01 0.12749055E+03</pdfrwt>
<pdfrwt beam="2">  1       -1 0.14478127E-01 0.12749055E+03</pdfrwt>
<totfact> 0.71165737E+03</totfact>
</mgrwt>
</event>
<event>
 7    1  0.1273312E-005  0.1864171E+03  0.7546771E-02  0.1175208E+00
          1   -1    0    0  501    0  0.00000000000E+00  0.00000000000E+00  0.23619987074E+03  0.23619987074E+03  0.00000000000E+00 0. -1.
         -1   -1    0    0    0  501 -0.00000000000E+00 -0.00000000000E+00 -0.15900989964E+03  0.15900989964E+03  0.00000000000E+00 0.  1.
         23    2    1    2    0    0  0.79930785702E+02 -0.63964225136E+02 -0.73645047982E+02  0.15541293921E+03  0.90825304738E+02 0.  0.
          5    1    1    2  502    0 -0.10499347979E+03  0.59509219632E+02  0.41915524791E+02  0.12784357331E+03  0.47000000000E+01 0. -1.
         -5    1    1    2    0  502  0.25062694087E+02  0.44550055041E+01  0.10891949429E+03  0.11195325786E+03  0.47000000000E+01 0.  1.
        -11    1    3    3    0    0 -0.77142591463E+01 -0.27074352115E+02  0.88647404504E+01  0.29514639755E+02  0.00000000000E+00 0. -1.
         11    1    3    3    0    0  0.87645044848E+02 -0.36889873022E+02 -0.82509788432E+02  0.12589829945E+03  0.00000000000E+00 0.  1.
<mgrwt>
<rscale>  0 0.17255608E+03</rscale>
<asrwt>0</asrwt>
<pdfrwt beam="1">  1        1 0.36338442E-01 0.18641705E+03</pdfrwt>
<pdfrwt beam="2">  1       -1 0.24463062E-01 0.18641705E+03</pdfrwt>
<totfact> 0.16959754E+03</totfact>
</mgrwt>
</event>
<event>
 8    1  0.1273312E-005  0.1327666E+03  0.7546771E-02  0.1236741E+00
         -1   -1    0    0    0  501 -0.00000000000E+00  0.00000000000E+00  0.18495422422E+02  0.18495422422E+02  0.00000000000E+00 0.  1.
          1   -1    0    0  501    0  0.00000000000E+00 -0.00000000000E+00 -0.99379073721E+03  0.99379073721E+03  0.00000000000E+00 0. -1.
         23    2    1    2    0    0 -0.42553964949E+02 -0.12315693310E+02 -0.18289424533E+03  0.20883956983E+03  0.90560171818E+02 0.  0.
         23    2    1    2    0    0  0.42553964949E+02  0.12315693310E+02 -0.79240106946E+03  0.80344658980E+03  0.12515770669E+03 0.  0.
          5    1    4    4  502    0  0.23894089376E+02  0.44547261249E+02 -0.72094419635E+03  0.72272955540E+03  0.47000000000E+01 0. -1.
         -5    1    4    4    0  502  0.18659875574E+02 -0.32231567939E+02 -0.71456873109E+02  0.80717034402E+02  0.47000000000E+01 0. -1.
        -11    1    3    3    0    0 -0.10614314311E+02  0.35959104005E+02 -0.10707924700E+03  0.11345345287E+03  0.00000000000E+00 0. -1.
         11    1    3    3    0    0 -0.31939650638E+02 -0.48274797316E+02 -0.75814998330E+02  0.95386116970E+02  0.00000000000E+00 0.  1.
<mgrwt>
<rscale>  0 0.12393611E+03</rscale>
<asrwt>0</asrwt>
<pdfrwt beam="2">  1        1 0.15289091E+00 0.13276659E+03</pdfrwt>
<pdfrwt beam="1">  1       -1 0.28454492E-02 0.13276659E+03</pdfrwt>
<totfact> 0.64016100E+03</totfact>
</mgrwt>
</event>
<event>
 8    1  0.1273312E-005  0.2643444E+03  0.7546771E-02  0.1106690E+00
         -2   -1    0    0    0  501 -0.00000000000E+00  0.00000000000E+00  0.89984536755E+02  0.89984536755E+02  0.00000000000E+00 0. -1.
          2   -1    0    0  501    0  0.00000000000E+00 -0.00000000000E+00 -0.16532146422E+04  0.16532146422E+04  0.00000000000E+00 0.  1.
         23    2    1    2    0    0  0.18453040424E+02 -0.23219219491E+03 -0.12292811250E+03  0.27883999608E+03  0.91578886734E+02 0.  0.
         23    2    1    2    0    0 -0.18453040424E+02  0.23219219491E+03 -0.14403019929E+04  0.14643591829E+04  0.12499702192E+03 0.  0.
          5    1    4    4  502    0  0.21770774470E+02  0.19454953378E+03 -0.12775882924E+04  0.12925081905E+04  0.47000000000E+01 0.  1.
         -5    1    4    4    0  502 -0.40223814895E+02  0.37642661133E+02 -0.16271370055E+03  0.17185099234E+03  0.47000000000E+01 0.  1.
        -11    1    3    3    0    0  0.19748478859E+02 -0.45335220921E+02  0.87840505655E+01  0.50223940681E+02  0.00000000000E+00 0. -1.
         11    1    3    3    0    0 -0.12954384343E+01 -0.18685697399E+03 -0.13171216306E+03  0.22861605540E+03  0.00000000000E+00 0.  1.
<mgrwt>
<rscale>  0 0.26075610E+03</rscale>
<asrwt>0</asrwt>
<pdfrwt beam="2">  1        2 0.25434069E+00 0.26434444E+03</pdfrwt>
<pdfrwt beam="1">  1       -2 0.13843776E-01 0.26434444E+03</pdfrwt>
<totfact> 0.44448618E+02</totfact>
</mgrwt>
</event>
<event>
 8    1  0.1273312E-005  0.1298049E+03  0.7546771E-02  0.1241367E+00
         -2   -1    0    0    0  501 -0.00000000000E+00  0.00000000000E+00  0.10927606199E+03  0.10927606199E+03  0.00000000000E+00 0.  1.
          2   -1    0    0  501    0  0.00000000000E+00 -0.00000000000E+00 -0.11971557422E+03  0.11971557422E+03  0.00000000000E+00 0. -1.
         23    2    1    2    0    0 -0.13640590135E+02 -0.32212358904E+02  0.47454955000E+01  0.98301604528E+02  0.91744122208E+02 0.  0.
         23    2    1    2    0    0  0.13640590135E+02  0.32212358904E+02 -0.15185007729E+02  0.13069003168E+03  0.12500239260E+03 0.  0.
          5    1    4    4  502    0  0.17555167880E+02 -0.12409651343E+02  0.48169133248E+02  0.52957896140E+02  0.47000000000E+01 0.  1.
         -5    1    4    4    0  502 -0.39145777456E+01  0.44622010247E+02 -0.63354140977E+02  0.77732135544E+02  0.47000000000E+01 0.  1.
        -11    1    3    3    0    0  0.15228604635E+02 -0.41287918619E+02 -0.29209261556E+02  0.52818401941E+02  0.00000000000E+00 0. -1.
         11    1    3    3    0    0 -0.28869194769E+02  0.90755597149E+01  0.33954757056E+02  0.45483202586E+02  0.00000000000E+00 0.  1.
<mgrwt>
<rscale>  0 0.12105471E+03</rscale>
<asrwt>0</asrwt>
<pdfrwt beam="2">  1        2 0.18417781E-01 0.12980485E+03</pdfrwt>
<pdfrwt beam="1">  1       -2 0.16811702E-01 0.12980485E+03</pdfrwt>
<totfact> 0.81307027E+03</totfact>
</mgrwt>
</event>
<event>
 8    1  0.1273312E-005  0.1507767E+03  0.7546771E-02  0.1209013E+00
          2   -1    0    0  501    0  0.00000000000E+00  0.00000000000E+00  0.58165770952E+03  0.58165770952E+03  0.00000000000E+00 0. -1.
         -2   -1    0    0    0  501 -0.00000000000E+00 -0.00000000000E+00 -0.35230461212E+02  0.35230461212E+02  0.00000000000E+00 0.  1.
         23    2    1    2    0    0  0.84309516439E+02 -0.28968715469E+00  0.15751754135E+03  0.19977384678E+03  0.89384761267E+02 0.  0.
         23    2    1    2    0    0 -0.84309516439E+02  0.28968715469E+00  0.38890970697E+03  0.41711432395E+03  0.12500168236E+03 0.  0.
          5    1    4    4  502    0 -0.13195311241E+02 -0.54743566536E+02  0.10461635052E+03  0.11890182972E+03  0.47000000000E+01 0.  1.
         -5    1    4    4    0  502 -0.71114205198E+02  0.55033253691E+02  0.28429335645E+03  0.29821249423E+03  0.47000000000E+01 0.  1.
        -11    1    3    3    0    0 -0.67393451119E+01  0.17691410643E+02  0.68897236772E+02  0.71450920343E+02  0.00000000000E+00 0. -1.
         11    1    3    3    0    0  0.91048861551E+02 -0.17981097798E+02  0.88620304573E+02  0.12832292644E+03  0.00000000000E+00 0.  1.
<mgrwt>
<rscale>  0 0.14325666E+03</rscale>
<asrwt>0</asrwt>
<pdfrwt beam="1">  1        2 0.89485794E-01 0.15077665E+03</pdfrwt>
<pdfrwt beam="2">  1       -2 0.54200714E-02 0.15077665E+03</pdfrwt>
<totfact> 0.87213039E+03</totfact>
</mgrwt>
</event>
<event>
 8    1  0.1273312E-005  0.1329140E+03  0.7546771E-02  0.1236015E+00
          1   -1    0    0  501    0  0.00000000000E+00  0.00000000000E+00  0.17557063367E+03  0.17557063367E+03  0.00000000000E+00 0. -1.
         -1   -1    0    0    0  501 -0.00000000000E+00 -0.00000000000E+00 -0.99177524194E+02  0.99177524194E+02  0.00000000000E+00 0.  1.
         23    2    1    2    0    0  0.31779038163E+02  0.32070376246E+02 -0.27981685147E+02  0.10575044936E+03  0.91442695374E+02 0.  0.
         23    2    1    2    0    0 -0.31779038163E+02 -0.32070376246E+02  0.10437479462E+03  0.16899770850E+03  0.12501084524E+03 0.  0.
          5    1    4    4  502    0 -0.58108104594E+02  0.21394550876E+02  0.19320083698E+02  0.65035638390E+02  0.47000000000E+01 0. -1.
         -5    1    4    4    0  502  0.26329066431E+02 -0.53464927122E+02  0.85054710921E+02  0.10396207011E+03  0.47000000000E+01 0. -1.
        -11    1    3    3    0    0 -0.96753078850E+01 -0.26550803876E+02  0.11155276717E+01  0.28280756197E+02  0.00000000000E+00 0.  1.
         11    1    3    3    0    0  0.41454346048E+02  0.58621180121E+02 -0.29097212819E+02  0.77469693164E+02  0.00000000000E+00 0. -1.
<mgrwt>
<rscale>  0 0.12439649E+03</rscale>
<asrwt>0</asrwt>
<pdfrwt beam="1">  1        1 0.27010867E-01 0.13291399E+03</pdfrwt>
<pdfrwt beam="2">  1       -1 0.15258081E-01 0.13291399E+03</pdfrwt>
<totfact> 0.51678639E+03</totfact>
</mgrwt>
</event>
<event>
 8    1  0.1273312E-005  0.2225276E+03  0.7546771E-02  0.1135708E+00
         -2   -1    0    0    0  501 -0.00000000000E+00  0.00000000000E+00  0.28735966257E+02  0.28735966257E+02  0.00000000000E+00 0.  1.
          2   -1    0    0  501    0  0.00000000000E+00 -0.00000000000E+00 -0.20013561802E+04  0.20013561802E+04  0.00000000000E+00 0. -1.
         23    2    1    2    0    0  0.27856996756E+02  0.18057716033E+03 -0.48475921030E+03  0.52568232850E+03  0.89254105939E+02 0.  0.
         23    2    1    2    0    0 -0.27856996756E+02 -0.18057716033E+03 -0.14878610037E+04  0.15044098180E+04  0.12702130177E+03 0.  0.
          5    1    4    4  502    0  0.26281070480E+01 -0.11062489613E+03 -0.12421984207E+04  0.12471262089E+04  0.47000000000E+01 0. -1.
         -5    1    4    4    0  502 -0.30485103804E+02 -0.69952264200E+02 -0.24566258299E+03  0.25728360908E+03  0.47000000000E+01 0.  1.
        -11    1    3    3    0    0 -0.16151897914E+02  0.39939119878E+01 -0.17085049986E+02  0.23848146096E+02  0.00000000000E+00 0.  1.
         11    1    3    3    0    0  0.44008894670E+02  0.17658324834E+03 -0.46767416031E+03  0.50183418240E+03  0.00000000000E+00 0. -1.
<mgrwt>
<rscale>  0 0.21756945E+03</rscale>
<asrwt>0</asrwt>
<pdfrwt beam="2">  1        2 0.30790094E+00 0.22252760E+03</pdfrwt>
<pdfrwt beam="1">  1       -2 0.44209180E-02 0.22252760E+03</pdfrwt>
<totfact> 0.17578811E+03</totfact>
</mgrwt>
</event>
<event>
 8    1  0.1273312E-005  0.1454741E+03  0.7546771E-02  0.1216865E+00
         -2   -1    0    0    0  501 -0.00000000000E+00  0.00000000000E+00  0.28362470145E+02  0.28362470145E+02  0.00000000000E+00 0.  1.
          2   -1    0    0  501    0  0.00000000000E+00 -0.00000000000E+00 -0.66679975982E+03  0.66679975982E+03  0.00000000000E+00 0. -1.
         23    2    1    2    0    0  0.72125909059E+02 -0.18321505357E+02 -0.17846051363E+03  0.21272949957E+03  0.88700962495E+02 0.  0.
         23    2    1    2    0    0 -0.72125909059E+02  0.18321505357E+02 -0.45997677604E+03  0.48243273039E+03  0.12499952214E+03 0.  0.
          5    1    4    4  502    0 -0.55393521855E+02 -0.49767472587E+02 -0.25847074713E+03  0.26902501875E+03  0.47000000000E+01 0. -1.
         -5    1    4    4    0  502 -0.16732387204E+02  0.68088977944E+02 -0.20150602891E+03  0.21340771164E+03  0.47000000000E+01 0. -1.
        -11    1    3    3    0    0  0.21915586169E+02 -0.45270638159E+01  0.42201251031E+01  0.22772717884E+02  0.00000000000E+00 0.  1.
         11    1    3    3    0    0  0.50210322890E+02 -0.13794441541E+02 -0.18268063873E+03  0.18995678169E+03  0.00000000000E+00 0. -1.
<mgrwt>
<rscale>  0 0.13740430E+03</rscale>
<asrwt>0</asrwt>
<pdfrwt beam="2">  1        2 0.10258457E+00 0.14547407E+03</pdfrwt>
<pdfrwt beam="1">  1       -2 0.43634572E-02 0.14547407E+03</pdfrwt>
<totfact> 0.10297734E+04</totfact>
</mgrwt>
</event>
<event>
 8    1  0.1273312E-005  0.1306396E+03  0.7546771E-02  0.1240121E+00
          1   -1    0    0  501    0  0.00000000000E+00  0.00000000000E+00  0.20360549611E+04  0.20360549611E+04  0.00000000000E+00 0. -1.
         -1   -1    0    0    0  501 -0.00000000000E+00 -0.00000000000E+00 -0.94022192428E+01  0.94022192428E+01  0.00000000000E+00 0.  1.
         23    2    1    2    0    0  0.33902335770E+02 -0.17041727811E+02  0.34856789924E+03  0.36229484561E+03  0.91204089358E+02 0.  0.
         23    2    1    2    0    0 -0.33902335770E+02  0.17041727811E+02  0.16780848426E+04  0.16831623347E+04  0.12500766854E+03 0.  0.
          5    1    4    4  502    0 -0.71712140859E+02 -0.14982691615E+02  0.12578326484E+04  0.12599730845E+04  0.47000000000E+01 0. -1.
         -5    1    4    4    0  502  0.37809805089E+02  0.32024419426E+02  0.42025219423E+03  0.42318925028E+03  0.47000000000E+01 0. -1.
        -11    1    3    3    0    0 -0.41620382341E+01 -0.44378448990E+02  0.23907335422E+03  0.24319300564E+03  0.00000000000E+00 0. -1.
         11    1    3    3    0    0  0.38064374004E+02  0.27336721179E+02  0.10949454502E+03  0.11910183996E+03  0.00000000000E+00 0.  1.
<mgrwt>
<rscale>  0 0.12182211E+03</rscale>
<asrwt>0</asrwt>
<pdfrwt beam="1">  1        1 0.31323887E+00 0.13063960E+03</pdfrwt>
<pdfrwt beam="2">  1       -1 0.14464969E-02 0.13063960E+03</pdfrwt>
<totfact> 0.34965229E+03</totfact>
</mgrwt>
</event>
<event>
 8    1  0.1273312E-005  0.1968530E+03  0.7546771E-02  0.1156796E+00
         -2   -1    0    0    0  501 -0.00000000000E+00  0.00000000000E+00  0.89495732681E+02  0.89495732681E+02  0.00000000000E+00 0.  1.
          2   -1    0    0  501    0  0.00000000000E+00 -0.00000000000E+00 -0.39247928743E+03  0.39247928743E+03  0.00000000000E+00 0. -1.
         23    2    1    2    0    0  0.42714580459E+02 -0.14593880260E+03 -0.13317292814E+03  0.22200050626E+03  0.91796113743E+02 0.  0.
         23    2    1    2    0    0 -0.42714580459E+02  0.14593880260E+03 -0.16981062661E+03  0.25997451385E+03  0.12501371707E+03 0.  0.
          5    1    4    4  502    0 -0.66718473860E+01  0.82819193796E+02 -0.16757668279E+03  0.18710309196E+03  0.47000000000E+01 0.  1.
         -5    1    4    4    0  502 -0.36042733073E+02  0.63119608808E+02 -0.22339438182E+01  0.72871421891E+02  0.47000000000E+01 0.  1.
        -11    1    3    3    0    0  0.54504320021E+02 -0.35316515149E+02 -0.35815083826E+02  0.74166686408E+02  0.00000000000E+00 0. -1.
         11    1    3    3    0    0 -0.11789739563E+02 -0.11062228745E+03 -0.97357844317E+02  0.14783381985E+03  0.00000000000E+00 0.  1.
<mgrwt>
<rscale>  0 0.19185806E+03</rscale>
<asrwt>0</asrwt>
<pdfrwt beam="2">  1        2 0.60381430E-01 0.19685299E+03</pdfrwt>
<pdfrwt beam="1">  1       -2 0.13768574E-01 0.19685299E+03</pdfrwt>
<totfact> 0.31680683E+03</totfact>
</mgrwt>
</event>
<event>
 8    1  0.1273312E-005  0.3126946E+03  0.7546771E-02  0.1079533E+00
         -2   -1    0    0    0  501 -0.00000000000E+00  0.00000000000E+00  0.41811857472E+02  0.41811857472E+02  0.00000000000E+00 0.  1.
          2   -1    0    0  501    0  0.00000000000E+00 -0.00000000000E+00 -0.23179944619E+04  0.23179944619E+04  0.00000000000E+00 0. -1.
         23    2    1    2    0    0 -0.26311358951E+03  0.11368879541E+03 -0.12041171169E+04  0.12430689655E+04  0.11475416567E+03 0.  0.
         23    2    1    2    0    0  0.26311358951E+03 -0.11368879541E+03 -0.10720654876E+04  0.11167373540E+04  0.12499601932E+03 0.  0.
          5    1    4    4  502    0  0.18609533573E+02 -0.52269257946E+02 -0.12813725837E+03  0.13971269466E+03  0.47000000000E+01 0. -1.
         -5    1    4    4    0  502  0.24450405594E+03 -0.61419537468E+02 -0.94392822923E+03  0.97702465930E+03  0.47000000000E+01 0. -1.
        -11    1    3    3    0    0 -0.14240971778E+03  0.66522690580E+02 -0.42268147802E+03  0.45096056140E+03  0.00000000000E+00 0. -1.
         11    1    3    3    0    0 -0.12070387173E+03  0.47166104835E+02 -0.78143563886E+03  0.79210840406E+03  0.00000000000E+00 0.  1.
<mgrwt>
<rscale>  0 0.31170205E+03</rscale>
<asrwt>0</asrwt>
<pdfrwt beam="2">  1        2 0.35661453E+00 0.31269459E+03</pdfrwt>
<pdfrwt beam="1">  1       -2 0.64325935E-02 0.31269459E+03</pdfrwt>
<totfact> 0.66486326E+02</totfact>
</mgrwt>
</event>
<event>
 8    1  0.1273312E-005  0.1254592E+03  0.7546771E-02  0.1251461E+00
         -1   -1    0    0    0  501 -0.00000000000E+00  0.00000000000E+00  0.15746653225E+02  0.15746653225E+02  0.00000000000E+00 0.  1.
          1   -1    0    0  501    0  0.00000000000E+00 -0.00000000000E+00 -0.10885125706E+04  0.10885125706E+04  0.00000000000E+00 0. -1.
         23    2    1    2    0    0 -0.45076099264E+01 -0.97057850355E+01 -0.16059992489E+03  0.18350583372E+03  0.88133616318E+02 0.  0.
         23    2    1    2    0    0  0.45076099264E+01  0.97057850355E+01 -0.91216599247E+03  0.92075339009E+03  0.12500194689E+03 0.  0.
          5    1    4    4  502    0 -0.41564858088E+02  0.43002307252E+02 -0.30023719186E+03  0.30617200595E+03  0.47000000000E+01 0. -1.
         -5    1    4    4    0  502  0.46072468014E+02 -0.33296522216E+02 -0.61192880062E+03  0.61458138413E+03  0.47000000000E+01 0. -1.
        -11    1    3    3    0    0  0.36131428176E+02 -0.13749281224E+02 -0.37700969375E+02  0.53998943768E+02  0.00000000000E+00 0.  1.
         11    1    3    3    0    0 -0.40639038102E+02  0.40434961885E+01 -0.12289895551E+03  0.12950688995E+03  0.00000000000E+00 0. -1.
<mgrwt>
<rscale>  0 0.11506859E+03</rscale>
<asrwt>0</asrwt>
<pdfrwt beam="2">  1        1 0.16746350E+00 0.12545919E+03</pdfrwt>
<pdfrwt beam="1">  1       -1 0.24225616E-02 0.12545919E+03</pdfrwt>
<totfact> 0.68916812E+03</totfact>
</mgrwt>
</event>
<event>
 8    1  0.1273312E-005  0.1870269E+03  0.7546771E-02  0.1167240E+00
         -2   -1    0    0    0  501 -0.00000000000E+00  0.00000000000E+00  0.42948286578E+02  0.42948286578E+02  0.00000000000E+00 0.  1.
          2   -1    0    0  501    0  0.00000000000E+00 -0.00000000000E+00 -0.77708610149E+03  0.77708610149E+03  0.00000000000E+00 0. -1.
         23    2    1    2    0    0 -0.19601990166E+02  0.13772785300E+03 -0.22456907730E+03  0.27722746785E+03  0.84086853538E+02 0.  0.
         23    2    1    2    0    0  0.19601990166E+02 -0.13772785300E+03 -0.50956873761E+03  0.54280692022E+03  0.12500341906E+03 0.  0.
          5    1    4    4  502    0 -0.74983056707E+01 -0.13858882918E+03 -0.29016811611E+03  0.32168729189E+03  0.47000000000E+01 0.  1.
         -5    1    4    4    0  502  0.27100295837E+02  0.86097617742E+00 -0.21940062150E+03  0.22111962832E+03  0.47000000000E+01 0.  1.
        -11    1    3    3    0    0 -0.12126414140E+02  0.12234950117E+03 -0.12187065974E+03  0.17311530280E+03  0.00000000000E+00 0.  1.
         11    1    3    3    0    0 -0.74755760261E+01  0.15378351829E+02 -0.10269841756E+03  0.10411216505E+03  0.00000000000E+00 0. -1.
<mgrwt>
<rscale>  0 0.18058324E+03</rscale>
<asrwt>0</asrwt>
<pdfrwt beam="2">  1        2 0.11955170E+00 0.18702688E+03</pdfrwt>
<pdfrwt beam="1">  1       -2 0.66074292E-02 0.18702688E+03</pdfrwt>
<totfact> 0.46221697E+03</totfact>
</mgrwt>
</event>
<event>
 8    1  0.1273312E-005  0.3588956E+03  0.7546771E-02  0.1060045E+00
         -1   -1    0    0    0  501 -0.00000000000E+00  0.00000000000E+00  0.77427165288E+02  0.77427165288E+02  0.00000000000E+00 0.  1.
          1   -1    0    0  501    0  0.00000000000E+00 -0.00000000000E+00 -0.17439677080E+04  0.17439677080E+04  0.00000000000E+00 0. -1.
         23    2    1    2    0    0  0.31810918179E+03  0.10949373005E+03 -0.57640469957E+03  0.67370057942E+03  0.91911721608E+02 0.  0.
         23    2    1    2    0    0 -0.31810918179E+03 -0.10949373005E+03 -0.10901358431E+04  0.11476942938E+04  0.12499482874E+03 0.  0.
          5    1    4    4  502    0 -0.20656102063E+03 -0.11219696697E+02 -0.55672677433E+03  0.59393613132E+03  0.47000000000E+01 0.  1.
         -5    1    4    4    0  502 -0.11154816115E+03 -0.98274033355E+02 -0.53340906878E+03  0.55375816251E+03  0.47000000000E+01 0.  1.
        -11    1    3    3    0    0  0.13067692487E+03  0.46344073892E+01 -0.17505794875E+03  0.21850222389E+03  0.00000000000E+00 0. -1.
         11    1    3    3    0    0  0.18743225691E+03  0.10485932266E+03 -0.40134675082E+03  0.45519835553E+03  0.00000000000E+00 0.  1.
<mgrwt>
<rscale>  0 0.35633314E+03</rscale>
<asrwt>0</asrwt>
<pdfrwt beam="2">  1        1 0.26830269E+00 0.35889558E+03</pdfrwt>
<pdfrwt beam="1">  1       -1 0.11911873E-01 0.35889558E+03</pdfrwt>
<totfact> 0.22661220E+02</totfact>
</mgrwt>
</event>
<event>
 8    1  0.1273312E-005  0.1666258E+03  0.7546771E-02  0.1187986E+00
         -2   -1    0    0    0  501 -0.00000000000E+00  0.00000000000E+00  0.16378383997E+03  0.16378383997E+03  0.00000000000E+00 0.  1.
          2   -1    0    0  501    0  0.00000000000E+00 -0.00000000000E+00 -0.14920056499E+03  0.14920056499E+03  0.00000000000E+00 0. -1.
         23    2    1    2    0    0  0.63964882838E+02  0.89707664237E+02  0.24865677765E+02  0.14604166396E+03  0.92579125195E+02 0.  0.
         23    2    1    2    0    0 -0.63964882838E+02 -0.89707664237E+02 -0.10282402786E+02  0.16694274100E+03  0.12500071883E+03 0.  0.
          5    1    4    4  502    0 -0.69996807495E+02 -0.83660341924E+01 -0.38557573571E+02  0.80488011948E+02  0.47000000000E+01 0.  1.
         -5    1    4    4    0  502  0.60319246570E+01 -0.81341630045E+02  0.28275170786E+02  0.86454729057E+02  0.47000000000E+01 0.  1.
        -11    1    3    3    0    0  0.54081346476E+01  0.19203578856E+02 -0.32343601351E+02  0.38001761927E+02  0.00000000000E+00 0. -1.
         11    1    3    3    0    0  0.58556748190E+02  0.70504085381E+02  0.57209279116E+02  0.10803990203E+03  0.00000000000E+00 0.  1.
<mgrwt>
<rscale>  0 0.16063080E+03</rscale>
<asrwt>0</asrwt>
<pdfrwt beam="2">  1        2 0.22953933E-01 0.16662578E+03</pdfrwt>
<pdfrwt beam="1">  1       -2 0.25197514E-01 0.16662578E+03</pdfrwt>
<totfact> 0.32335540E+03</totfact>
</mgrwt>
</event>
<event>
 8    1  0.1273312E-005  0.1321639E+03  0.7546771E-02  0.1239570E+00
         -2   -1    0    0    0  501 -0.00000000000E+00  0.00000000000E+00  0.78509797644E+02  0.78509797644E+02  0.00000000000E+00 0.  1.
          2   -1    0    0  501    0  0.00000000000E+00 -0.00000000000E+00 -0.18809751621E+03  0.18809751621E+03  0.00000000000E+00 0. -1.
         23    2    1    2    0    0 -0.35048078824E+02  0.24765377062E+02 -0.25087868257E+01  0.96509728625E+02  0.86406839878E+02 0.  0.
         23    2    1    2    0    0  0.35048078824E+02 -0.24765377062E+02 -0.10707893174E+03  0.17009758523E+03  0.12500239657E+03 0.  0.
          5    1    4    4  502    0  0.11039287022E+02  0.25221815798E+02 -0.11085253657E+03  0.11431701848E+03  0.47000000000E+01 0. -1.
         -5    1    4    4    0  502  0.24008791802E+02 -0.49987192860E+02  0.37736048262E+01  0.55780566752E+02  0.47000000000E+01 0. -1.
        -11    1    3    3    0    0  0.18061631158E+02 -0.12183924052E+02 -0.19907825454E+02  0.29512574265E+02  0.00000000000E+00 0.  1.
         11    1    3    3    0    0 -0.53109709982E+02  0.36949301114E+02  0.17399038629E+02  0.66997154361E+02  0.00000000000E+00 0. -1.
<mgrwt>
<rscale>  0 0.12216327E+03</rscale>
<asrwt>0</asrwt>
<pdfrwt beam="2">  1        2 0.28938080E-01 0.13216388E+03</pdfrwt>
<pdfrwt beam="1">  1       -2 0.12078430E-01 0.13216388E+03</pdfrwt>
<totfact> 0.84288165E+03</totfact>
</mgrwt>
</event>
<event>
 8    1  0.1273312E-005  0.1323787E+03  0.7546771E-02  0.1237479E+00
          1   -1    0    0  501    0  0.00000000000E+00  0.00000000000E+00  0.14465410624E+04  0.14465410624E+04  0.00000000000E+00 0. -1.
         -1   -1    0    0    0  501 -0.00000000000E+00 -0.00000000000E+00 -0.10910806181E+02  0.10910806181E+02  0.00000000000E+00 0.  1.
         23    2    1    2    0    0  0.25755755557E+02  0.35142719931E+02  0.35911245023E+03  0.37282533375E+03  0.90214233168E+02 0.  0.
         23    2    1    2    0    0 -0.25755755557E+02 -0.35142719931E+02  0.10765178060E+04  0.10846265348E+04  0.12500305493E+03 0.  0.
          5    1    4    4  502    0  0.54976178720E+01  0.43637103002E+02  0.26315669428E+03  0.26684818962E+03  0.47000000000E+01 0.  1.
         -5    1    4    4    0  502 -0.31253373429E+02 -0.78779822933E+02  0.81336111172E+03  0.81777834522E+03  0.47000000000E+01 0.  1.
        -11    1    3    3    0    0  0.43914617015E+02 -0.11140437175E+02  0.23105849213E+03  0.23545833965E+03  0.00000000000E+00 0. -1.
         11    1    3    3    0    0 -0.18158861458E+02  0.46283157106E+02  0.12805395811E+03  0.13736699410E+03  0.00000000000E+00 0.  1.
<mgrwt>
<rscale>  0 0.12347075E+03</rscale>
<asrwt>0</asrwt>
<pdfrwt beam="1">  1        1 0.22254463E+00 0.13237875E+03</pdfrwt>
<pdfrwt beam="2">  1       -1 0.16785867E-02 0.13237875E+03</pdfrwt>
<totfact> 0.67242952E+03</totfact>
</mgrwt>
</event>
<event>
 8    1  0.1273312E-005  0.1191126E+03  0.7546771E-02  0.1252711E+00
          1   -1    0    0  501    0  0.00000000000E+00  0.00000000000E+00  0.81563944623E+03  0.81563944623E+03  0.00000000000E+00 0. -1.
         -1   -1    0    0    0  501 -0.00000000000E+00 -0.00000000000E+00 -0.15884069519E+02  0.15884069519E+02  0.00000000000E+00 0.  1.
         23    2    1    2    0    0  0.20919788654E+02  0.40361153205E+02  0.26500588304E+03  0.28366876885E+03  0.90405708507E+02 0.  0.
         23    2    1    2    0    0 -0.20919788654E+02 -0.40361153205E+02  0.53474949367E+03  0.54785474689E+03  0.11009606020E+03 0.  0.
          5    1    4    4  502    0 -0.48778910833E+02 -0.42000247593E+02  0.49425553581E+03  0.49845163017E+03  0.47000000000E+01 0. -1.
         -5    1    4    4    0  502  0.27859122180E+02  0.16390943888E+01  0.40493957851E+02  0.49403116718E+02  0.47000000000E+01 0.  1.
        -11    1    3    3    0    0  0.50775373069E+02  0.48495476535E+02  0.18732806490E+03  0.20005437674E+03  0.00000000000E+00 0.  1.
         11    1    3    3    0    0 -0.29855584415E+02 -0.81343233304E+01  0.77677818144E+02  0.83614392113E+02  0.00000000000E+00 0. -1.
<mgrwt>
<rscale>  0 0.11435493E+03</rscale>
<asrwt>0</asrwt>
<pdfrwt beam="1">  1        1 0.12548296E+00 0.11911256E+03</pdfrwt>
<pdfrwt beam="2">  1       -1 0.24437036E-02 0.11911256E+03</pdfrwt>
<totfact> 0.10858127E+04</totfact>
</mgrwt>
</event>
<event>
 8    1  0.1273312E-005  0.1502228E+03  0.7546771E-02  0.1209770E+00
         -2   -1    0    0    0  501 -0.00000000000E+00  0.00000000000E+00  0.36897822340E+02  0.36897822340E+02  0.00000000000E+00 0.  1.
          2   -1    0    0  501    0  0.00000000000E+00 -0.00000000000E+00 -0.57937179182E+03  0.57937179182E+03  0.00000000000E+00 0. -1.
         23    2    1    2    0    0 -0.65842422900E+02 -0.51014054679E+02 -0.13568973956E+03  0.18263346980E+03  0.89474132793E+02 0.  0.
         23    2    1    2    0    0  0.65842422900E+02  0.51014054679E+02 -0.40678422992E+03  0.43363614436E+03  0.12501694910E+03 0.  0.
          5    1    4    4  502    0  0.10112529571E+03  0.41003439502E+02 -0.34229575294E+03  0.35929942939E+03  0.47000000000E+01 0. -1.
         -5    1    4    4    0  502 -0.35282872806E+02  0.10010615176E+02 -0.64488476979E+02  0.74336714971E+02  0.47000000000E+01 0. -1.
        -11    1    3    3    0    0 -0.39162649054E+02 -0.75151711366E+02 -0.81406021573E+02  0.11750928963E+03  0.00000000000E+00 0.  1.
         11    1    3    3    0    0 -0.26679773846E+02  0.24137656688E+02 -0.54283717991E+02  0.65124180162E+02  0.00000000000E+00 0. -1.
<mgrwt>
<rscale>  0 0.14267822E+03</rscale>
<asrwt>0</asrwt>
<pdfrwt beam="2">  1        2 0.89134120E-01 0.15022282E+03</pdfrwt>
<pdfrwt beam="1">  1       -2 0.56765881E-02 0.15022282E+03</pdfrwt>
<totfact> 0.81664043E+03</totfact>
</mgrwt>
</event>
<event>
 8    1  0.1273312E-005  0.1919217E+03  0.7546771E-02  0.1157940E+00
          2   -1    0    0  501    0  0.00000000000E+00  0.00000000000E+00  0.14406836628E+03  0.14406836628E+03  0.00000000000E+00 0. -1.
         -2   -1    0    0    0  501 -0.00000000000E+00 -0.00000000000E+00 -0.31536284776E+03  0.31536284776E+03  0.00000000000E+00 0.  1.
         23    2    1    2    0    0  0.11905197632E+03  0.83878428472E+02 -0.19035405006E+03  0.26656545739E+03  0.11667696805E+03 0.  0.
         23    2    1    2    0    0 -0.11905197632E+03 -0.83878428472E+02  0.19059568577E+02  0.19286575664E+03  0.12499987641E+03 0.  0.
          5    1    4    4  502    0 -0.18048425628E+02 -0.32016075387E+01 -0.44781226241E+02  0.48615266966E+02  0.47000000000E+01 0. -1.
         -5    1    4    4    0  502 -0.10100355069E+03 -0.80676820934E+02  0.63840794818E+02  0.14425048968E+03  0.47000000000E+01 0. -1.
        -11    1    3    3    0    0 -0.18545875375E+02  0.36743638583E+02 -0.42492518985E+02  0.59157912737E+02  0.00000000000E+00 0. -1.
         11    1    3    3    0    0  0.13759785170E+03  0.47134789890E+02 -0.14786153107E+03  0.20740754466E+03  0.00000000000E+00 0.  1.
<mgrwt>
<rscale>  0 0.19057920E+03</rscale>
<asrwt>0</asrwt>
<pdfrwt beam="1">  1        2 0.22164364E-01 0.19192168E+03</pdfrwt>
<pdfrwt beam="2">  1       -2 0.48517361E-01 0.19192168E+03</pdfrwt>
<totfact> 0.99940544E+02</totfact>
</mgrwt>
</event>
<event>
 8    1  0.1273312E-005  0.1737795E+03  0.7546771E-02  0.1177596E+00
         -2   -1    0    0    0  501 -0.00000000000E+00  0.00000000000E+00  0.39875087169E+02  0.39875087169E+02  0.00000000000E+00 0.  1.
          2   -1    0    0  501    0  0.00000000000E+00 -0.00000000000E+00 -0.88270243674E+03  0.88270243674E+03  0.00000000000E+00 0. -1.
         23    2    1    2    0    0 -0.33597653774E+02 -0.12830716434E+03 -0.19723517378E+03  0.25400547473E+03  0.89585359622E+02 0.  0.
         23    2    1    2    0    0  0.33597653774E+02  0.12830716434E+03 -0.64559217579E+03  0.66857204918E+03  0.11228444565E+03 0.  0.
          5    1    4    4  502    0  0.63164768441E+02  0.28591484653E+02 -0.24394139075E+03  0.25364690633E+03  0.47000000000E+01 0. -1.
         -5    1    4    4    0  502 -0.29567114667E+02  0.99715679688E+02 -0.40165078504E+03  0.41492514285E+03  0.47000000000E+01 0.  1.
        -11    1    3    3    0    0  0.17717526828E+02 -0.96686125126E+02 -0.13857518357E+03  0.16989761343E+03  0.00000000000E+00 0. -1.
         11    1    3    3    0    0 -0.51315180601E+02 -0.31621039215E+02 -0.58659990207E+02  0.84107861299E+02  0.00000000000E+00 0.  1.
<mgrwt>
<rscale>  0 0.17024139E+03</rscale>
<asrwt>0</asrwt>
<pdfrwt beam="2">  1        2 0.13580036E+00 0.17377954E+03</pdfrwt>
<pdfrwt beam="1">  1       -2 0.61346293E-02 0.17377954E+03</pdfrwt>
<totfact> 0.43903564E+03</totfact>
</mgrwt>
</event>
<event>
 8    1  0.1273312E-005  0.1323352E+03  0.7546771E-02  0.1231475E+00
          1   -1    0    0  501    0  0.00000000000E+00  0.00000000000E+00  0.50010288341E+03  0.50010288341E+03  0.00000000000E+00 0. -1.
         -1   -1    0    0    0  501 -0.00000000000E+00 -0.00000000000E+00 -0.30263422302E+02  0.30263422302E+02  0.00000000000E+00 0.  1.
         23    2    1    2    0    0 -0.31283402901E+02 -0.30153578109E+02  0.22984745456E+03  0.25630652025E+03  0.10476302014E+03 0.  0.
         23    2    1    2    0    0  0.31283402901E+02  0.30153578109E+02  0.23999200655E+03  0.27405978546E+03  0.12499885291E+03 0.  0.
          5    1    4    4  502    0 -0.43593006571E+02  0.34727947756E+02  0.84210696253E+02  0.10109358012E+03  0.47000000000E+01 0. -1.
         -5    1    4    4    0  502  0.74876409471E+02 -0.45743696475E+01  0.15578131030E+03  0.17296620535E+03  0.47000000000E+01 0. -1.
        -11    1    3    3    0    0 -0.69832650784E+02 -0.23854649336E+02  0.16206320166E+03  0.17807336898E+03  0.00000000000E+00 0. -1.
         11    1    3    3    0    0  0.38549247883E+02 -0.62989287721E+01  0.67784252903E+02  0.78233151270E+02  0.00000000000E+00 0.  1.
<mgrwt>
<rscale>  0 0.12732833E+03</rscale>
<asrwt>0</asrwt>
<pdfrwt beam="1">  1        1 0.76938899E-01 0.13233519E+03</pdfrwt>
<pdfrwt beam="2">  1       -1 0.46559115E-02 0.13233519E+03</pdfrwt>
<totfact> 0.84334628E+03</totfact>
</mgrwt>
</event>
<event>
 8    1  0.1273312E-005  0.1540683E+03  0.7546771E-02  0.1204091E+00
          2   -1    0    0  501    0  0.00000000000E+00  0.00000000000E+00  0.25451106230E+03  0.25451106230E+03  0.00000000000E+00 0. -1.
         -2   -1    0    0    0  501 -0.00000000000E+00 -0.00000000000E+00 -0.79150521007E+02  0.79150521007E+02  0.00000000000E+00 0.  1.
         23    2    1    2    0    0 -0.88653182791E+02 -0.15844501652E+02  0.61063522902E+02  0.14182606893E+03  0.90969472618E+02 0.  0.
         23    2    1    2    0    0  0.88653182791E+02  0.15844501652E+02  0.11429701839E+03  0.19183551438E+03  0.12500648427E+03 0.  0.
          5    1    4    4  502    0 -0.54409561374E+01 -0.21711577158E+02 -0.15116302792E+02  0.27415127147E+02  0.47000000000E+01 0.  1.
         -5    1    4    4    0  502  0.94094138928E+02  0.37556078810E+02  0.12941332119E+03  0.16442038723E+03  0.47000000000E+01 0.  1.
        -11    1    3    3    0    0 -0.42512542244E+02  0.36944909317E+02  0.16265726818E+02  0.58624367301E+02  0.00000000000E+00 0.  1.
         11    1    3    3    0    0 -0.46140640547E+02 -0.52789410969E+02  0.44797796085E+02  0.83201701633E+02  0.00000000000E+00 0. -1.
<mgrwt>
<rscale>  0 0.14709361E+03</rscale>
<asrwt>0</asrwt>
<pdfrwt beam="1">  1        2 0.39155548E-01 0.15406835E+03</pdfrwt>
<pdfrwt beam="2">  1       -2 0.12177003E-01 0.15406835E+03</pdfrwt>
<totfact> 0.60713543E+03</totfact>
</mgrwt>
</event>
<event>
 7    1  0.1273312E-005  0.1282672E+03  0.7546771E-02  0.1246849E+00
         -3   -1    0    0    0  501 -0.00000000000E+00  0.00000000000E+00  0.23100964234E+03  0.23100964234E+03  0.00000000000E+00 0.  1.
          3   -1    0    0  501    0  0.00000000000E+00 -0.00000000000E+00 -0.59680036039E+02  0.59680036039E+02  0.00000000000E+00 0. -1.
         23    2    1    2    0    0  0.48965290210E+01  0.49123846657E+00  0.12420953720E+03  0.15404129261E+03  0.90975235015E+02 0.  0.
          5    1    1    2  502    0 -0.33366525217E+02  0.39850801769E+02  0.65504208544E+02  0.83751434279E+02  0.47000000000E+01 0. -1.
         -5    1    1    2    0  502  0.28469996196E+02 -0.40342040236E+02 -0.18384139444E+02  0.52896951489E+02  0.47000000000E+01 0.  1.
        -11    1    3    3    0    0  0.23342656918E+02 -0.40019650938E+02  0.69215246500E+02  0.83289869980E+02  0.00000000000E+00 0.  1.
         11    1    3    3    0    0 -0.18446127897E+02  0.40510889404E+02  0.54994290697E+02  0.70751422629E+02  0.00000000000E+00 0. -1.
<mgrwt>
<rscale>  0 0.11775414E+03</rscale>
<asrwt>0</asrwt>
<pdfrwt beam="2">  1        3 0.91815441E-02 0.12826722E+03</pdfrwt>
<pdfrwt beam="1">  1       -3 0.35539945E-01 0.12826722E+03</pdfrwt>
<totfact> 0.15090231E+03</totfact>
</mgrwt>
</event>
<event>
 7    1  0.1273312E-005  0.1571773E+03  0.7546771E-02  0.1196555E+00
         -2   -1    0    0    0  501 -0.00000000000E+00  0.00000000000E+00  0.29373337259E+02  0.29373337259E+02  0.00000000000E+00 0.  1.
          2   -1    0    0  501    0  0.00000000000E+00 -0.00000000000E+00 -0.77403999790E+03  0.77403999790E+03  0.00000000000E+00 0. -1.
         23    2    1    2    0    0  0.63400050388E+02  0.22678899179E+02 -0.40432159332E+03  0.42852738559E+03  0.12500348205E+03 0.  0.
          5    1    3    3  502    0 -0.33438830162E+02 -0.87547814082E+00 -0.17818592694E+03  0.18135941218E+03  0.47000000000E+01 0.  1.
         -5    1    3    3    0  502  0.96838880550E+02  0.23554377320E+02 -0.22613566637E+03  0.24716797342E+03  0.47000000000E+01 0.  1.
        -11    1    1    2    0    0 -0.10600204400E+03  0.37912749176E+01 -0.24959199324E+03  0.27119544647E+03  0.00000000000E+00 0. -1.
         11    1    1    2    0    0  0.42601993610E+02 -0.26470174097E+02 -0.90753074089E+02  0.10369050310E+03  0.00000000000E+00 0.  1.
<mgrwt>
<rscale>  0 0.15323328E+03</rscale>
<asrwt>0</asrwt>
<pdfrwt beam="2">  1        2 0.11908306E+00 0.15717732E+03</pdfrwt>
<pdfrwt beam="1">  1       -2 0.45189755E-02 0.15717732E+03</pdfrwt>
<totfact> 0.82037791E+03</totfact>
</mgrwt>
</event>
<event>
 8    1  0.1273312E-005  0.1879494E+03  0.7546771E-02  0.1164896E+00
          2   -1    0    0  501    0  0.00000000000E+00  0.00000000000E+00  0.84690708638E+02  0.84690708638E+02  0.00000000000E+00 0.  1.
         -2   -1    0    0    0  501 -0.00000000000E+00 -0.00000000000E+00 -0.38285454647E+03  0.38285454647E+03  0.00000000000E+00 0. -1.
         23    2    1    2    0    0  0.13727243568E+03  0.29292856055E+02 -0.17203350477E+03  0.24119635428E+03  0.94225057932E+02 0.  0.
         23    2    1    2    0    0 -0.13727243568E+03 -0.29292856055E+02 -0.12613033306E+03  0.22634890083E+03  0.12499268369E+03 0.  0.
          5    1    4    4  502    0 -0.11354610997E+02 -0.34342422461E+02 -0.86958495490E+02  0.94298457619E+02  0.47000000000E+01 0. -1.
         -5    1    4    4    0  502 -0.12591782468E+03  0.50495664054E+01 -0.39171837569E+02  0.13205044321E+03  0.47000000000E+01 0. -1.
        -11    1    3    3    0    0  0.14242790724E+03  0.44822154614E+02 -0.16713114205E+03  0.22411504400E+03  0.00000000000E+00 0. -1.
         11    1    3    3    0    0 -0.51554715598E+01 -0.15529298558E+02 -0.49023627229E+01  0.17081310283E+02  0.00000000000E+00 0.  1.
<mgrwt>
<rscale>  0 0.18303693E+03</rscale>
<asrwt>0</asrwt>
<pdfrwt beam="1">  1        2 0.13029340E-01 0.18794937E+03</pdfrwt>
<pdfrwt beam="2">  1       -2 0.58900699E-01 0.18794937E+03</pdfrwt>
<totfact> 0.12536734E+03</totfact>
</mgrwt>
</event>
<event>
 8    1  0.1273312E-005  0.1354968E+03  0.7546771E-02  0.1231250E+00
         -2   -1    0    0    0  501 -0.00000000000E+00  0.00000000000E+00  0.26766207632E+02  0.26766207632E+02  0.00000000000E+00 0.  1.
          2   -1    0    0  501    0  0.00000000000E+00 -0.00000000000E+00 -0.64312544043E+03  0.64312544043E+03  0.00000000000E+00 0. -1.
         23    2    1    2    0    0  0.21241344084E+01 -0.52247588731E+02 -0.14670046287E+03  0.18107803541E+03  0.92379146067E+02 0.  0.
         23    2    1    2    0    0 -0.21241344084E+01  0.52247588731E+02 -0.46965876993E+03  0.48881361265E+03  0.12500026105E+03 0.  0.
          5    1    4    4  502    0  0.49900352663E+02  0.45163953638E+02 -0.36970857518E+03  0.37581424729E+03  0.47000000000E+01 0.  1.
         -5    1    4    4    0  502 -0.52024487071E+02  0.70836350923E+01 -0.99950194757E+02  0.11299936537E+03  0.47000000000E+01 0.  1.
        -11    1    3    3    0    0 -0.28219175400E+02 -0.15076413399E+02 -0.61727459460E+01  0.32584089580E+02  0.00000000000E+00 0.  1.
         11    1    3    3    0    0  0.30343309809E+02 -0.37171175332E+02 -0.14052771692E+03  0.14849394583E+03  0.00000000000E+00 0. -1.
<mgrwt>
<rscale>  0 0.12747610E+03</rscale>
<asrwt>0</asrwt>
<pdfrwt beam="2">  1        2 0.98942367E-01 0.13549682E+03</pdfrwt>
<pdfrwt beam="1">  1       -2 0.41178785E-02 0.13549682E+03</pdfrwt>
<totfact> 0.11655624E+04</totfact>
</mgrwt>
</event>
<event>
 8    1  0.1273312E-005  0.1381108E+03  0.7546771E-02  0.1228770E+00
         -2   -1    0    0    0  501 -0.00000000000E+00  0.00000000000E+00  0.36862077031E+03  0.36862077031E+03  0.00000000000E+00 0.  1.
          2   -1    0    0  501    0  0.00000000000E+00 -0.00000000000E+00 -0.43254494439E+02  0.43254494439E+02  0.00000000000E+00 0. -1.
         23    2    1    2    0    0 -0.53847749118E+02 -0.23487743055E+02  0.88601438336E+02  0.13777274127E+03  0.87634805893E+02 0.  0.
         23    2    1    2    0    0  0.53847749118E+02  0.23487743055E+02  0.23676483754E+03  0.27410252348E+03  0.12499340352E+03 0.  0.
          5    1    4    4  502    0  0.53753043218E+02 -0.22955057903E+02  0.37870933242E+02  0.69804168379E+02  0.47000000000E+01 0.  1.
         -5    1    4    4    0  502  0.94705899985E-01  0.46442800958E+02  0.19889390429E+03  0.20429835510E+03  0.47000000000E+01 0.  1.
        -11    1    3    3    0    0  0.81995455363E+01 -0.94136362956E+01 -0.12917646545E+02  0.17964261398E+02  0.00000000000E+00 0. -1.
         11    1    3    3    0    0 -0.62047294654E+02 -0.14074106760E+02  0.10151908488E+03  0.11980847988E+03  0.00000000000E+00 0.  1.
<mgrwt>
<rscale>  0 0.12911841E+03</rscale>
<asrwt>0</asrwt>
<pdfrwt beam="2">  1        2 0.66545379E-02 0.13811084E+03</pdfrwt>
<pdfrwt beam="1">  1       -2 0.56710886E-01 0.13811084E+03</pdfrwt>
<totfact> 0.30723213E+03</totfact>
</mgrwt>
</event>
<event>
 8    1  0.1273312E-005  0.1677748E+03  0.7546771E-02  0.1187345E+00
          2   -1    0    0  501    0  0.00000000000E+00  0.00000000000E+00  0.15789728366E+03  0.15789728366E+03  0.00000000000E+00 0. -1.
         -2   -1    0    0    0  501 -0.00000000000E+00 -0.00000000000E+00 -0.15663449935E+03  0.15663449935E+03  0.00000000000E+00 0.  1.
         23    2    1    2    0    0 -0.76415105175E+02  0.81762307391E+02 -0.23589798929E+02  0.14492626184E+03  0.89010109249E+02 0.  0.
         23    2    1    2    0    0  0.76415105175E+02 -0.81762307391E+02  0.24852583230E+02  0.16960552117E+03  0.12499615478E+03 0.  0.
          5    1    4    4  502    0 -0.13836207152E+02 -0.35588475155E+02  0.51874589287E+02  0.64583614067E+02  0.47000000000E+01 0.  1.
         -5    1    4    4    0  502  0.90251312327E+02 -0.46173832235E+02 -0.27022006057E+02  0.10502190710E+03  0.47000000000E+01 0.  1.
        -11    1    3    3    0    0 -0.24032394246E+02  0.49856230903E+02  0.30460169014E+02  0.63174533077E+02  0.00000000000E+00 0. -1.
         11    1    3    3    0    0 -0.52382710929E+02  0.31906076487E+02 -0.54049967943E+02  0.81751728763E+02  0.00000000000E+00 0.  1.
<mgrwt>
<rscale>  0 0.16120337E+03</rscale>
<asrwt>0</asrwt>
<pdfrwt beam="1">  1        2 0.24291890E-01 0.16777480E+03</pdfrwt>
<pdfrwt beam="2">  1       -2 0.24097615E-01 0.16777480E+03</pdfrwt>
<totfact> 0.32830769E+03</totfact>
</mgrwt>
</event>
<event>
 8    1  0.1273312E-005  0.1767401E+03  0.7546771E-02  0.1176471E+00
         -2   -1    0    0    0  501 -0.00000000000E+00  0.00000000000E+00  0.18765661743E+02  0.18765661743E+02  0.00000000000E+00 0.  1.
          2   -1    0    0  501    0  0.00000000000E+00 -0.00000000000E+00 -0.19971510675E+04  0.19971510675E+04  0.00000000000E+00 0. -1.
         23    2    1    2    0    0 -0.22493257210E+02 -0.12289921871E+03 -0.42939986154E+03  0.45688072218E+03  0.93517851949E+02 0.  0.
         23    2    1    2    0    0  0.22493257210E+02  0.12289921871E+03 -0.15489855442E+04  0.15590360070E+04  0.12500756190E+03 0.  0.
          5    1    4    4  502    0 -0.50662089070E+02  0.45097225365E+02 -0.71563999157E+03  0.71886236133E+03  0.47000000000E+01 0. -1.
         -5    1    4    4    0  502  0.73155346281E+02  0.77801993345E+02 -0.83334555260E+03  0.84017364568E+03  0.47000000000E+01 0. -1.
        -11    1    3    3    0    0 -0.49737342638E+02 -0.11475281575E+03 -0.31310574183E+03  0.33716052192E+03  0.00000000000E+00 0.  1.
         11    1    3    3    0    0  0.27244085428E+02 -0.81464029630E+01 -0.11629411971E+03  0.11972020026E+03  0.00000000000E+00 0. -1.
<mgrwt>
<rscale>  0 0.17132726E+03</rscale>
<asrwt>0</asrwt>
<pdfrwt beam="2">  1        2 0.30725375E+00 0.17674008E+03</pdfrwt>
<pdfrwt beam="1">  1       -2 0.28870273E-02 0.17674008E+03</pdfrwt>
<totfact> 0.33456586E+03</totfact>
</mgrwt>
</event>
<event>
 7    1  0.1273312E-005  0.3946421E+03  0.7546771E-02  0.1045651E+00
          1   -1    0    0  501    0  0.00000000000E+00  0.00000000000E+00  0.14478083026E+04  0.14478083026E+04  0.00000000000E+00 0. -1.
         -1   -1    0    0    0  501 -0.00000000000E+00 -0.00000000000E+00 -0.26892789455E+02  0.26892789455E+02  0.00000000000E+00 0.  1.
         23    2    1    2    0    0  0.62465872674E+01 -0.12460015984E+03  0.95067132699E+03  0.96693770713E+03  0.12501335063E+03 0.  0.
          5    1    3    3  502    0 -0.10083289693E+02 -0.46165459125E+02  0.83484198009E+02  0.96044904417E+02  0.47000000000E+01 0. -1.
         -5    1    3    3    0  502  0.16329876960E+02 -0.78434700720E+02  0.86718712898E+03  0.87089280272E+03  0.47000000000E+01 0. -1.
        -11    1    1    2    0    0  0.69016664241E+02  0.62060333638E+02  0.25333383547E+03  0.26980144023E+03  0.00000000000E+00 0. -1.
         11    1    1    2    0    0 -0.75263251509E+02  0.62539826207E+02  0.21691035073E+03  0.23796194474E+03  0.00000000000E+00 0.  1.
<mgrwt>
<rscale>  0 0.39464214E+03</rscale>
<asrwt>0</asrwt>
<pdfrwt beam="1">  1        1 0.22273968E+00 0.39464214E+03</pdfrwt>
<pdfrwt beam="2">  1       -1 0.41373534E-02 0.39464214E+03</pdfrwt>
<totfact> 0.18084643E+03</totfact>
</mgrwt>
</event>
<event>
 8    1  0.1273312E-005  0.1365460E+03  0.7546771E-02  0.1229932E+00
          1   -1    0    0  501    0  0.00000000000E+00  0.00000000000E+00  0.11500535154E+04  0.11500535154E+04  0.00000000000E+00 0. -1.
         -1   -1    0    0    0  501 -0.00000000000E+00 -0.00000000000E+00 -0.13382544242E+02  0.13382544242E+02  0.00000000000E+00 0.  1.
         23    2    1    2    0    0  0.51308370728E+02 -0.19679520966E+02  0.38585484798E+03  0.40030457984E+03  0.91323384064E+02 0.  0.
         23    2    1    2    0    0 -0.51308370728E+02  0.19679520966E+02  0.75081612316E+03  0.76313147978E+03  0.12499988877E+03 0.  0.
          5    1    4    4  502    0  0.34385142979E+02  0.64444952429E+01  0.90670657142E+02  0.97299165686E+02  0.47000000000E+01 0. -1.
         -5    1    4    4    0  502 -0.85693513707E+02  0.13235025723E+02  0.66014546602E+03  0.66583231410E+03  0.47000000000E+01 0. -1.
        -11    1    3    3    0    0  0.34006942177E+00 -0.46921395845E+02  0.13648412295E+03  0.14432480332E+03  0.00000000000E+00 0.  1.
         11    1    3    3    0    0  0.50968301306E+02  0.27241874879E+02  0.24937072504E+03  0.25597977653E+03  0.00000000000E+00 0. -1.
<mgrwt>
<rscale>  0 0.12834545E+03</rscale>
<asrwt>0</asrwt>
<pdfrwt beam="1">  1        1 0.17693123E+00 0.13654598E+03</pdfrwt>
<pdfrwt beam="2">  1       -1 0.20588539E-02 0.13654598E+03</pdfrwt>
<totfact> 0.79272375E+03</totfact>
</mgrwt>
</event>
<event>
 8    1  0.1273312E-005  0.1324187E+03  0.7546771E-02  0.1236358E+00
         -1   -1    0    0    0  501 -0.00000000000E+00  0.00000000000E+00  0.87600318391E+02  0.87600318391E+02  0.00000000000E+00 0.  1.
          1   -1    0    0  501    0  0.00000000000E+00 -0.00000000000E+00 -0.16767849449E+03  0.16767849449E+03  0.00000000000E+00 0. -1.
         23    2    1    2    0    0 -0.38263443890E+02  0.20900702986E+02 -0.38396178848E+01  0.10248143996E+03  0.92664838784E+02 0.  0.
         23    2    1    2    0    0  0.38263443890E+02 -0.20900702986E+02 -0.76238558212E+02  0.15279737292E+03  0.12503515062E+03 0.  0.
          5    1    4    4  502    0  0.38563527578E+02  0.25320274773E+02 -0.92582237086E+02  0.10354623411E+03  0.47000000000E+01 0.  1.
         -5    1    4    4    0  502 -0.30008368871E+00 -0.46220977759E+02  0.16343678874E+02  0.49251138813E+02  0.47000000000E+01 0.  1.
        -11    1    3    3    0    0  0.10359150222E+02 -0.49344214333E+01 -0.36638082479E+02  0.38392832612E+02  0.00000000000E+00 0. -1.
         11    1    3    3    0    0 -0.48622594112E+02  0.25835124420E+02  0.32798464594E+02  0.64088607347E+02  0.00000000000E+00 0.  1.
<mgrwt>
<rscale>  0 0.12417870E+03</rscale>
<asrwt>0</asrwt>
<pdfrwt beam="2">  1        1 0.25796691E-01 0.13241873E+03</pdfrwt>
<pdfrwt beam="1">  1       -1 0.13476972E-01 0.13241873E+03</pdfrwt>
<totfact> 0.66426610E+03</totfact>
</mgrwt>
</event>
<event>
 8    1  0.1273312E-005  0.1539107E+03  0.7546771E-02  0.1202778E+00
         -2   -1    0    0    0  501 -0.00000000000E+00  0.00000000000E+00  0.19713926067E+02  0.19713926067E+02  0.00000000000E+00 0.  1.
          2   -1    0    0  501    0  0.00000000000E+00 -0.00000000000E+00 -0.10623952319E+04  0.10623952319E+04  0.00000000000E+00 0. -1.
         23    2    1    2    0    0 -0.71272503498E+02  0.65679325837E+02 -0.39958098506E+03  0.42084783330E+03  0.89746262186E+02 0.  0.
         23    2    1    2    0    0  0.71272503498E+02 -0.65679325837E+02 -0.64310032074E+03  0.66126132463E+03  0.11956158798E+03 0.  0.
          5    1    4    4  502    0  0.26440900616E+02 -0.48521795864E+02 -0.57578782955E+03  0.57845241858E+03  0.47000000000E+01 0. -1.
         -5    1    4    4    0  502  0.44831602881E+02 -0.17157529973E+02 -0.67312491184E+02  0.82808906049E+02  0.47000000000E+01 0.  1.
        -11    1    3    3    0    0 -0.68305790455E+02  0.82963877844E+02 -0.37832093640E+03  0.39328795679E+03  0.00000000000E+00 0. -1.
         11    1    3    3    0    0 -0.29667130424E+01 -0.17284552007E+02 -0.21260048655E+02  0.27559876508E+02  0.00000000000E+00 0.  1.
<mgrwt>
<rscale>  0 0.14813910E+03</rscale>
<asrwt>0</asrwt>
<pdfrwt beam="2">  1        2 0.16344542E+00 0.15391074E+03</pdfrwt>
<pdfrwt beam="1">  1       -2 0.30329116E-02 0.15391074E+03</pdfrwt>
<totfact> 0.97497716E+03</totfact>
</mgrwt>
</event>
<event>
 8    1  0.1273312E-005  0.1313952E+03  0.7546771E-02  0.1238909E+00
          2   -1    0    0  501    0  0.00000000000E+00  0.00000000000E+00  0.10275187422E+04  0.10275187422E+04  0.00000000000E+00 0.  1.
         -2   -1    0    0    0  501 -0.00000000000E+00 -0.00000000000E+00 -0.20472714410E+02  0.20472714410E+02  0.00000000000E+00 0. -1.
         23    2    1    2    0    0  0.34247183548E+02 -0.21571790075E+02  0.14422254365E+03  0.17522053910E+03  0.90905904743E+02 0.  0.
         23    2    1    2    0    0 -0.34247183548E+02  0.21571790075E+02  0.86282348411E+03  0.87277091748E+03  0.12500599169E+03 0.  0.
          5    1    4    4  502    0 -0.20032501803E+02 -0.30468941262E+02  0.79633938533E+02  0.87711525334E+02  0.47000000000E+01 0. -1.
         -5    1    4    4    0  502 -0.14214681745E+02  0.52040731337E+02  0.78318954558E+03  0.78505939214E+03  0.47000000000E+01 0. -1.
        -11    1    3    3    0    0 -0.30477873724E+02  0.14950866658E+01  0.50597173265E+02  0.59086462183E+02  0.00000000000E+00 0.  1.
         11    1    3    3    0    0  0.64725057272E+02 -0.23066876741E+02  0.93625370380E+02  0.11613407691E+03  0.00000000000E+00 0. -1.
<mgrwt>
<rscale>  0 0.12257464E+03</rscale>
<asrwt>0</asrwt>
<pdfrwt beam="1">  1        2 0.15807977E+00 0.13139524E+03</pdfrwt>
<pdfrwt beam="2">  1       -2 0.31496492E-02 0.13139524E+03</pdfrwt>
<totfact> 0.95878704E+03</totfact>
</mgrwt>
</event>
<event>
 8    1  0.1273312E-005  0.1301197E+03  0.7546771E-02  0.1239962E+00
          1   -1    0    0  501    0  0.00000000000E+00  0.00000000000E+00  0.12644617720E+03  0.12644617720E+03  0.00000000000E+00 0. -1.
         -1   -1    0    0    0  501 -0.00000000000E+00 -0.00000000000E+00 -0.10641888273E+03  0.10641888273E+03  0.00000000000E+00 0.  1.
         23    2    1    2    0    0 -0.32952604979E+02 -0.14733846106E+02 -0.47507930011E+01  0.10040713484E+03  0.93573833398E+02 0.  0.
         23    2    1    2    0    0  0.32952604979E+02  0.14733846106E+02  0.24778087476E+02  0.13245792509E+03  0.12501275097E+03 0.  0.
          5    1    4    4  502    0  0.45842975542E+02  0.64994566431E+01 -0.42668664229E+02  0.63138944007E+02  0.47000000000E+01 0. -1.
         -5    1    4    4    0  502 -0.12890370563E+02  0.82343894626E+01  0.67446751704E+02  0.69318981084E+02  0.47000000000E+01 0. -1.
        -11    1    3    3    0    0 -0.91747964604E+01  0.71255684958E+01 -0.46325839655E+02  0.47760172071E+02  0.00000000000E+00 0.  1.
         11    1    3    3    0    0 -0.23777808519E+02 -0.21859414601E+02  0.41575046654E+02  0.52646962770E+02  0.00000000000E+00 0. -1.
<mgrwt>
<rscale>  0 0.12192054E+03</rscale>
<asrwt>0</asrwt>
<pdfrwt beam="1">  1        1 0.19453258E-01 0.13011975E+03</pdfrwt>
<pdfrwt beam="2">  1       -1 0.16372136E-01 0.13011975E+03</pdfrwt>
<totfact> 0.69852491E+03</totfact>
</mgrwt>
</event>
<event>
 8    1  0.1273312E-005  0.1415137E+03  0.7546771E-02  0.1223418E+00
          1   -1    0    0  501    0  0.00000000000E+00  0.00000000000E+00  0.69819174601E+03  0.69819174601E+03  0.00000000000E+00 0. -1.
         -1   -1    0    0    0  501 -0.00000000000E+00 -0.00000000000E+00 -0.34440507983E+02  0.34440507983E+02  0.00000000000E+00 0.  1.
         23    2    1    2    0    0  0.42379366558E+02  0.51034237425E+02  0.90422510800E+02  0.14209693878E+03  0.87262852639E+02 0.  0.
         23    2    1    2    0    0 -0.42379366558E+02 -0.51034237425E+02  0.57332872723E+03  0.59053531522E+03  0.12500249980E+03 0.  0.
          5    1    4    4  502    0 -0.51636482507E+02 -0.56279238874E+02  0.57381359436E+03  0.57889360864E+03  0.47000000000E+01 0.  1.
         -5    1    4    4    0  502  0.92571159494E+01  0.52450014487E+01 -0.48486713123E+00  0.11641706577E+02  0.47000000000E+01 0.  1.
        -11    1    3    3    0    0 -0.10282856245E+02 -0.18885395886E+02  0.12305239844E+02  0.24775274730E+02  0.00000000000E+00 0.  1.
         11    1    3    3    0    0  0.52662222803E+02  0.69919633311E+02  0.78117270956E+02  0.11732166405E+03  0.00000000000E+00 0. -1.
<mgrwt>
<rscale>  0 0.13275954E+03</rscale>
<asrwt>0</asrwt>
<pdfrwt beam="1">  1        1 0.10741410E+00 0.14151371E+03</pdfrwt>
<pdfrwt beam="2">  1       -1 0.52985402E-02 0.14151371E+03</pdfrwt>
<totfact> 0.44411305E+03</totfact>
</mgrwt>
</event>
<event>
 8    1  0.1273312E-005  0.1374065E+03  0.7546771E-02  0.1228677E+00
          1   -1    0    0  501    0  0.00000000000E+00  0.00000000000E+00  0.94612070351E+03  0.94612070351E+03  0.00000000000E+00 0. -1.
         -1   -1    0    0    0  501 -0.00000000000E+00 -0.00000000000E+00 -0.18324606811E+02  0.18324606811E+02  0.00000000000E+00 0.  1.
         23    2    1    2    0    0  0.14852721126E+02  0.55092049021E+02  0.23784155096E+03  0.26094134376E+03  0.90917788840E+02 0.  0.
         23    2    1    2    0    0 -0.14852721126E+02 -0.55092049021E+02  0.68995454573E+03  0.70350396656E+03  0.12499927439E+03 0.  0.
          5    1    4    4  502    0  0.15738185115E+01 -0.14186194818E+02  0.62313580538E+03  0.62331697151E+03  0.47000000000E+01 0.  1.
         -5    1    4    4    0  502 -0.16426539637E+02 -0.40905854202E+02  0.66818740353E+02  0.80186995048E+02  0.47000000000E+01 0.  1.
        -11    1    3    3    0    0  0.50174670734E+02  0.13078584917E+02  0.10180815016E+03  0.11425168010E+03  0.00000000000E+00 0. -1.
         11    1    3    3    0    0 -0.35321949608E+02  0.42013464104E+02  0.13603340080E+03  0.14668966366E+03  0.00000000000E+00 0.  1.
<mgrwt>
<rscale>  0 0.12918006E+03</rscale>
<asrwt>0</asrwt>
<pdfrwt beam="1">  1        1 0.14555699E+00 0.13740653E+03</pdfrwt>
<pdfrwt beam="2">  1       -1 0.28191710E-02 0.13740653E+03</pdfrwt>
<totfact> 0.70504050E+03</totfact>
</mgrwt>
</event>
<event>
 8    1  0.1273312E-005  0.1282266E+03  0.7546771E-02  0.1244230E+00
          1   -1    0    0  501    0  0.00000000000E+00  0.00000000000E+00  0.10559072661E+04  0.10559072661E+04  0.00000000000E+00 0. -1.
         -1   -1    0    0    0  501 -0.00000000000E+00 -0.00000000000E+00 -0.14597025400E+02  0.14597025400E+02  0.00000000000E+00 0.  1.
         23    2    1    2    0    0  0.24725927910E+02 -0.14361823069E+02  0.23244823130E+03  0.25154164072E+03  0.91778991637E+02 0.  0.
         23    2    1    2    0    0 -0.24725927910E+02  0.14361823069E+02  0.80886200939E+03  0.81896265078E+03  0.12499775861E+03 0.  0.
          5    1    4    4  502    0 -0.22203257393E+02 -0.40006900175E+02  0.12983498468E+03  0.13774160572E+03  0.47000000000E+01 0.  1.
         -5    1    4    4    0  502 -0.25226705178E+01  0.54368723244E+02  0.67902702471E+03  0.68122104506E+03  0.47000000000E+01 0.  1.
        -11    1    3    3    0    0  0.38136686130E+02 -0.27858928442E+02  0.22684162885E+03  0.23170595871E+03  0.00000000000E+00 0. -1.
         11    1    3    3    0    0 -0.13410758220E+02  0.13497105373E+02  0.56066024492E+01  0.19835682003E+02  0.00000000000E+00 0.  1.
<mgrwt>
<rscale>  0 0.11931600E+03</rscale>
<asrwt>0</asrwt>
<pdfrwt beam="1">  1        1 0.16244721E+00 0.12822665E+03</pdfrwt>
<pdfrwt beam="2">  1       -1 0.22456970E-02 0.12822665E+03</pdfrwt>
<totfact> 0.81189953E+03</totfact>
</mgrwt>
</event>
<event>
 8    1  0.1273312E-005  0.1287226E+03  0.7546771E-02  0.1242610E+00
         -1   -1    0    0    0  501 -0.00000000000E+00  0.00000000000E+00  0.10476714971E+03  0.10476714971E+03  0.00000000000E+00 0.  1.
          1   -1    0    0  501    0  0.00000000000E+00 -0.00000000000E+00 -0.13383367187E+03  0.13383367187E+03  0.00000000000E+00 0. -1.
         23    2    1    2    0    0  0.17233965518E+02  0.25414413092E+02  0.21139493663E+02  0.10043374751E+03  0.93258551814E+02 0.  0.
         23    2    1    2    0    0 -0.17233965518E+02 -0.25414413092E+02 -0.50206015824E+02  0.13816707406E+03  0.12500637732E+03 0.  0.
          5    1    4    4  502    0 -0.34416702465E+02  0.60549347351E+01 -0.82478210342E+02  0.89699034691E+02  0.47000000000E+01 0. -1.
         -5    1    4    4    0  502  0.17182736946E+02 -0.31469347827E+02  0.32272194518E+02  0.48468039373E+02  0.47000000000E+01 0. -1.
        -11    1    3    3    0    0  0.15223168310E+02  0.60411237109E+02  0.19735903508E+02  0.65351115597E+02  0.00000000000E+00 0.  1.
         11    1    3    3    0    0  0.20107972081E+01 -0.34996824017E+02  0.14035901547E+01  0.35082631914E+02  0.00000000000E+00 0. -1.
<mgrwt>
<rscale>  0 0.12029594E+03</rscale>
<asrwt>0</asrwt>
<pdfrwt beam="2">  1        1 0.20589796E-01 0.12872256E+03</pdfrwt>
<pdfrwt beam="1">  1       -1 0.16118023E-01 0.12872256E+03</pdfrwt>
<totfact> 0.66564027E+03</totfact>
</mgrwt>
</event>
<event>
 8    1  0.1273312E-005  0.1262116E+03  0.7546771E-02  0.1249314E+00
         -2   -1    0    0    0  501 -0.00000000000E+00  0.00000000000E+00  0.29655308352E+02  0.29655308352E+02  0.00000000000E+00 0.  1.
          2   -1    0    0  501    0  0.00000000000E+00 -0.00000000000E+00 -0.40666312635E+03  0.40666312635E+03  0.00000000000E+00 0. -1.
         23    2    1    2    0    0 -0.13215015898E+02  0.11370307839E+02 -0.12688508061E+03  0.15615642448E+03  0.89336916669E+02 0.  0.
         23    2    1    2    0    0  0.13215015898E+02 -0.11370307839E+02 -0.25012273739E+03  0.28016201022E+03  0.12500179065E+03 0.  0.
          5    1    4    4  502    0 -0.91960531469E+01 -0.13674725236E+02 -0.25586821167E+03  0.25644141094E+03  0.47000000000E+01 0.  1.
         -5    1    4    4    0  502  0.22411069045E+02  0.23044173962E+01  0.57454742825E+01  0.23720599276E+02  0.47000000000E+01 0.  1.
        -11    1    3    3    0    0 -0.41037931137E+02  0.31679194938E+02 -0.99327839250E+02  0.11204330785E+03  0.00000000000E+00 0. -1.
         11    1    3    3    0    0  0.27822915239E+02 -0.20308887099E+02 -0.27557241358E+02  0.44113116630E+02  0.00000000000E+00 0.  1.
<mgrwt>
<rscale>  0 0.11630839E+03</rscale>
<asrwt>0</asrwt>
<pdfrwt beam="2">  1        2 0.62563559E-01 0.12621160E+03</pdfrwt>
<pdfrwt beam="1">  1       -2 0.45623550E-02 0.12621160E+03</pdfrwt>
<totfact> 0.16506412E+04</totfact>
</mgrwt>
</event>
<event>
 7    1  0.1273312E-005  0.3707539E+03  0.7546771E-02  0.1054405E+00
          2   -1    0    0  501    0  0.00000000000E+00  0.00000000000E+00  0.37191677589E+03  0.37191677589E+03  0.00000000000E+00 0.  1.
         -2   -1    0    0    0  501 -0.00000000000E+00 -0.00000000000E+00 -0.92398643987E+02  0.92398643987E+02  0.00000000000E+00 0. -1.
         23    2    1    2    0    0  0.11060279288E+02  0.41858138050E+02  0.20291884964E+03  0.24222854005E+03  0.12499669026E+03 0.  0.
          5    1    3    3  502    0 -0.28940345323E+02  0.43812723053E+02  0.19386014715E+03  0.20090033585E+03  0.47000000000E+01 0. -1.
         -5    1    3    3    0  502  0.40000624612E+02 -0.19545850032E+01  0.90587024892E+01  0.41328204203E+02  0.47000000000E+01 0. -1.
        -11    1    1    2    0    0  0.33702882773E+02  0.42789462444E+02 -0.42629452702E+02  0.69167135557E+02  0.00000000000E+00 0. -1.
         11    1    1    2    0    0 -0.44763162061E+02 -0.84647600494E+02  0.11922873496E+03  0.15291974427E+03  0.00000000000E+00 0.  1.
<mgrwt>
<rscale>  0 0.37075386E+03</rscale>
<asrwt>0</asrwt>
<pdfrwt beam="1">  1        2 0.57217965E-01 0.37075386E+03</pdfrwt>
<pdfrwt beam="2">  1       -2 0.14215176E-01 0.37075386E+03</pdfrwt>
<totfact> 0.32525886E+03</totfact>
</mgrwt>
</event>
<event>
 8    1  0.1273312E-005  0.1475763E+03  0.7546771E-02  0.1212505E+00
         -1   -1    0    0    0  501 -0.00000000000E+00  0.00000000000E+00  0.41390436073E+02  0.41390436073E+02  0.00000000000E+00 0.  1.
          1   -1    0    0  501    0  0.00000000000E+00 -0.00000000000E+00 -0.43990212143E+03  0.43990212143E+03  0.00000000000E+00 0. -1.
         23    2    1    2    0    0  0.17189055430E+02 -0.76542925025E+02 -0.16341074736E+03  0.20371156932E+03  0.92957238163E+02 0.  0.
         23    2    1    2    0    0 -0.17189055430E+02  0.76542925025E+02 -0.23510093800E+03  0.27758098818E+03  0.12499788379E+03 0.  0.
          5    1    4    4  502    0  0.39497600757E+01  0.10865379084E+03 -0.17143262542E+03  0.20305782902E+03  0.47000000000E+01 0.  1.
         -5    1    4    4    0  502 -0.21138815505E+02 -0.32110865811E+02 -0.63668312579E+02  0.74523159157E+02  0.47000000000E+01 0.  1.
        -11    1    3    3    0    0  0.49584232769E+02 -0.20356330787E+02 -0.97377986429E+02  0.11115506549E+03  0.00000000000E+00 0. -1.
         11    1    3    3    0    0 -0.32395177339E+02 -0.56186594238E+02 -0.66032760927E+02  0.92556503837E+02  0.00000000000E+00 0.  1.
<mgrwt>
<rscale>  0 0.14061381E+03</rscale>
<asrwt>0</asrwt>
<pdfrwt beam="2">  1        1 0.67677249E-01 0.14757626E+03</pdfrwt>
<pdfrwt beam="1">  1       -1 0.63677595E-02 0.14757626E+03</pdfrwt>
<totfact> 0.62927533E+03</totfact>
</mgrwt>
</event>
<event>
 8    1  0.1273312E-005  0.1869098E+03  0.7546771E-02  0.1166255E+00
         -1   -1    0    0    0  501 -0.00000000000E+00  0.00000000000E+00  0.94525779494E+02  0.94525779494E+02  0.00000000000E+00 0.  1.
          1   -1    0    0  501    0  0.00000000000E+00 -0.00000000000E+00 -0.33783631884E+03  0.33783631884E+03  0.00000000000E+00 0. -1.
         23    2    1    2    0    0  0.12047241631E+03 -0.69263258024E+02 -0.83010769328E+02  0.18612791122E+03  0.91879320346E+02 0.  0.
         23    2    1    2    0    0 -0.12047241631E+03  0.69263258024E+02 -0.16029977002E+03  0.24623418712E+03  0.12499702650E+03 0.  0.
          5    1    4    4  502    0 -0.23318176430E+02  0.60729756908E+02 -0.85430016784E+01  0.65779279441E+02  0.47000000000E+01 0.  1.
         -5    1    4    4    0  502 -0.97154239876E+02  0.85335011154E+01 -0.15175676834E+03  0.18045490768E+03  0.47000000000E+01 0.  1.
        -11    1    3    3    0    0  0.25898991927E+02  0.62361838317E+01 -0.56179514524E+02  0.62175442289E+02  0.00000000000E+00 0. -1.
         11    1    3    3    0    0  0.94573424378E+02 -0.75499441855E+02 -0.26831254804E+02  0.12395246893E+03  0.00000000000E+00 0.  1.
<mgrwt>
<rscale>  0 0.18160900E+03</rscale>
<asrwt>0</asrwt>
<pdfrwt beam="2">  1        1 0.51974818E-01 0.18690976E+03</pdfrwt>
<pdfrwt beam="1">  1       -1 0.14542428E-01 0.18690976E+03</pdfrwt>
<totfact> 0.25062268E+03</totfact>
</mgrwt>
</event>
<event>
 8    1  0.1273312E-005  0.1377992E+03  0.7546771E-02  0.1226017E+00
         -2   -1    0    0    0  501 -0.00000000000E+00  0.00000000000E+00  0.22945427733E+02  0.22945427733E+02  0.00000000000E+00 0.  1.
          2   -1    0    0  501    0  0.00000000000E+00 -0.00000000000E+00 -0.10888090521E+04  0.10888090521E+04  0.00000000000E+00 0. -1.
         23    2    1    2    0    0  0.42165349504E+02  0.39814754856E+02 -0.16058753341E+03  0.19605070249E+03  0.96355542953E+02 0.  0.
         23    2    1    2    0    0 -0.42165349504E+02 -0.39814754856E+02 -0.90527609091E+03  0.91570377729E+03  0.12500190229E+03 0.  0.
          5    1    4    4  502    0  0.39770148413E+02 -0.25142004399E+02 -0.19983064107E+03  0.20534887436E+03  0.47000000000E+01 0.  1.
         -5    1    4    4    0  502 -0.81935497917E+02 -0.14672750457E+02 -0.70544544984E+03  0.71035490294E+03  0.47000000000E+01 0.  1.
        -11    1    3    3    0    0  0.63261532356E+02 -0.26244184276E+01 -0.10854606253E+03  0.12566286937E+03  0.00000000000E+00 0. -1.
         11    1    3    3    0    0 -0.21096182852E+02  0.42439173284E+02 -0.52041470881E+02  0.70387833120E+02  0.00000000000E+00 0.  1.
<mgrwt>
<rscale>  0 0.13097415E+03</rscale>
<asrwt>0</asrwt>
<pdfrwt beam="2">  1        2 0.16750911E+00 0.13779915E+03</pdfrwt>
<pdfrwt beam="1">  1       -2 0.35300653E-02 0.13779915E+03</pdfrwt>
<totfact> 0.74822693E+03</totfact>
</mgrwt>
</event>
<event>
 8    1  0.1273312E-005  0.2200020E+03  0.7546771E-02  0.1137390E+00
         -2   -1    0    0    0  501 -0.00000000000E+00  0.00000000000E+00  0.28617018725E+02  0.28617018725E+02  0.00000000000E+00 0. -1.
          2   -1    0    0  501    0  0.00000000000E+00 -0.00000000000E+00 -0.25154188680E+04  0.25154188680E+04  0.00000000000E+00 0.  1.
         23    2    1    2    0    0  0.10792499719E+03 -0.14536028815E+03 -0.42542745967E+03  0.47095478880E+03  0.89624055139E+02 0.  0.
         23    2    1    2    0    0 -0.10792499719E+03  0.14536028815E+03 -0.20613743896E+04  0.20730810979E+04  0.12499378417E+03 0.  0.
          5    1    4    4  502    0  0.86456803699E+01 -0.14319629132E+02 -0.32845115284E+03  0.32891039717E+03  0.47000000000E+01 0. -1.
         -5    1    4    4    0  502 -0.11657067756E+03  0.15967991728E+03 -0.17329232368E+04  0.17441707008E+04  0.47000000000E+01 0. -1.
        -11    1    3    3    0    0  0.33478400634E+02 -0.48477584701E+02 -0.53893396442E+02  0.79845962375E+02  0.00000000000E+00 0. -1.
         11    1    3    3    0    0  0.74446596553E+02 -0.96882703450E+02 -0.37153406323E+03  0.39110882642E+03  0.00000000000E+00 0.  1.
<mgrwt>
<rscale>  0 0.21536027E+03</rscale>
<asrwt>0</asrwt>
<pdfrwt beam="2">  1        2 0.38698763E+00 0.22000196E+03</pdfrwt>
<pdfrwt beam="1">  1       -2 0.44026170E-02 0.22000196E+03</pdfrwt>
<totfact> 0.94313494E+02</totfact>
</mgrwt>
</event>
<event>
 8    1  0.1273312E-005  0.2763750E+03  0.7546771E-02  0.1099498E+00
          2   -1    0    0  501    0  0.00000000000E+00  0.00000000000E+00  0.18529283530E+04  0.18529283530E+04  0.00000000000E+00 0. -1.
         -2   -1    0    0    0  501 -0.00000000000E+00 -0.00000000000E+00 -0.56389411129E+02  0.56389411129E+02  0.00000000000E+00 0.  1.
         23    2    1    2    0    0 -0.20385004606E+02 -0.24564522540E+03  0.35876841357E+03  0.44522513433E+03  0.93560250612E+02 0.  0.
         23    2    1    2    0    0  0.20385004606E+02  0.24564522540E+03  0.14377705283E+04  0.14640926298E+04  0.12500404546E+03 0.  0.
          5    1    4    4  502    0 -0.17043409001E+02  0.85899297911E+02  0.24793075723E+03  0.26298463368E+03  0.47000000000E+01 0.  1.
         -5    1    4    4    0  502  0.37428413607E+02  0.15974592749E+03  0.11898397710E+04  0.12011079961E+04  0.47000000000E+01 0.  1.
        -11    1    3    3    0    0 -0.33725629283E+02 -0.14197995369E+03  0.13746153010E+03  0.20047792292E+03  0.00000000000E+00 0.  1.
         11    1    3    3    0    0  0.13340624677E+02 -0.10366527171E+03  0.22130688346E+03  0.24474721141E+03  0.00000000000E+00 0. -1.
<mgrwt>
<rscale>  0 0.27313696E+03</rscale>
<asrwt>0</asrwt>
<pdfrwt beam="1">  1        2 0.28506585E+00 0.27637499E+03</pdfrwt>
<pdfrwt beam="2">  1       -2 0.86752954E-02 0.27637499E+03</pdfrwt>
<totfact> 0.73902723E+02</totfact>
</mgrwt>
</event>
<event>
 8    1  0.1273312E-005  0.1178272E+03  0.7546771E-02  0.1259153E+00
         -1   -1    0    0    0  501 -0.00000000000E+00  0.00000000000E+00  0.35638154131E+02  0.35638154131E+02  0.00000000000E+00 0.  1.
          1   -1    0    0  501    0  0.00000000000E+00 -0.00000000000E+00 -0.40056977892E+03  0.40056977892E+03  0.00000000000E+00 0. -1.
         23    2    1    2    0    0 -0.36985673598E+01  0.16928083520E+01 -0.61461947468E+02  0.11066671592E+03  0.91940230727E+02 0.  0.
         23    2    1    2    0    0  0.36985673598E+01 -0.16928083520E+01 -0.30346967732E+03  0.32554121713E+03  0.11775692759E+03 0.  0.
          5    1    4    4  502    0 -0.32794667718E+01 -0.32808859561E+02 -0.17241536033E+02  0.37503822909E+02  0.47000000000E+01 0. -1.
         -5    1    4    4    0  502  0.69780341316E+01  0.31116051209E+02 -0.28622814129E+03  0.28803739422E+03  0.47000000000E+01 0.  1.
        -11    1    3    3    0    0  0.33501550590E+02 -0.28050254065E+02 -0.22586173954E+02  0.49186440194E+02  0.00000000000E+00 0. -1.
         11    1    3    3    0    0 -0.37200117950E+02  0.29743062417E+02 -0.38875773514E+02  0.61480275729E+02  0.00000000000E+00 0.  1.
<mgrwt>
<rscale>  0 0.11076858E+03</rscale>
<asrwt>0</asrwt>
<pdfrwt beam="2">  1        1 0.61626114E-01 0.11782716E+03</pdfrwt>
<pdfrwt beam="1">  1       -1 0.54827935E-02 0.11782716E+03</pdfrwt>
<totfact> 0.87231222E+03</totfact>
</mgrwt>
</event>
<event>
 8    1  0.1273312E-005  0.1512417E+03  0.7546771E-02  0.1207596E+00
         -2   -1    0    0    0  501 -0.00000000000E+00  0.00000000000E+00  0.12688750993E+02  0.12688750993E+02  0.00000000000E+00 0.  1.
          2   -1    0    0  501    0  0.00000000000E+00 -0.00000000000E+00 -0.15414568037E+04  0.15414568037E+04  0.00000000000E+00 0. -1.
         23    2    1    2    0    0  0.74601119541E+02  0.41035372309E+02 -0.58225643770E+03  0.59562675378E+03  0.92192416992E+02 0.  0.
         23    2    1    2    0    0 -0.74601119541E+02 -0.41035372309E+02 -0.94651161505E+03  0.95851880096E+03  0.12499930222E+03 0.  0.
          5    1    4    4  502    0 -0.72217578630E+02 -0.37186202836E+02 -0.27041716766E+03  0.28239285916E+03  0.47000000000E+01 0. -1.
         -5    1    4    4    0  502 -0.23835409111E+01 -0.38491694733E+01 -0.67609444739E+03  0.67612594179E+03  0.47000000000E+01 0. -1.
        -11    1    3    3    0    0 -0.48756442432E+01  0.39348006363E+02 -0.11467398609E+03  0.12133491087E+03  0.00000000000E+00 0.  1.
         11    1    3    3    0    0  0.79476763784E+02  0.16873659455E+01 -0.46758245162E+03  0.47429184291E+03  0.00000000000E+00 0. -1.
<mgrwt>
<rscale>  0 0.14434747E+03</rscale>
<asrwt>0</asrwt>
<pdfrwt beam="2">  1        2 0.23714708E+00 0.15124171E+03</pdfrwt>
<pdfrwt beam="1">  1       -2 0.19521165E-02 0.15124171E+03</pdfrwt>
<totfact> 0.10177685E+04</totfact>
</mgrwt>
</event>
<event>
 8    1  0.1273312E-005  0.1497348E+03  0.7546771E-02  0.1210680E+00
         -2   -1    0    0    0  501 -0.00000000000E+00  0.00000000000E+00  0.25090825127E+02  0.25090825127E+02  0.00000000000E+00 0. -1.
          2   -1    0    0  501    0  0.00000000000E+00 -0.00000000000E+00 -0.11840717907E+04  0.11840717907E+04  0.00000000000E+00 0.  1.
         23    2    1    2    0    0 -0.62830722866E+02 -0.53359775079E+02 -0.16881539344E+03  0.20773944774E+03  0.88668346952E+02 0.  0.
         23    2    1    2    0    0  0.62830722866E+02  0.53359775079E+02 -0.99016557212E+03  0.10014231681E+04  0.12500214405E+03 0.  0.
          5    1    4    4  502    0  0.97328647158E+02  0.51177023624E+02 -0.62710262137E+03  0.63668810342E+03  0.47000000000E+01 0. -1.
         -5    1    4    4    0  502 -0.34497924292E+02  0.21827514548E+01 -0.36306295075E+03  0.36473506466E+03  0.47000000000E+01 0. -1.
        -11    1    3    3    0    0 -0.31965584894E+02 -0.26913821012E+02 -0.16101933294E+03  0.16635317238E+03  0.00000000000E+00 0.  1.
         11    1    3    3    0    0 -0.30865137972E+02 -0.26445954067E+02 -0.77960604944E+01  0.41386275355E+02  0.00000000000E+00 0. -1.
<mgrwt>
<rscale>  0 0.14198674E+03</rscale>
<asrwt>0</asrwt>
<pdfrwt beam="2">  1        2 0.18216487E+00 0.14973477E+03</pdfrwt>
<pdfrwt beam="1">  1       -2 0.38601274E-02 0.14973477E+03</pdfrwt>
<totfact> 0.58066297E+03</totfact>
</mgrwt>
</event>
<event>
 8    1  0.1273312E-005  0.1325874E+03  0.7546771E-02  0.1230672E+00
         -4   -1    0    0    0  501 -0.00000000000E+00  0.00000000000E+00  0.40265480830E+02  0.40265480830E+02  0.00000000000E+00 0.  1.
          4   -1    0    0  501    0  0.00000000000E+00 -0.00000000000E+00 -0.37953867153E+03  0.37953867153E+03  0.00000000000E+00 0. -1.
         23    2    1    2    0    0  0.47479568007E+02 -0.49021378240E+02 -0.15592974623E+03  0.19354273783E+03  0.92126547215E+02 0.  0.
         23    2    1    2    0    0 -0.47479568007E+02  0.49021378240E+02 -0.18334344447E+03  0.22626141454E+03  0.11367499363E+03 0.  0.
          5    1    4    4  502    0 -0.47256218797E+02  0.24669713112E+02 -0.14278519425E+02  0.55386921534E+02  0.47000000000E+01 0. -1.
         -5    1    4    4    0  502 -0.22334920945E+00  0.24351665127E+02 -0.16906492504E+03  0.17087449300E+03  0.47000000000E+01 0.  1.
        -11    1    3    3    0    0  0.37384136169E+02 -0.76624598092E+02 -0.11632243057E+03  0.14422139412E+03  0.00000000000E+00 0.  1.
         11    1    3    3    0    0  0.10095431837E+02  0.27603219852E+02 -0.39607315668E+02  0.49321343702E+02  0.00000000000E+00 0. -1.
<mgrwt>
<rscale>  0 0.12785581E+03</rscale>
<asrwt>0</asrwt>
<pdfrwt beam="2">  1        4 0.58390565E-01 0.13258736E+03</pdfrwt>
<pdfrwt beam="1">  1       -4 0.61946893E-02 0.13258736E+03</pdfrwt>
<totfact> 0.78005991E+02</totfact>
</mgrwt>
</event>
<event>
 8    1  0.1273312E-005  0.2492650E+03  0.7546771E-02  0.1116596E+00
          3   -1    0    0  501    0  0.00000000000E+00  0.00000000000E+00  0.98035393225E+03  0.98035393225E+03  0.00000000000E+00 0. -1.
         -3   -1    0    0    0  501 -0.00000000000E+00 -0.00000000000E+00 -0.60011005952E+02  0.60011005952E+02  0.00000000000E+00 0.  1.
         23    2    1    2    0    0  0.20839439827E+03  0.55491355616E+02  0.50834916544E+03  0.55883416061E+03  0.85844215232E+02 0.  0.
         23    2    1    2    0    0 -0.20839439827E+03 -0.55491355616E+02  0.41199376086E+03  0.48153077759E+03  0.12500205999E+03 0.  0.
          5    1    4    4  502    0 -0.12437424268E+03  0.26591180642E+02  0.25908452233E+03  0.28865710253E+03  0.47000000000E+01 0.  1.
         -5    1    4    4    0  502 -0.84020155588E+02 -0.82082536259E+02  0.15290923853E+03  0.19287367506E+03  0.47000000000E+01 0.  1.
        -11    1    3    3    0    0  0.14639077216E+03 -0.54009784263E+00  0.28578818780E+03  0.32110035529E+03  0.00000000000E+00 0.  1.
         11    1    3    3    0    0  0.62003626102E+02  0.56031453459E+02  0.22256097764E+03  0.23773380532E+03  0.00000000000E+00 0. -1.
<mgrwt>
<rscale>  0 0.24486185E+03</rscale>
<asrwt>0</asrwt>
<pdfrwt beam="1">  1        3 0.15082367E+00 0.24926498E+03</pdfrwt>
<pdfrwt beam="2">  1       -3 0.92324632E-02 0.24926498E+03</pdfrwt>
<totfact> 0.70942113E+01</totfact>
</mgrwt>
</event>
<event>
 8    1  0.1273312E-005  0.1289464E+03  0.7546771E-02  0.1242350E+00
          1   -1    0    0  501    0  0.00000000000E+00  0.00000000000E+00  0.19537412725E+03  0.19537412725E+03  0.00000000000E+00 0. -1.
         -1   -1    0    0    0  501 -0.00000000000E+00 -0.00000000000E+00 -0.67390007876E+02  0.67390007876E+02  0.00000000000E+00 0.  1.
         23    2    1    2    0    0 -0.20281496290E+02 -0.24363716298E+02  0.36903338764E+02  0.10489426932E+03  0.92930197247E+02 0.  0.
         23    2    1    2    0    0  0.20281496290E+02  0.24363716298E+02  0.91080780612E+02  0.15786986581E+03  0.12498902420E+03 0.  0.
          5    1    4    4  502    0 -0.39281424366E+02  0.36369426660E+02  0.79309488078E+02  0.95801098089E+02  0.47000000000E+01 0. -1.
         -5    1    4    4    0  502  0.59562920657E+02 -0.12005710362E+02  0.11771292534E+02  0.62068767721E+02  0.47000000000E+01 0. -1.
        -11    1    3    3    0    0 -0.32103071219E+02 -0.11001780078E+02  0.64006437365E+02  0.72446327518E+02  0.00000000000E+00 0. -1.
         11    1    3    3    0    0  0.11821574929E+02 -0.13361936220E+02 -0.27103098601E+02  0.32447941801E+02  0.00000000000E+00 0.  1.
<mgrwt>
<rscale>  0 0.12045422E+03</rscale>
<asrwt>0</asrwt>
<pdfrwt beam="1">  1        1 0.30057558E-01 0.12894645E+03</pdfrwt>
<pdfrwt beam="2">  1       -1 0.10367694E-01 0.12894645E+03</pdfrwt>
<totfact> 0.82066428E+03</totfact>
</mgrwt>
</event>
<event>
 8    1  0.1273312E-005  0.1344699E+03  0.7546771E-02  0.1233153E+00
         -1   -1    0    0    0  501 -0.00000000000E+00  0.00000000000E+00  0.32981450827E+02  0.32981450827E+02  0.00000000000E+00 0.  1.
          1   -1    0    0  501    0  0.00000000000E+00 -0.00000000000E+00 -0.43721850800E+03  0.43721850800E+03  0.00000000000E+00 0. -1.
         23    2    1    2    0    0 -0.48776538621E+02 -0.88570130631E+01 -0.20088549912E+03  0.22640907006E+03  0.91915645278E+02 0.  0.
         23    2    1    2    0    0  0.48776538621E+02  0.88570130631E+01 -0.20335155805E+03  0.24379088877E+03  0.12499817552E+03 0.  0.
          5    1    4    4  502    0  0.90365070838E+02 -0.11440911453E+00 -0.15247102487E+03  0.17730020457E+03  0.47000000000E+01 0. -1.
         -5    1    4    4    0  502 -0.41588532217E+02  0.89714221776E+01 -0.50880533180E+02  0.66490684193E+02  0.47000000000E+01 0. -1.
        -11    1    3    3    0    0 -0.10277421126E+02  0.11751597102E+01  0.84311288580E+01  0.13345048489E+02  0.00000000000E+00 0.  1.
         11    1    3    3    0    0 -0.38499117495E+02 -0.10032172773E+02 -0.20931662798E+03  0.21306402157E+03  0.00000000000E+00 0. -1.
<mgrwt>
<rscale>  0 0.12623428E+03</rscale>
<asrwt>0</asrwt>
<pdfrwt beam="2">  1        1 0.67264383E-01 0.13446985E+03</pdfrwt>
<pdfrwt beam="1">  1       -1 0.50740695E-02 0.13446985E+03</pdfrwt>
<totfact> 0.88400632E+03</totfact>
</mgrwt>
</event>
<event>
 8    1  0.1273312E-005  0.1597283E+03  0.7546771E-02  0.1197325E+00
         -2   -1    0    0    0  501 -0.00000000000E+00  0.00000000000E+00  0.13546061677E+03  0.13546061677E+03  0.00000000000E+00 0.  1.
          2   -1    0    0  501    0  0.00000000000E+00 -0.00000000000E+00 -0.42379511139E+03  0.42379511139E+03  0.00000000000E+00 0. -1.
         23    2    1    2    0    0 -0.10031729412E+03 -0.32749161105E+01  0.81767981011E+02  0.15615650085E+03  0.87318757810E+02 0.  0.
         23    2    1    2    0    0  0.10031729412E+03  0.32749161105E+01 -0.37010247563E+03  0.40309922730E+03  0.12425320924E+03 0.  0.
          5    1    4    4  502    0  0.22634526067E+02 -0.35010286191E+02 -0.25786326459E+03  0.26125389018E+03  0.47000000000E+01 0. -1.
         -5    1    4    4    0  502  0.77682768053E+02  0.38285202301E+02 -0.11223921104E+03  0.14184533712E+03  0.47000000000E+01 0.  1.
        -11    1    3    3    0    0 -0.24767007004E+02  0.27290227608E+02 -0.49125759203E+01  0.37179222168E+02  0.00000000000E+00 0. -1.
         11    1    3    3    0    0 -0.75550287115E+02 -0.30565143718E+02  0.86680556931E+02  0.11897727869E+03  0.00000000000E+00 0.  1.
<mgrwt>
<rscale>  0 0.15259125E+03</rscale>
<asrwt>0</asrwt>
<pdfrwt beam="2">  1        2 0.65199248E-01 0.15972835E+03</pdfrwt>
<pdfrwt beam="1">  1       -2 0.20840095E-01 0.15972835E+03</pdfrwt>
<totfact> 0.14515905E+03</totfact>
</mgrwt>
</event>
<event>
 7    1  0.1273312E-005  0.1488531E+03  0.7546771E-02  0.1219289E+00
         -1   -1    0    0    0  501 -0.00000000000E+00  0.00000000000E+00  0.11128637690E+03  0.11128637690E+03  0.00000000000E+00 0.  1.
          1   -1    0    0  501    0  0.00000000000E+00 -0.00000000000E+00 -0.39461256993E+03  0.39461256993E+03  0.00000000000E+00 0. -1.
         23    2    1    2    0    0 -0.38950304821E+02 -0.22156402589E+02  0.68794648498E+02  0.12360804075E+03  0.92402443984E+02 0.  0.
          5    1    1    2  502    0 -0.17424720955E+02  0.57377466339E+02 -0.26957241036E+03  0.27620131964E+03  0.47000000000E+01 0. -1.
         -5    1    1    2    0  502  0.56375025777E+02 -0.35221063750E+02 -0.82548431166E+02  0.10608958644E+03  0.47000000000E+01 0.  1.
        -11    1    3    3    0    0 -0.17989207467E+02 -0.54344557011E+02  0.62378816926E+02  0.84664391944E+02  0.00000000000E+00 0.  1.
         11    1    3    3    0    0 -0.20961097354E+02  0.32188154422E+02  0.64158315715E+01  0.38943648804E+02  0.00000000000E+00 0. -1.
<mgrwt>
<rscale>  0 0.13566121E+03</rscale>
<asrwt>0</asrwt>
<pdfrwt beam="2">  1        1 0.60709626E-01 0.14885311E+03</pdfrwt>
<pdfrwt beam="1">  1       -1 0.17120981E-01 0.14885311E+03</pdfrwt>
<totfact> 0.15816780E+03</totfact>
</mgrwt>
</event>
<event>
 7    1  0.1273312E-005  0.3198717E+03  0.7546771E-02  0.1111415E+00
          1   -1    0    0  501    0  0.00000000000E+00  0.00000000000E+00  0.22027357984E+04  0.22027357984E+04  0.00000000000E+00 0. -1.
         -1   -1    0    0    0  501 -0.00000000000E+00 -0.00000000000E+00 -0.66226914245E+02  0.66226914245E+02  0.00000000000E+00 0.  1.
         23    2    1    2    0    0  0.37057702990E+02  0.76672870664E+02  0.18069360056E+02  0.12650993202E+03  0.91794654971E+02 0.  0.
          5    1    1    2  502    0  0.11479943302E+03 -0.86010790180E+02  0.14406377217E+04  0.14477692844E+04  0.47000000000E+01 0. -1.
         -5    1    1    2    0  502 -0.15185713601E+03  0.93379195164E+01  0.67780180242E+03  0.69468349618E+03  0.47000000000E+01 0.  1.
        -11    1    3    3    0    0 -0.30203952077E+02  0.18236893239E+02 -0.13871750308E+01  0.35309874691E+02  0.00000000000E+00 0.  1.
         11    1    3    3    0    0  0.67261655068E+02  0.58435977424E+02  0.19456535087E+02  0.91200057333E+02  0.00000000000E+00 0. -1.
<mgrwt>
<rscale>  0 0.25301373E+03</rscale>
<asrwt>0</asrwt>
<pdfrwt beam="1">  1        1 0.33888237E+00 0.31987169E+03</pdfrwt>
<pdfrwt beam="2">  1       -1 0.10188758E-01 0.31987169E+03</pdfrwt>
<totfact> 0.14600464E+02</totfact>
</mgrwt>
</event>
<event>
 8    1  0.1273312E-005  0.1298267E+03  0.7546771E-02  0.1244122E+00
          2   -1    0    0  501    0  0.00000000000E+00  0.00000000000E+00  0.27948790135E+03  0.27948790135E+03  0.00000000000E+00 0. -1.
         -2   -1    0    0    0  501 -0.00000000000E+00 -0.00000000000E+00 -0.58621109314E+02  0.58621109314E+02  0.00000000000E+00 0.  1.
         23    2    1    2    0    0 -0.65471780704E+01 -0.34466266366E+02  0.13989295998E+02  0.93868809297E+02  0.85935230834E+02 0.  0.
         23    2    1    2    0    0  0.65471780704E+01  0.34466266366E+02  0.20687749604E+03  0.24424020137E+03  0.12499675411E+03 0.  0.
          5    1    4    4  502    0  0.43821361948E+02 -0.21445819806E+02  0.14392292749E+03  0.15203990926E+03  0.47000000000E+01 0.  1.
         -5    1    4    4    0  502 -0.37274183877E+02  0.55912086172E+02  0.62954568547E+02  0.92200292108E+02  0.47000000000E+01 0.  1.
        -11    1    3    3    0    0 -0.55307516285E+01  0.15571771429E+02  0.35681064065E+02  0.39321846495E+02  0.00000000000E+00 0. -1.
         11    1    3    3    0    0 -0.10164264419E+01 -0.50038037794E+02 -0.21691768067E+02  0.54546962802E+02  0.00000000000E+00 0.  1.
<mgrwt>
<rscale>  0 0.11938069E+03</rscale>
<asrwt>0</asrwt>
<pdfrwt beam="1">  1        2 0.42998138E-01 0.12982672E+03</pdfrwt>
<pdfrwt beam="2">  1       -2 0.90186323E-02 0.12982672E+03</pdfrwt>
<totfact> 0.87310030E+03</totfact>
</mgrwt>
</event>
<event>
 8    1  0.1273312E-005  0.2227368E+03  0.7546771E-02  0.1135228E+00
          2   -1    0    0  501    0  0.00000000000E+00  0.00000000000E+00  0.29607659186E+03  0.29607659186E+03  0.00000000000E+00 0. -1.
         -2   -1    0    0    0  501 -0.00000000000E+00 -0.00000000000E+00 -0.15891929715E+03  0.15891929715E+03  0.00000000000E+00 0.  1.
         23    2    1    2    0    0 -0.17550698652E+03 -0.56426518989E+02  0.10331700817E+03  0.22970305063E+03  0.90013515250E+02 0.  0.
         23    2    1    2    0    0  0.17550698652E+03  0.56426518989E+02  0.33840286545E+02  0.22529283838E+03  0.12500017467E+03 0.  0.
          5    1    4    4  502    0  0.16564047047E+03  0.24886413495E+02 -0.12670290345E+02  0.16804381955E+03  0.47000000000E+01 0. -1.
         -5    1    4    4    0  502  0.98665160578E+01  0.31540105494E+02  0.46510576890E+02  0.57249018824E+02  0.47000000000E+01 0. -1.
        -11    1    3    3    0    0 -0.12979145354E+03 -0.34491848616E+02  0.25303629361E+02  0.13665936738E+03  0.00000000000E+00 0.  1.
         11    1    3    3    0    0 -0.45715532983E+02 -0.21934670374E+02  0.78013378805E+02  0.93043683251E+02  0.00000000000E+00 0. -1.
<mgrwt>
<rscale>  0 0.21820526E+03</rscale>
<asrwt>0</asrwt>
<pdfrwt beam="1">  1        2 0.45550245E-01 0.22273684E+03</pdfrwt>
<pdfrwt beam="2">  1       -2 0.24449123E-01 0.22273684E+03</pdfrwt>
<totfact> 0.16309295E+03</totfact>
</mgrwt>
</event>
<event>
 8    1  0.1273312E-005  0.1255711E+03  0.7546771E-02  0.1250759E+00
          3   -1    0    0  501    0  0.00000000000E+00  0.00000000000E+00  0.77519219970E+02  0.77519219970E+02  0.00000000000E+00 0. -1.
         -3   -1    0    0    0  501 -0.00000000000E+00 -0.00000000000E+00 -0.16775401620E+03  0.16775401620E+03  0.00000000000E+00 0.  1.
         23    2    1    2    0    0 -0.21755578202E+01 -0.11758780664E+02 -0.78298865335E+02  0.11913613965E+03  0.88992727141E+02 0.  0.
         23    2    1    2    0    0  0.21755578202E+01  0.11758780664E+02 -0.11935930895E+02  0.12613709652E+03  0.12500039479E+03 0.  0.
          5    1    4    4  502    0  0.80151400887E+01  0.32653097986E+02 -0.62382738979E+02  0.71022273980E+02  0.47000000000E+01 0.  1.
         -5    1    4    4    0  502 -0.58395822685E+01 -0.20894317322E+02  0.50446808084E+02  0.55114822537E+02  0.47000000000E+01 0.  1.
        -11    1    3    3    0    0  0.23188408563E+02 -0.19584303484E+02 -0.86243808795E+02  0.91428889253E+02  0.00000000000E+00 0.  1.
         11    1    3    3    0    0 -0.25363966383E+02  0.78255228201E+01  0.79449434601E+01  0.27707250399E+02  0.00000000000E+00 0. -1.
<mgrwt>
<rscale>  0 0.11547218E+03</rscale>
<asrwt>0</asrwt>
<pdfrwt beam="1">  1        3 0.11926034E-01 0.12557110E+03</pdfrwt>
<pdfrwt beam="2">  1       -3 0.25808310E-01 0.12557110E+03</pdfrwt>
<totfact> 0.17618716E+03</totfact>
</mgrwt>
</event>
<event>
 8    1  0.1273312E-005  0.1295757E+03  0.7546771E-02  0.1242666E+00
         -2   -1    0    0    0  501 -0.00000000000E+00  0.00000000000E+00  0.13880503366E+02  0.13880503366E+02  0.00000000000E+00 0.  1.
          2   -1    0    0  501    0  0.00000000000E+00 -0.00000000000E+00 -0.10122547845E+04  0.10122547845E+04  0.00000000000E+00 0. -1.
         23    2    1    2    0    0 -0.13622647545E+02 -0.31247920159E+02 -0.27691041055E+03  0.29312780672E+03  0.89902872946E+02 0.  0.
         23    2    1    2    0    0  0.13622647545E+02  0.31247920159E+02 -0.72146387062E+03  0.73300748118E+03  0.12501136673E+03 0.  0.
          5    1    4    4  502    0  0.39808055275E+02  0.69754136656E+02 -0.51942776185E+03  0.52562116646E+03  0.47000000000E+01 0.  1.
         -5    1    4    4    0  502 -0.26185407730E+02 -0.38506216498E+02 -0.20203610876E+03  0.20738631472E+03  0.47000000000E+01 0.  1.
        -11    1    3    3    0    0 -0.29280330694E+02 -0.47477562048E+02 -0.25719235342E+03  0.26317173731E+03  0.00000000000E+00 0.  1.
         11    1    3    3    0    0  0.15657683149E+02  0.16229641889E+02 -0.19718057125E+02  0.29956069406E+02  0.00000000000E+00 0. -1.
<mgrwt>
<rscale>  0 0.12026194E+03</rscale>
<asrwt>0</asrwt>
<pdfrwt beam="2">  1        2 0.15573148E+00 0.12957566E+03</pdfrwt>
<pdfrwt beam="1">  1       -2 0.21354624E-02 0.12957566E+03</pdfrwt>
<totfact> 0.17258368E+04</totfact>
</mgrwt>
</event>
<event>
 8    1  0.1273312E-005  0.1351790E+03  0.7546771E-02  0.1232974E+00
         -1   -1    0    0    0  501 -0.00000000000E+00  0.00000000000E+00  0.70555778300E+03  0.70555778300E+03  0.00000000000E+00 0.  1.
          1   -1    0    0  501    0  0.00000000000E+00 -0.00000000000E+00 -0.22889477006E+02  0.22889477006E+02  0.00000000000E+00 0. -1.
         23    2    1    2    0    0 -0.51493091714E+02 -0.19952403379E+01  0.42647507468E+03  0.43877789286E+03  0.89384173442E+02 0.  0.
         23    2    1    2    0    0  0.51493091714E+02  0.19952403379E+01  0.25619323131E+03  0.28966936715E+03  0.12497140078E+03 0.  0.
          5    1    4    4  502    0 -0.16557743011E+02 -0.38223643890E+02  0.34608561901E+02  0.54360356536E+02  0.47000000000E+01 0. -1.
         -5    1    4    4    0  502  0.68050834725E+02  0.40218884228E+02  0.22158466941E+03  0.23530901061E+03  0.47000000000E+01 0. -1.
        -11    1    3    3    0    0 -0.55552135855E+01 -0.41765405375E+02  0.15895094627E+03  0.16444030164E+03  0.00000000000E+00 0.  1.
         11    1    3    3    0    0 -0.45937878129E+02  0.39770165037E+02  0.26752412841E+03  0.27433759122E+03  0.00000000000E+00 0. -1.
<mgrwt>
<rscale>  0 0.12635006E+03</rscale>
<asrwt>0</asrwt>
<pdfrwt beam="2">  1        1 0.35214585E-02 0.13517903E+03</pdfrwt>
<pdfrwt beam="1">  1       -1 0.10854733E+00 0.13517903E+03</pdfrwt>
<totfact> 0.22037362E+03</totfact>
</mgrwt>
</event>
<event>
 8    1  0.1273312E-005  0.1325327E+03  0.7546771E-02  0.1236783E+00
         -1   -1    0    0    0  501 -0.00000000000E+00  0.00000000000E+00  0.55315753918E+03  0.55315753918E+03  0.00000000000E+00 0.  1.
          1   -1    0    0  501    0  0.00000000000E+00 -0.00000000000E+00 -0.25274659944E+02  0.25274659944E+02  0.00000000000E+00 0. -1.
         23    2    1    2    0    0 -0.37578936386E+02  0.22951081385E+02  0.27251116091E+03  0.29071772245E+03  0.91189542873E+02 0.  0.
         23    2    1    2    0    0  0.37578936386E+02 -0.22951081385E+02  0.25537171832E+03  0.28771447667E+03  0.12500390782E+03 0.  0.
          5    1    4    4  502    0 -0.66763551412E+01  0.40842788920E+02  0.15631006751E+03  0.16176413178E+03  0.47000000000E+01 0. -1.
         -5    1    4    4    0  502  0.44255291528E+02 -0.63793870305E+02  0.99061650806E+02  0.12595034489E+03  0.47000000000E+01 0. -1.
        -11    1    3    3    0    0 -0.47031997419E+02  0.71379639381E+01  0.26740027266E+03  0.27159872078E+03  0.00000000000E+00 0.  1.
         11    1    3    3    0    0  0.94530610324E+01  0.15813117447E+02  0.51108882539E+01  0.19119001674E+02  0.00000000000E+00 0. -1.
<mgrwt>
<rscale>  0 0.12390998E+03</rscale>
<asrwt>0</asrwt>
<pdfrwt beam="2">  1        1 0.38884096E-02 0.13253266E+03</pdfrwt>
<pdfrwt beam="1">  1       -1 0.85101151E-01 0.13253266E+03</pdfrwt>
<totfact> 0.32561036E+03</totfact>
</mgrwt>
</event>
<event>
 8    1  0.1273312E-005  0.1625743E+03  0.7546771E-02  0.1193041E+00
          2   -1    0    0  501    0  0.00000000000E+00  0.00000000000E+00  0.76881884141E+02  0.76881884141E+02  0.00000000000E+00 0. -1.
         -2   -1    0    0    0  501 -0.00000000000E+00 -0.00000000000E+00 -0.31425777112E+03  0.31425777112E+03  0.00000000000E+00 0.  1.
         23    2    1    2    0    0 -0.88788146813E+02  0.54043664993E+02 -0.15818915558E+03  0.21030567386E+03  0.91654867706E+02 0.  0.
         23    2    1    2    0    0  0.88788146813E+02 -0.54043664993E+02 -0.79186731405E+02  0.18083398141E+03  0.12500535053E+03 0.  0.
          5    1    4    4  502    0  0.63621345164E+02 -0.14802209855E+02  0.22195304825E+02  0.69148409478E+02  0.47000000000E+01 0.  1.
         -5    1    4    4    0  502  0.25166801648E+02 -0.39241455139E+02 -0.10138203623E+03  0.11168557193E+03  0.47000000000E+01 0.  1.
        -11    1    3    3    0    0 -0.78546973279E+02 -0.43097901080E+01 -0.10035393292E+03  0.12751122756E+03  0.00000000000E+00 0.  1.
         11    1    3    3    0    0 -0.10241173534E+02  0.58353455101E+02 -0.57835222663E+02  0.82794446300E+02  0.00000000000E+00 0. -1.
<mgrwt>
<rscale>  0 0.15621211E+03</rscale>
<asrwt>0</asrwt>
<pdfrwt beam="1">  1        2 0.11827982E-01 0.16257426E+03</pdfrwt>
<pdfrwt beam="2">  1       -2 0.48347349E-01 0.16257426E+03</pdfrwt>
<totfact> 0.20845297E+03</totfact>
</mgrwt>
</event>
<event>
 8    1  0.1273312E-005  0.1235122E+03  0.7546771E-02  0.1247931E+00
         -1   -1    0    0    0  501 -0.00000000000E+00  0.00000000000E+00  0.12503377259E+02  0.12503377259E+02  0.00000000000E+00 0.  1.
          1   -1    0    0  501    0  0.00000000000E+00 -0.00000000000E+00 -0.10060049449E+04  0.10060049449E+04  0.00000000000E+00 0. -1.
         23    2    1    2    0    0  0.98446892496E+01  0.41454266324E+02 -0.39808909775E+03  0.41042011084E+03  0.90301514570E+02 0.  0.
         23    2    1    2    0    0 -0.98446892496E+01 -0.41454266324E+02 -0.59541246988E+03  0.60808821131E+03  0.11593053669E+03 0.  0.
          5    1    4    4  502    0  0.39139403760E+01 -0.48718127408E+02 -0.58830305842E+03  0.59034850166E+03  0.47000000000E+01 0. -1.
         -5    1    4    4    0  502 -0.13758629626E+02  0.72638610838E+01 -0.71094114644E+01  0.17739709648E+02  0.47000000000E+01 0.  1.
        -11    1    3    3    0    0  0.64166325114E+01 -0.27033529330E+02 -0.71484149260E+02  0.76693992439E+02  0.00000000000E+00 0. -1.
         11    1    3    3    0    0  0.34280567382E+01  0.68487795653E+02 -0.32660494849E+03  0.33372611840E+03  0.00000000000E+00 0.  1.
<mgrwt>
<rscale>  0 0.11711644E+03</rscale>
<asrwt>0</asrwt>
<pdfrwt beam="2">  1        1 0.15476994E+00 0.12351220E+03</pdfrwt>
<pdfrwt beam="1">  1       -1 0.19235971E-02 0.12351220E+03</pdfrwt>
<totfact> 0.11000135E+04</totfact>
</mgrwt>
</event>
<event>
 8    1  0.1273312E-005  0.1936051E+03  0.7546771E-02  0.1160987E+00
          2   -1    0    0  501    0  0.00000000000E+00  0.00000000000E+00  0.15115092952E+04  0.15115092952E+04  0.00000000000E+00 0.  1.
         -2   -1    0    0    0  501 -0.00000000000E+00 -0.00000000000E+00 -0.49654885888E+02  0.49654885888E+02  0.00000000000E+00 0. -1.
         23    2    1    2    0    0  0.14099817489E+03 -0.44468812227E+02  0.12525416312E+03  0.21061497560E+03  0.82535458941E+02 0.  0.
         23    2    1    2    0    0 -0.14099817489E+03  0.44468812227E+02  0.13366002462E+04  0.13505492055E+04  0.12499991101E+03 0.  0.
          5    1    4    4  502    0 -0.61696643593E+02  0.69007043786E+02  0.98051594010E+03  0.98488681924E+03  0.47000000000E+01 0.  1.
         -5    1    4    4    0  502 -0.79301531301E+02 -0.24538231559E+02  0.35608430609E+03  0.36566238625E+03  0.47000000000E+01 0.  1.
        -11    1    3    3    0    0  0.92938023055E+02 -0.41398613307E+02  0.12662759450E+03  0.16243727713E+03  0.00000000000E+00 0.  1.
         11    1    3    3    0    0  0.48060151838E+02 -0.30701989200E+01 -0.13734313726E+01  0.48177698470E+02  0.00000000000E+00 0. -1.
<mgrwt>
<rscale>  0 0.18722601E+03</rscale>
<asrwt>0</asrwt>
<pdfrwt beam="1">  1        2 0.23253986E+00 0.19360511E+03</pdfrwt>
<pdfrwt beam="2">  1       -2 0.76392144E-02 0.19360511E+03</pdfrwt>
<totfact> 0.13749470E+03</totfact>
</mgrwt>
</event>
<event>
 8    1  0.2016091E-005  0.2118886E+03  0.7546771E-02  0.1143768E+00
         -2   -1    0    0    0  501 -0.00000000000E+00  0.00000000000E+00  0.16209071406E+02  0.16209071406E+02  0.00000000000E+00 0.  1.
          2   -1    0    0  501    0  0.00000000000E+00 -0.00000000000E+00 -0.40032284775E+04  0.40032284775E+04  0.00000000000E+00 0. -1.
         23    2    1    2    0    0  0.13406532856E+03  0.10629137666E+03 -0.72310770576E+03  0.74865532127E+03  0.91261530057E+02 0.  0.
         23    2    1    2    0    0 -0.13406532856E+03 -0.10629137666E+03 -0.32639117004E+04  0.32707822277E+04  0.12500169574E+03 0.  0.
          5    1    4    4  502    0 -0.11602899849E+03 -0.74835601676E+02 -0.14650733893E+04  0.14715723637E+04  0.47000000000E+01 0.  1.
         -5    1    4    4    0  502 -0.18036330073E+02 -0.31455774985E+02 -0.17988383111E+04  0.17992098639E+04  0.47000000000E+01 0.  1.
        -11    1    3    3    0    0  0.68430891602E+02  0.31977644367E+02 -0.16059416496E+03  0.17747068063E+03  0.00000000000E+00 0.  1.
         11    1    3    3    0    0  0.65634436957E+02  0.74313732295E+02 -0.56251354080E+03  0.57118464064E+03  0.00000000000E+00 0. -1.
<mgrwt>
<rscale>  0 0.20724272E+03</rscale>
<asrwt>0</asrwt>
<pdfrwt beam="2">  1        2 0.61588165E+00 0.21188863E+03</pdfrwt>
<pdfrwt beam="1">  1       -2 0.24937019E-02 0.21188863E+03</pdfrwt>
<totfact> 0.25399578E+02</totfact>
</mgrwt>
</event>
<event>
 8    1  0.1273312E-005  0.1270672E+03  0.7546771E-02  0.1244716E+00
          1   -1    0    0  501    0  0.00000000000E+00  0.00000000000E+00  0.48891732609E+03  0.48891732609E+03  0.00000000000E+00 0. -1.
         -1   -1    0    0    0  501 -0.00000000000E+00 -0.00000000000E+00 -0.29092472360E+02  0.29092472360E+02  0.00000000000E+00 0.  1.
         23    2    1    2    0    0  0.22110643535E+02 -0.55712592783E+01  0.11765989958E+03  0.15301264994E+03  0.95126755356E+02 0.  0.
         23    2    1    2    0    0 -0.22110643535E+02  0.55712592783E+01  0.34216495415E+03  0.36499714851E+03  0.12500457225E+03 0.  0.
          5    1    4    4  502    0 -0.13771355975E+02  0.58578471550E+02  0.25879231709E+03  0.26573791780E+03  0.47000000000E+01 0.  1.
         -5    1    4    4    0  502 -0.83392875600E+01 -0.53007212272E+02  0.83372637064E+02  0.99259230708E+02  0.47000000000E+01 0.  1.
        -11    1    3    3    0    0 -0.25931168704E+01  0.42159513073E+02  0.66696645472E+02  0.78946762536E+02  0.00000000000E+00 0.  1.
         11    1    3    3    0    0  0.24703760405E+02 -0.47730772352E+02  0.50963254104E+02  0.74065887399E+02  0.00000000000E+00 0. -1.
<mgrwt>
<rscale>  0 0.11902369E+03</rscale>
<asrwt>0</asrwt>
<pdfrwt beam="1">  1        1 0.75218044E-01 0.12706716E+03</pdfrwt>
<pdfrwt beam="2">  1       -1 0.44757653E-02 0.12706716E+03</pdfrwt>
<totfact> 0.91789235E+03</totfact>
</mgrwt>
</event>
<event>
 8    1  0.1273312E-005  0.1251287E+03  0.7546771E-02  0.1248001E+00
          2   -1    0    0  501    0  0.00000000000E+00  0.00000000000E+00  0.54856461261E+03  0.54856461261E+03  0.00000000000E+00 0. -1.
         -2   -1    0    0    0  501 -0.00000000000E+00 -0.00000000000E+00 -0.37418787722E+02  0.37418787722E+02  0.00000000000E+00 0.  1.
         23    2    1    2    0    0 -0.15974640845E+01  0.50056565667E+01  0.49969972887E+02  0.10813367490E+03  0.95751161701E+02 0.  0.
         23    2    1    2    0    0  0.15974640845E+01 -0.50056565667E+01  0.46117585201E+03  0.47784972544E+03  0.12501833922E+03 0.  0.
          5    1    4    4  502    0  0.25181208310E+02  0.54742554558E+02  0.23935363969E+03  0.24686655376E+03  0.47000000000E+01 0. -1.
         -5    1    4    4    0  502 -0.23583744225E+02 -0.59748211124E+02  0.22182221232E+03  0.23098317168E+03  0.47000000000E+01 0. -1.
        -11    1    3    3    0    0  0.40516366246E-01 -0.33247410284E+02 -0.11951974318E+02  0.35330463092E+02  0.00000000000E+00 0.  1.
         11    1    3    3    0    0 -0.16379804508E+01  0.38253066851E+02  0.61921947204E+02  0.72803211804E+02  0.00000000000E+00 0. -1.
<mgrwt>
<rscale>  0 0.11707575E+03</rscale>
<asrwt>0</asrwt>
<pdfrwt beam="1">  1        2 0.84394550E-01 0.12512871E+03</pdfrwt>
<pdfrwt beam="2">  1       -2 0.57567370E-02 0.12512871E+03</pdfrwt>
<totfact> 0.84048908E+03</totfact>
</mgrwt>
</event>
<event>
 7    1  0.1273312E-005  0.1724602E+03  0.7546771E-02  0.1190710E+00
          1   -1    0    0  501    0  0.00000000000E+00  0.00000000000E+00  0.10001193593E+04  0.10001193593E+04  0.00000000000E+00 0. -1.
         -1   -1    0    0    0  501 -0.00000000000E+00 -0.00000000000E+00 -0.26074997703E+02  0.26074997703E+02  0.00000000000E+00 0.  1.
         23    2    1    2    0    0 -0.79916436841E+02  0.11536736834E+02  0.21036296287E+03  0.24328197564E+03  0.91726824588E+02 0.  0.
          5    1    1    2  502    0  0.78646688309E+02  0.60702663300E+02  0.40938777085E+03  0.42129627560E+03  0.47000000000E+01 0. -1.
         -5    1    1    2    0  502  0.12697485320E+01 -0.72239400134E+02  0.35429362785E+03  0.36161610573E+03  0.47000000000E+01 0.  1.
        -11    1    3    3    0    0 -0.31669850400E+02 -0.40269890585E+02  0.81881007001E+02  0.96587487904E+02  0.00000000000E+00 0.  1.
         11    1    3    3    0    0 -0.48246586441E+02  0.51806627419E+02  0.12848195587E+03  0.14669448774E+03  0.00000000000E+00 0. -1.
<mgrwt>
<rscale>  0 0.15822934E+03</rscale>
<asrwt>0</asrwt>
<pdfrwt beam="1">  1        1 0.15386449E+00 0.17246019E+03</pdfrwt>
<pdfrwt beam="2">  1       -1 0.40115389E-02 0.17246019E+03</pdfrwt>
<totfact> 0.38668146E+03</totfact>
</mgrwt>
</event>
<event>
 8    1  0.1273312E-005  0.1241479E+03  0.7546771E-02  0.1247929E+00
          2   -1    0    0  501    0  0.00000000000E+00  0.00000000000E+00  0.53667537349E+03  0.53667537349E+03  0.00000000000E+00 0. -1.
         -2   -1    0    0    0  501 -0.00000000000E+00 -0.00000000000E+00 -0.24088784169E+02  0.24088784169E+02  0.00000000000E+00 0.  1.
         23    2    1    2    0    0  0.34406378884E+02 -0.14209943331E+02  0.17015077405E+03  0.19651839330E+03  0.91008085332E+02 0.  0.
         23    2    1    2    0    0 -0.34406378884E+02  0.14209943331E+02  0.34243581527E+03  0.36424576436E+03  0.11843550093E+03 0.  0.
          5    1    4    4  502    0  0.28163506509E+02  0.24040610647E+02  0.38037719786E+02  0.53292515288E+02  0.47000000000E+01 0. -1.
         -5    1    4    4    0  502 -0.62569885392E+02 -0.98306673160E+01  0.30439809548E+03  0.31095324907E+03  0.47000000000E+01 0.  1.
        -11    1    3    3    0    0  0.17634528170E+02 -0.47642348432E+02  0.13849169021E+03  0.14751514568E+03  0.00000000000E+00 0. -1.
         11    1    3    3    0    0  0.16771850714E+02  0.33432405101E+02  0.31659083846E+02  0.49003247619E+02  0.00000000000E+00 0.  1.
<mgrwt>
<rscale>  0 0.11711771E+03</rscale>
<asrwt>0</asrwt>
<pdfrwt beam="1">  1        2 0.82565434E-01 0.12414785E+03</pdfrwt>
<pdfrwt beam="2">  1       -2 0.37059672E-02 0.12414785E+03</pdfrwt>
<totfact> 0.16610395E+04</totfact>
</mgrwt>
</event>
<event>
 8    1  0.1273312E-005  0.1330393E+03  0.7546771E-02  0.1233636E+00
         -3   -1    0    0    0  501 -0.00000000000E+00  0.00000000000E+00  0.99296002618E+03  0.99296002618E+03  0.00000000000E+00 0.  1.
          3   -1    0    0  501    0  0.00000000000E+00 -0.00000000000E+00 -0.14496474530E+02  0.14496474530E+02  0.00000000000E+00 0. -1.
         23    2    1    2    0    0  0.12766724052E+02  0.43723608273E+02  0.45287754965E+03  0.46529406266E+03  0.96569905278E+02 0.  0.
         23    2    1    2    0    0 -0.12766724052E+02 -0.43723608273E+02  0.52558600200E+03  0.54216243805E+03  0.12499888228E+03 0.  0.
          5    1    4    4  502    0 -0.14824777408E+02  0.35116594583E+01  0.46450139685E+03  0.46477493849E+03  0.47000000000E+01 0.  1.
         -5    1    4    4    0  502  0.20580533560E+01 -0.47235267731E+02  0.61084605154E+02  0.77387499559E+02  0.47000000000E+01 0.  1.
        -11    1    3    3    0    0  0.88214239329E+01 -0.30555590260E+02  0.11431621610E+03  0.11865773839E+03  0.00000000000E+00 0.  1.
         11    1    3    3    0    0  0.39453001191E+01  0.74279198533E+02  0.33856133355E+03  0.34663632427E+03  0.00000000000E+00 0. -1.
<mgrwt>
<rscale>  0 0.12592167E+03</rscale>
<asrwt>0</asrwt>
<pdfrwt beam="2">  1        3 0.22302276E-02 0.13303933E+03</pdfrwt>
<pdfrwt beam="1">  1       -3 0.15276303E+00 0.13303933E+03</pdfrwt>
<totfact> 0.61092078E+02</totfact>
</mgrwt>
</event>
<event>
 8    1  0.1273312E-005  0.1480230E+03  0.7546771E-02  0.1207010E+00
          3   -1    0    0  501    0  0.00000000000E+00  0.00000000000E+00  0.35976261738E+02  0.35976261738E+02  0.00000000000E+00 0. -1.
         -3   -1    0    0    0  501 -0.00000000000E+00 -0.00000000000E+00 -0.80615084180E+03  0.80615084180E+03  0.00000000000E+00 0.  1.
         23    2    1    2    0    0  0.54644050199E+02 -0.57620922645E+02 -0.60642589099E+03  0.62139097269E+03  0.10985552658E+03 0.  0.
         23    2    1    2    0    0 -0.54644050199E+02  0.57620922645E+02 -0.16374868907E+03  0.22073613086E+03  0.12491862689E+03 0.  0.
          5    1    4    4  502    0 -0.88298594274E+02  0.21281912432E+02 -0.13646295505E+03  0.16399326098E+03  0.47000000000E+01 0. -1.
         -5    1    4    4    0  502  0.33654544075E+02  0.36339010213E+02 -0.27285734028E+02  0.56742869874E+02  0.47000000000E+01 0. -1.
        -11    1    3    3    0    0  0.53138251197E+02  0.20419103384E+02 -0.28429523417E+03  0.28993860332E+03  0.00000000000E+00 0.  1.
         11    1    3    3    0    0  0.15057990016E+01 -0.78040026029E+02 -0.32213065682E+03  0.33145236936E+03  0.00000000000E+00 0. -1.
<mgrwt>
<rscale>  0 0.14480164E+03</rscale>
<asrwt>0</asrwt>
<pdfrwt beam="1">  1        3 0.55348098E-02 0.14802299E+03</pdfrwt>
<pdfrwt beam="2">  1       -3 0.12402320E+00 0.14802299E+03</pdfrwt>
<totfact> 0.24992083E+02</totfact>
</mgrwt>
</event>
<event>
 8    1  0.1273312E-005  0.1641257E+03  0.7546771E-02  0.1191716E+00
          2   -1    0    0  501    0  0.00000000000E+00  0.00000000000E+00  0.22553121897E+03  0.22553121897E+03  0.00000000000E+00 0. -1.
         -2   -1    0    0    0  501 -0.00000000000E+00 -0.00000000000E+00 -0.17203269263E+03  0.17203269263E+03  0.00000000000E+00 0.  1.
         23    2    1    2    0    0 -0.65437865867E+02  0.83930635759E+02 -0.10147499835E+03  0.17183386715E+03  0.88900150179E+02 0.  0.
         23    2    1    2    0    0  0.65437865867E+02 -0.83930635759E+02  0.15497352468E+03  0.22573004445E+03  0.12494316191E+03 0.  0.
          5    1    4    4  502    0  0.92026215162E+02 -0.90335192181E+02  0.96916593625E+02  0.16138211593E+03  0.47000000000E+01 0. -1.
         -5    1    4    4    0  502 -0.26588349295E+02  0.64045564220E+01  0.58056931052E+02  0.64347928517E+02  0.47000000000E+01 0. -1.
        -11    1    3    3    0    0 -0.75085469362E+02  0.42833265090E+02 -0.96132565544E+02  0.12928258377E+03  0.00000000000E+00 0.  1.
         11    1    3    3    0    0  0.96476034955E+01  0.41097370670E+02 -0.53424328024E+01  0.42551283381E+02  0.00000000000E+00 0. -1.
<mgrwt>
<rscale>  0 0.15735448E+03</rscale>
<asrwt>0</asrwt>
<pdfrwt beam="1">  1        2 0.34697111E-01 0.16412574E+03</pdfrwt>
<pdfrwt beam="2">  1       -2 0.26466568E-01 0.16412574E+03</pdfrwt>
<totfact> 0.18836464E+03</totfact>
</mgrwt>
</event>
<event>
 7    1  0.1273312E-005  0.1296193E+03  0.7546771E-02  0.1265435E+00
          2   -1    0    0  501    0  0.00000000000E+00  0.00000000000E+00  0.34600138824E+03  0.34600138824E+03  0.00000000000E+00 0. -1.
         -2   -1    0    0    0  501 -0.00000000000E+00 -0.00000000000E+00 -0.26978110047E+02  0.26978110047E+02  0.00000000000E+00 0.  1.
         23    2    1    2    0    0  0.80548026797E+01 -0.33280754504E+02  0.24319098894E+03  0.27557759452E+03  0.12501465927E+03 0.  0.
          5    1    3    3  502    0 -0.71198759325E+01  0.15414456854E+02 -0.79054017865E+01  0.19310191371E+02  0.47000000000E+01 0.  1.
         -5    1    3    3    0  502  0.15174678612E+02 -0.48695211357E+02  0.25109639073E+03  0.25626740315E+03  0.47000000000E+01 0.  1.
        -11    1    1    2    0    0  0.51850448673E+01 -0.10061015714E+02  0.33600897692E+02  0.35456015754E+02  0.00000000000E+00 0. -1.
         11    1    1    2    0    0 -0.13239847547E+02  0.43341770217E+02  0.42231391562E+02  0.61945888014E+02  0.00000000000E+00 0.  1.
<mgrwt>
<rscale>  0 0.10741419E+03</rscale>
<asrwt>0</asrwt>
<pdfrwt beam="1">  1        2 0.53230980E-01 0.12961926E+03</pdfrwt>
<pdfrwt beam="2">  1       -2 0.41504787E-02 0.12961926E+03</pdfrwt>
<totfact> 0.22620122E+04</totfact>
</mgrwt>
</event>
<event>
 8    1  0.1273312E-005  0.1292944E+03  0.7546771E-02  0.1245219E+00
          3   -1    0    0  501    0  0.00000000000E+00  0.00000000000E+00  0.42634795115E+02  0.42634795115E+02  0.00000000000E+00 0. -1.
         -3   -1    0    0    0  501 -0.00000000000E+00 -0.00000000000E+00 -0.28703786248E+03  0.28703786248E+03  0.00000000000E+00 0.  1.
         23    2    1    2    0    0  0.32474635765E+02 -0.62429235394E+01 -0.98554234110E+02  0.13476515923E+03  0.85762083807E+02 0.  0.
         23    2    1    2    0    0 -0.32474635765E+02  0.62429235394E+01 -0.14584883326E+03  0.19490749837E+03  0.12499389863E+03 0.  0.
          5    1    4    4  502    0  0.37160948481E+02 -0.42213308131E+01 -0.58759265709E+01  0.38149341264E+02  0.47000000000E+01 0.  1.
         -5    1    4    4    0  502 -0.69635584246E+02  0.10464254353E+02 -0.13997290668E+03  0.15675815710E+03  0.47000000000E+01 0.  1.
        -11    1    3    3    0    0 -0.99380279075E+01 -0.26210939974E+02 -0.79261389758E+02  0.84072264626E+02  0.00000000000E+00 0.  1.
         11    1    3    3    0    0  0.42412663672E+02  0.19968016435E+02 -0.19292844352E+02  0.50692894604E+02  0.00000000000E+00 0. -1.
<mgrwt>
<rscale>  0 0.11872268E+03</rscale>
<asrwt>0</asrwt>
<pdfrwt beam="1">  1        3 0.65591993E-02 0.12929443E+03</pdfrwt>
<pdfrwt beam="2">  1       -3 0.44159671E-01 0.12929443E+03</pdfrwt>
<totfact> 0.17176197E+03</totfact>
</mgrwt>
</event>
<event>
 8    1  0.1273312E-005  0.1378922E+03  0.7546771E-02  0.1228096E+00
         -2   -1    0    0    0  501 -0.00000000000E+00  0.00000000000E+00  0.27000612088E+02  0.27000612088E+02  0.00000000000E+00 0.  1.
          2   -1    0    0  501    0  0.00000000000E+00 -0.00000000000E+00 -0.59537405339E+03  0.59537405339E+03  0.00000000000E+00 0. -1.
         23    2    1    2    0    0 -0.55531472258E+02  0.17428613980E+02 -0.17333900910E+03  0.20396521326E+03  0.90376408141E+02 0.  0.
         23    2    1    2    0    0  0.55531472258E+02 -0.17428613980E+02 -0.39503443220E+03  0.41840945221E+03  0.12500706413E+03 0.  0.
          5    1    4    4  502    0  0.65153300188E+02  0.19707074081E+02 -0.35946800656E+03  0.36588612850E+03  0.47000000000E+01 0.  1.
         -5    1    4    4    0  502 -0.96218279291E+01 -0.37135688061E+02 -0.35566425645E+02  0.52523323711E+02  0.47000000000E+01 0.  1.
        -11    1    3    3    0    0  0.24260684743E+02 -0.27422828224E+01 -0.50659974616E+02  0.56236411402E+02  0.00000000000E+00 0.  1.
         11    1    3    3    0    0 -0.79792157002E+02  0.20170896802E+02 -0.12267903448E+03  0.14772880186E+03  0.00000000000E+00 0. -1.
<mgrwt>
<rscale>  0 0.12956955E+03</rscale>
<asrwt>0</asrwt>
<pdfrwt beam="2">  1        2 0.91596002E-01 0.13789223E+03</pdfrwt>
<pdfrwt beam="1">  1       -2 0.41539406E-02 0.13789223E+03</pdfrwt>
<totfact> 0.12585193E+04</totfact>
</mgrwt>
</event>
<event>
 8    1  0.1273312E-005  0.1262081E+03  0.7546771E-02  0.1248220E+00
          2   -1    0    0  501    0  0.00000000000E+00  0.00000000000E+00  0.74199061633E+03  0.74199061633E+03  0.00000000000E+00 0. -1.
         -2   -1    0    0    0  501 -0.00000000000E+00 -0.00000000000E+00 -0.16787639429E+02  0.16787639429E+02  0.00000000000E+00 0.  1.
         23    2    1    2    0    0 -0.14499343728E+02  0.96302874350E+01  0.23932319242E+03  0.25677462398E+03  0.91403739989E+02 0.  0.
         23    2    1    2    0    0  0.14499343728E+02 -0.96302874350E+01  0.48587978448E+03  0.50200363178E+03  0.12500203179E+03 0.  0.
          5    1    4    4  502    0  0.27376761156E+02  0.53896553760E+02  0.21045792853E+03  0.21901816189E+03  0.47000000000E+01 0. -1.
         -5    1    4    4    0  502 -0.12877417428E+02 -0.63526841195E+02  0.27542185595E+03  0.28298546989E+03  0.47000000000E+01 0. -1.
        -11    1    3    3    0    0 -0.43744484657E+02  0.33487879214E+02  0.15045709416E+03  0.16022595038E+03  0.00000000000E+00 0.  1.
         11    1    3    3    0    0  0.29245140929E+02 -0.23857591779E+02  0.88866098264E+02  0.96548673601E+02  0.00000000000E+00 0. -1.
<mgrwt>
<rscale>  0 0.11694730E+03</rscale>
<asrwt>0</asrwt>
<pdfrwt beam="1">  1        2 0.11415238E+00 0.12620809E+03</pdfrwt>
<pdfrwt beam="2">  1       -2 0.25827143E-02 0.12620809E+03</pdfrwt>
<totfact> 0.19466906E+04</totfact>
</mgrwt>
</event>
<event>
 8    1  0.1273312E-005  0.1417888E+03  0.7546771E-02  0.1221028E+00
         -3   -1    0    0    0  501 -0.00000000000E+00  0.00000000000E+00  0.23377350243E+03  0.23377350243E+03  0.00000000000E+00 0.  1.
          3   -1    0    0  501    0  0.00000000000E+00 -0.00000000000E+00 -0.10025952219E+03  0.10025952219E+03  0.00000000000E+00 0. -1.
         23    2    1    2    0    0  0.45442879429E+02 -0.49133836862E+02  0.15275829066E+03  0.19094418450E+03  0.92980627083E+02 0.  0.
         23    2    1    2    0    0 -0.45442879429E+02  0.49133836862E+02 -0.19244310425E+02  0.14308884013E+03  0.12499953388E+03 0.  0.
          5    1    4    4  502    0  0.23201979803E+02  0.11097718525E+02  0.37795598639E+02  0.45957464026E+02  0.47000000000E+01 0.  1.
         -5    1    4    4    0  502 -0.68644859231E+02  0.38036118337E+02 -0.57039909063E+02  0.97131376100E+02  0.47000000000E+01 0.  1.
        -11    1    3    3    0    0  0.34236702770E+02 -0.22180637459E+02  0.15630397847E+03  0.16153967370E+03  0.00000000000E+00 0.  1.
         11    1    3    3    0    0  0.11206176659E+02 -0.26953199403E+02 -0.35456878047E+01  0.29404510799E+02  0.00000000000E+00 0. -1.
<mgrwt>
<rscale>  0 0.13442877E+03</rscale>
<asrwt>0</asrwt>
<pdfrwt beam="2">  1        3 0.15424542E-01 0.14178883E+03</pdfrwt>
<pdfrwt beam="1">  1       -3 0.35965154E-01 0.14178883E+03</pdfrwt>
<totfact> 0.62819893E+02</totfact>
</mgrwt>
</event>
<event>
 8    1  0.1273312E-005  0.1268673E+03  0.7546771E-02  0.1246430E+00
         -1   -1    0    0    0  501 -0.00000000000E+00  0.00000000000E+00  0.29926902470E+02  0.29926902470E+02  0.00000000000E+00 0.  1.
          1   -1    0    0  501    0  0.00000000000E+00 -0.00000000000E+00 -0.46702152432E+03  0.46702152432E+03  0.00000000000E+00 0. -1.
         23    2    1    2    0    0  0.21967347402E+02  0.20410268131E+00 -0.10562794146E+03  0.14203228818E+03  0.92375878112E+02 0.  0.
         23    2    1    2    0    0 -0.21967347402E+02 -0.20410268131E+00 -0.33146668039E+03  0.35491613862E+03  0.12495078725E+03 0.  0.
          5    1    4    4  502    0  0.41824222695E+02  0.34195738290E+02 -0.14402927035E+03  0.15389975581E+03  0.47000000000E+01 0. -1.
         -5    1    4    4    0  502 -0.63791570097E+02 -0.34399840971E+02 -0.18743741004E+03  0.20101638281E+03  0.47000000000E+01 0. -1.
        -11    1    3    3    0    0  0.49029227565E+02 -0.24883757213E+02 -0.80124274608E+02  0.97174924287E+02  0.00000000000E+00 0. -1.
         11    1    3    3    0    0 -0.27061880163E+02  0.25087859895E+02 -0.25503666857E+02  0.44857363890E+02  0.00000000000E+00 0.  1.
<mgrwt>
<rscale>  0 0.11800174E+03</rscale>
<asrwt>0</asrwt>
<pdfrwt beam="2">  1        1 0.71849462E-01 0.12686727E+03</pdfrwt>
<pdfrwt beam="1">  1       -1 0.46041390E-02 0.12686727E+03</pdfrwt>
<totfact> 0.93397962E+03</totfact>
</mgrwt>
</event>
<event>
 8    1  0.1273312E-005  0.1357358E+03  0.7546771E-02  0.1230954E+00
         -2   -1    0    0    0  501 -0.00000000000E+00  0.00000000000E+00  0.47400725562E+02  0.47400725562E+02  0.00000000000E+00 0.  1.
          2   -1    0    0  501    0  0.00000000000E+00 -0.00000000000E+00 -0.30950181487E+03  0.30950181487E+03  0.00000000000E+00 0. -1.
         23    2    1    2    0    0  0.29846392652E+02  0.43688999006E+02 -0.10674370795E+03  0.15060149086E+03  0.92125208677E+02 0.  0.
         23    2    1    2    0    0 -0.29846392652E+02 -0.43688999006E+02 -0.15535738136E+03  0.20630104957E+03  0.12499868529E+03 0.  0.
          5    1    4    4  502    0  0.13260552512E+01  0.35064061122E+02 -0.97211989792E+02  0.10345775836E+03  0.47000000000E+01 0.  1.
         -5    1    4    4    0  502 -0.31172447903E+02 -0.78753060128E+02 -0.58145391568E+02  0.10284329122E+03  0.47000000000E+01 0.  1.
        -11    1    3    3    0    0  0.51997795099E+02  0.82371839542E+01 -0.92510413222E+02  0.10644152596E+03  0.00000000000E+00 0.  1.
         11    1    3    3    0    0 -0.22151402447E+02  0.35451815052E+02 -0.14233294726E+02  0.44159964896E+02  0.00000000000E+00 0. -1.
<mgrwt>
<rscale>  0 0.12767067E+03</rscale>
<asrwt>0</asrwt>
<pdfrwt beam="2">  1        2 0.47615663E-01 0.13573580E+03</pdfrwt>
<pdfrwt beam="1">  1       -2 0.72924194E-02 0.13573580E+03</pdfrwt>
<totfact> 0.10918607E+04</totfact>
</mgrwt>
</event>
<event>
 7    1  0.1273312E-005  0.1444463E+03  0.7546771E-02  0.1238196E+00
          1   -1    0    0  501    0  0.00000000000E+00  0.00000000000E+00  0.58737415237E+03  0.58737415237E+03  0.00000000000E+00 0. -1.
         -1   -1    0    0    0  501 -0.00000000000E+00 -0.00000000000E+00 -0.20731303610E+02  0.20731303610E+02  0.00000000000E+00 0.  1.
         23    2    1    2    0    0 -0.16683174367E+01 -0.48710796722E+02  0.20952288207E+03  0.22287900643E+03  0.58306846902E+02 0.  0.
          5    1    1    2  502    0  0.52525669542E+02 -0.19978503775E+02  0.17771561944E+03  0.18644843246E+03  0.47000000000E+01 0. -1.
         -5    1    1    2    0  502 -0.50857352106E+02  0.68689300497E+02  0.17940434725E+03  0.19877801709E+03  0.47000000000E+01 0.  1.
        -11    1    3    3    0    0  0.17201568447E+02 -0.41587576971E+02  0.18828844262E+03  0.19359224711E+03  0.00000000000E+00 0. -1.
         11    1    3    3    0    0 -0.18869885884E+02 -0.71232197509E+01  0.21234439450E+02  0.29286759323E+02  0.00000000000E+00 0.  1.
<mgrwt>
<rscale>  0 0.12302006E+03</rscale>
<asrwt>0</asrwt>
<pdfrwt beam="1">  1        1 0.90365241E-01 0.14444635E+03</pdfrwt>
<pdfrwt beam="2">  1       -1 0.31894318E-02 0.14444635E+03</pdfrwt>
<totfact> 0.11936701E+04</totfact>
</mgrwt>
</event>
<event>
 8    1  0.1273312E-005  0.1274481E+03  0.7546771E-02  0.1248670E+00
         -2   -1    0    0    0  501 -0.00000000000E+00  0.00000000000E+00  0.21460225787E+02  0.21460225787E+02  0.00000000000E+00 0.  1.
          2   -1    0    0  501    0  0.00000000000E+00 -0.00000000000E+00 -0.65420939134E+03  0.65420939134E+03  0.00000000000E+00 0. -1.
         23    2    1    2    0    0 -0.14774667382E+02  0.19977661632E+02 -0.13600821066E+03  0.16283963797E+03  0.86029742330E+02 0.  0.
         23    2    1    2    0    0  0.14774667382E+02 -0.19977661632E+02 -0.49674095489E+03  0.51282997916E+03  0.12500245397E+03 0.  0.
          5    1    4    4  502    0 -0.27547922232E+02  0.43074801636E+02 -0.19603683630E+03  0.20264959349E+03  0.47000000000E+01 0.  1.
         -5    1    4    4    0  502  0.42322589614E+02 -0.63052463269E+02 -0.30070411859E+03  0.31018038567E+03  0.47000000000E+01 0.  1.
        -11    1    3    3    0    0  0.35925298815E+02  0.56876116564E+01 -0.47259997900E+02  0.59636259296E+02  0.00000000000E+00 0. -1.
         11    1    3    3    0    0 -0.50699966197E+02  0.14290049976E+02 -0.88748212763E+02  0.10320337867E+03  0.00000000000E+00 0.  1.
<mgrwt>
<rscale>  0 0.11668410E+03</rscale>
<asrwt>0</asrwt>
<pdfrwt beam="2">  1        2 0.10064758E+00 0.12744807E+03</pdfrwt>
<pdfrwt beam="1">  1       -2 0.33015738E-02 0.12744807E+03</pdfrwt>
<totfact> 0.15775135E+04</totfact>
</mgrwt>
</event>
<event>
 8    1  0.1273312E-005  0.1352976E+03  0.7546771E-02  0.1232260E+00
         -1   -1    0    0    0  501 -0.00000000000E+00  0.00000000000E+00  0.15705284129E+03  0.15705284129E+03  0.00000000000E+00 0.  1.
          1   -1    0    0  501    0  0.00000000000E+00 -0.00000000000E+00 -0.91667481024E+02  0.91667481024E+02  0.00000000000E+00 0. -1.
         23    2    1    2    0    0  0.18323827725E+02 -0.48423162062E+02  0.22878650948E+02  0.10690262350E+03  0.90687225982E+02 0.  0.
         23    2    1    2    0    0 -0.18323827725E+02  0.48423162062E+02  0.42506709317E+02  0.14181769881E+03  0.12499949628E+03 0.  0.
          5    1    4    4  502    0 -0.39365372259E+02 -0.31278668995E+02  0.28762709597E+02  0.58115154052E+02  0.47000000000E+01 0. -1.
         -5    1    4    4    0  502  0.21041544534E+02  0.79701831057E+02  0.13743999720E+02  0.83702544755E+02  0.47000000000E+01 0. -1.
        -11    1    3    3    0    0  0.39238402436E+02 -0.61966087049E+02  0.32461098971E+02  0.80207051537E+02  0.00000000000E+00 0.  1.
         11    1    3    3    0    0 -0.20914574710E+02  0.13542924987E+02 -0.95824480239E+01  0.26695571967E+02  0.00000000000E+00 0. -1.
<mgrwt>
<rscale>  0 0.12681466E+03</rscale>
<asrwt>0</asrwt>
<pdfrwt beam="2">  1        1 0.14102689E-01 0.13529760E+03</pdfrwt>
<pdfrwt beam="1">  1       -1 0.24161976E-01 0.13529760E+03</pdfrwt>
<totfact> 0.56718775E+03</totfact>
</mgrwt>
</event>
<event>
 8    1  0.1273312E-005  0.3203365E+03  0.7546771E-02  0.1076890E+00
          1   -1    0    0  501    0  0.00000000000E+00  0.00000000000E+00  0.43738315805E+03  0.43738315805E+03  0.00000000000E+00 0. -1.
         -1   -1    0    0    0  501 -0.00000000000E+00 -0.00000000000E+00 -0.23343220589E+03  0.23343220589E+03  0.00000000000E+00 0.  1.
         23    2    1    2    0    0 -0.41438825598E+02 -0.29201379061E+03  0.40184662380E+02  0.31104478649E+03  0.90248667239E+02 0.  0.
         23    2    1    2    0    0  0.41438825598E+02  0.29201379061E+03  0.16376628978E+03  0.35977057745E+03  0.12500496212E+03 0.  0.
          5    1    4    4  502    0  0.33608240089E+02  0.39860178460E+02 -0.10145075368E+02  0.53323167413E+02  0.47000000000E+01 0.  1.
         -5    1    4    4    0  502  0.78305855090E+01  0.25215361215E+03  0.17391136515E+03  0.30644741003E+03  0.47000000000E+01 0.  1.
        -11    1    3    3    0    0 -0.51660485161E+02 -0.75333014399E+02  0.71793045154E+01  0.91626476517E+02  0.00000000000E+00 0.  1.
         11    1    3    3    0    0  0.10221659563E+02 -0.21668077621E+03  0.33005357865E+02  0.21941830997E+03  0.00000000000E+00 0. -1.
<mgrwt>
<rscale>  0 0.31731954E+03</rscale>
<asrwt>0</asrwt>
<pdfrwt beam="1">  1        1 0.67289717E-01 0.32033650E+03</pdfrwt>
<pdfrwt beam="2">  1       -1 0.35912647E-01 0.32033650E+03</pdfrwt>
<totfact> 0.40452198E+02</totfact>
</mgrwt>
</event>
<event>
 8    1  0.1296381E-005  0.1506924E+03  0.7546771E-02  0.1208673E+00
          2   -1    0    0  501    0  0.00000000000E+00  0.00000000000E+00  0.33004390650E+03  0.33004390650E+03  0.00000000000E+00 0. -1.
         -2   -1    0    0    0  501 -0.00000000000E+00 -0.00000000000E+00 -0.62044928176E+02  0.62044928176E+02  0.00000000000E+00 0.  1.
         23    2    1    2    0    0  0.42296572410E+02  0.72762328909E+02  0.67154627662E+02  0.14099791310E+03  0.91034668876E+02 0.  0.
         23    2    1    2    0    0 -0.42296572410E+02 -0.72762328909E+02  0.20084435066E+03  0.25109092157E+03  0.12499936463E+03 0.  0.
          5    1    4    4  502    0 -0.15752630314E+02 -0.10355815634E+03  0.17042068765E+03  0.20009432247E+03  0.47000000000E+01 0. -1.
         -5    1    4    4    0  502 -0.26543942096E+02  0.30795827427E+02  0.30423663010E+02  0.50996599101E+02  0.47000000000E+01 0. -1.
        -11    1    3    3    0    0  0.27025294769E+02  0.16033278859E+02 -0.18998770858E+02  0.36720374214E+02  0.00000000000E+00 0.  1.
         11    1    3    3    0    0  0.15271277641E+02  0.56729050051E+02  0.86153398520E+02  0.10427753889E+03  0.00000000000E+00 0. -1.
<mgrwt>
<rscale>  0 0.14351758E+03</rscale>
<asrwt>0</asrwt>
<pdfrwt beam="1">  1        2 0.50775985E-01 0.15069239E+03</pdfrwt>
<pdfrwt beam="2">  1       -2 0.95453738E-02 0.15069239E+03</pdfrwt>
<totfact> 0.67650668E+03</totfact>
</mgrwt>
</event>
<event>
 8    1  0.1273312E-005  0.1804700E+03  0.7546771E-02  0.1172818E+00
         -2   -1    0    0    0  501 -0.00000000000E+00  0.00000000000E+00  0.10003454426E+03  0.10003454426E+03  0.00000000000E+00 0.  1.
          2   -1    0    0  501    0  0.00000000000E+00 -0.00000000000E+00 -0.32498017371E+03  0.32498017371E+03  0.00000000000E+00 0. -1.
         23    2    1    2    0    0 -0.11609358653E+03  0.58908071165E+02 -0.35094868440E+02  0.16307438055E+03  0.91726343655E+02 0.  0.
         23    2    1    2    0    0  0.11609358653E+03 -0.58908071165E+02 -0.18985076101E+03  0.26194033741E+03  0.12498618813E+03 0.  0.
          5    1    4    4  502    0  0.21026615025E+01 -0.33748216118E+02 -0.12232721691E+03  0.12700157981E+03  0.47000000000E+01 0.  1.
         -5    1    4    4    0  502  0.11399092503E+03 -0.25159855047E+02 -0.67523544094E+02  0.13493875760E+03  0.47000000000E+01 0.  1.
        -11    1    3    3    0    0 -0.52495192763E+02 -0.17532388396E+02  0.56070150123E+01  0.55628846146E+02  0.00000000000E+00 0. -1.
         11    1    3    3    0    0 -0.63598393769E+02  0.76440459561E+02 -0.40701883452E+02  0.10744553441E+03  0.00000000000E+00 0.  1.
<mgrwt>
<rscale>  0 0.17491453E+03</rscale>
<asrwt>0</asrwt>
<pdfrwt beam="2">  1        2 0.49996950E-01 0.18047002E+03</pdfrwt>
<pdfrwt beam="1">  1       -2 0.15389930E-01 0.18047002E+03</pdfrwt>
<totfact> 0.32216996E+03</totfact>
</mgrwt>
</event>
<event>
 8    1  0.1273312E-005  0.1289552E+03  0.7546771E-02  0.1243262E+00
          2   -1    0    0  501    0  0.00000000000E+00  0.00000000000E+00  0.11160417656E+04  0.11160417656E+04  0.00000000000E+00 0. -1.
         -2   -1    0    0    0  501 -0.00000000000E+00 -0.00000000000E+00 -0.16509056826E+02  0.16509056826E+02  0.00000000000E+00 0.  1.
         23    2    1    2    0    0  0.31593219861E+02  0.28989172842E+01  0.18145336976E+03  0.20545907425E+03  0.91003134726E+02 0.  0.
         23    2    1    2    0    0 -0.31593219861E+02 -0.28989172842E+01  0.91807933904E+03  0.92709174820E+03  0.12499160595E+03 0.  0.
          5    1    4    4  502    0 -0.18285106172E+02  0.58900763718E+02  0.56413011939E+03  0.56751081635E+03  0.47000000000E+01 0.  1.
         -5    1    4    4    0  502 -0.13308113689E+02 -0.61799681003E+02  0.35394921965E+03  0.35958093185E+03  0.47000000000E+01 0.  1.
        -11    1    3    3    0    0  0.54115213989E+02 -0.45303900064E+01  0.56849382898E+02  0.78618274940E+02  0.00000000000E+00 0.  1.
         11    1    3    3    0    0 -0.22521994129E+02  0.74293072906E+01  0.12460398686E+03  0.12684079931E+03  0.00000000000E+00 0. -1.
<mgrwt>
<rscale>  0 0.11990022E+03</rscale>
<asrwt>0</asrwt>
<pdfrwt beam="1">  1        2 0.17169867E+00 0.12895517E+03</pdfrwt>
<pdfrwt beam="2">  1       -2 0.25398558E-02 0.12895517E+03</pdfrwt>
<totfact> 0.11669268E+04</totfact>
</mgrwt>
</event>
<event>
 7    1  0.1273312E-005  0.1878174E+03  0.7546771E-02  0.1180547E+00
          1   -1    0    0  501    0  0.00000000000E+00  0.00000000000E+00  0.56461940259E+03  0.56461940259E+03  0.00000000000E+00 0. -1.
         -1   -1    0    0    0  501 -0.00000000000E+00 -0.00000000000E+00 -0.95038624812E+02  0.95038624812E+02  0.00000000000E+00 0.  1.
         23    2    1    2    0    0  0.44662374174E+01  0.73717773591E+02 -0.32993714575E+02  0.12313543836E+03  0.92841227684E+02 0.  0.
          5    1    1    2  502    0 -0.44511499266E+02  0.15542332487E+02  0.36260678744E+03  0.36568922594E+03  0.47000000000E+01 0. -1.
         -5    1    1    2    0  502  0.40045261849E+02 -0.89260106078E+02  0.13996770491E+03  0.17083336311E+03  0.47000000000E+01 0.  1.
        -11    1    3    3    0    0  0.23896262881E+02  0.90101898500E+02 -0.25850851198E+02  0.96734947153E+02  0.00000000000E+00 0.  1.
         11    1    3    3    0    0 -0.19430025463E+02 -0.16384124909E+02 -0.71428633773E+01  0.26400491203E+02  0.00000000000E+00 0. -1.
<mgrwt>
<rscale>  0 0.16743763E+03</rscale>
<asrwt>0</asrwt>
<pdfrwt beam="1">  1        1 0.86864522E-01 0.18781738E+03</pdfrwt>
<pdfrwt beam="2">  1       -1 0.14621327E-01 0.18781738E+03</pdfrwt>
<totfact> 0.12781774E+03</totfact>
</mgrwt>
</event>
<event>
 8    1  0.1273312E-005  0.1807509E+03  0.7546771E-02  0.1172443E+00
         -3   -1    0    0    0  501 -0.00000000000E+00  0.00000000000E+00  0.56535764830E+02  0.56535764830E+02  0.00000000000E+00 0.  1.
          3   -1    0    0  501    0  0.00000000000E+00 -0.00000000000E+00 -0.68531411257E+03  0.68531411257E+03  0.00000000000E+00 0. -1.
         23    2    1    2    0    0 -0.82482708157E+02 -0.10130882288E+03 -0.11425493717E+03  0.19650114789E+03  0.92150071718E+02 0.  0.
         23    2    1    2    0    0  0.82482708157E+02  0.10130882288E+03 -0.51452341057E+03  0.54534872950E+03  0.12491605985E+03 0.  0.
          5    1    4    4  502    0  0.72812063557E+02 -0.13443649841E+01 -0.15530362818E+03  0.17159461192E+03  0.47000000000E+01 0.  1.
         -5    1    4    4    0  502  0.96706446005E+01  0.10265318786E+03 -0.35921978239E+03  0.37375411758E+03  0.47000000000E+01 0.  1.
        -11    1    3    3    0    0 -0.64369279793E+02 -0.21974436001E+02 -0.87527683749E+02  0.11084843454E+03  0.00000000000E+00 0.  1.
         11    1    3    3    0    0 -0.18113428365E+02 -0.79334386879E+02 -0.26727253420E+02  0.85652713349E+02  0.00000000000E+00 0. -1.
<mgrwt>
<rscale>  0 0.17528806E+03</rscale>
<asrwt>0</asrwt>
<pdfrwt beam="2">  1        3 0.10543294E+00 0.18075092E+03</pdfrwt>
<pdfrwt beam="1">  1       -3 0.86978096E-02 0.18075092E+03</pdfrwt>
<totfact> 0.18039311E+02</totfact>
</mgrwt>
</event>
<event>
 8    1  0.1273312E-005  0.1766752E+03  0.7546771E-02  0.1177123E+00
         -1   -1    0    0    0  501 -0.00000000000E+00  0.00000000000E+00  0.19476349035E+03  0.19476349035E+03  0.00000000000E+00 0.  1.
          1   -1    0    0  501    0  0.00000000000E+00 -0.00000000000E+00 -0.18345388942E+03  0.18345388942E+03  0.00000000000E+00 0. -1.
         23    2    1    2    0    0 -0.74078486694E+02  0.10050837490E+03  0.96893995265E+02  0.18190436092E+03  0.90062170674E+02 0.  0.
         23    2    1    2    0    0  0.74078486694E+02 -0.10050837490E+03 -0.85584394338E+02  0.19631301886E+03  0.12499822879E+03 0.  0.
          5    1    4    4  502    0 -0.24492412489E+02 -0.11993482701E+02  0.13519658642E+02  0.30799238086E+02  0.47000000000E+01 0.  1.
         -5    1    4    4    0  502  0.98570899183E+02 -0.88514892203E+02 -0.99104052980E+02  0.16551378077E+03  0.47000000000E+01 0.  1.
        -11    1    3    3    0    0 -0.38932727384E+02  0.67472261617E+02  0.49257626696E+01  0.78054637833E+02  0.00000000000E+00 0. -1.
         11    1    3    3    0    0 -0.35145759310E+02  0.33036113287E+02  0.91968232595E+02  0.10384972309E+03  0.00000000000E+00 0.  1.
<mgrwt>
<rscale>  0 0.17069739E+03</rscale>
<asrwt>0</asrwt>
<pdfrwt beam="2">  1        1 0.28223675E-01 0.17667516E+03</pdfrwt>
<pdfrwt beam="1">  1       -1 0.29963614E-01 0.17667516E+03</pdfrwt>
<totfact> 0.16560282E+03</totfact>
</mgrwt>
</event>
<event>
 8    1  0.1273312E-005  0.1842334E+03  0.7546771E-02  0.1168856E+00
          2   -1    0    0  501    0  0.00000000000E+00  0.00000000000E+00  0.69160720116E+03  0.69160720116E+03  0.00000000000E+00 0. -1.
         -2   -1    0    0    0  501 -0.00000000000E+00 -0.00000000000E+00 -0.63121545457E+02  0.63121545457E+02  0.00000000000E+00 0.  1.
         23    2    1    2    0    0 -0.12243370699E+03 -0.57679625455E+02  0.92961164498E+02  0.18839984090E+03  0.92389231756E+02 0.  0.
         23    2    1    2    0    0  0.12243370699E+03  0.57679625455E+02  0.53552449121E+03  0.56632890573E+03  0.12499998790E+03 0.  0.
          5    1    4    4  502    0  0.76740425337E+00  0.92287882716E+01 -0.39920525552E+01  0.11125912361E+02  0.47000000000E+01 0.  1.
         -5    1    4    4    0  502  0.12166630274E+03  0.48450837184E+02  0.53951654376E+03  0.55520299336E+03  0.47000000000E+01 0.  1.
        -11    1    3    3    0    0 -0.10952508095E+03 -0.68328190651E+02  0.43561350085E+02  0.13624271069E+03  0.00000000000E+00 0.  1.
         11    1    3    3    0    0 -0.12908626036E+02  0.10648565196E+02  0.49399814414E+02  0.52157130202E+02  0.00000000000E+00 0. -1.
<mgrwt>
<rscale>  0 0.17891627E+03</rscale>
<asrwt>0</asrwt>
<pdfrwt beam="1">  1        2 0.10640110E+00 0.18423341E+03</pdfrwt>
<pdfrwt beam="2">  1       -2 0.97110074E-02 0.18423341E+03</pdfrwt>
<totfact> 0.29247941E+03</totfact>
</mgrwt>
</event>
<event>
 8    1  0.1273312E-005  0.1448052E+03  0.7546771E-02  0.1216818E+00
          2   -1    0    0  501    0  0.00000000000E+00  0.00000000000E+00  0.84335002952E+03  0.84335002952E+03  0.00000000000E+00 0.  1.
         -2   -1    0    0    0  501 -0.00000000000E+00 -0.00000000000E+00 -0.20747184065E+02  0.20747184065E+02  0.00000000000E+00 0. -1.
         23    2    1    2    0    0  0.14731008202E+02 -0.71593818166E+02  0.31346749116E+03  0.33476996010E+03  0.92012938051E+02 0.  0.
         23    2    1    2    0    0 -0.14731008202E+02  0.71593818166E+02  0.50913535430E+03  0.52932725349E+03  0.12500341951E+03 0.  0.
          5    1    4    4  502    0  0.20067882675E+02  0.11526929835E+02  0.10471559488E+02  0.25832800556E+02  0.47000000000E+01 0.  1.
         -5    1    4    4    0  502 -0.34798890876E+02  0.60066888331E+02  0.49866379481E+03  0.50349445293E+03  0.47000000000E+01 0.  1.
        -11    1    3    3    0    0 -0.31055290336E+02 -0.62510664966E+02  0.16558246151E+03  0.17969297663E+03  0.00000000000E+00 0. -1.
         11    1    3    3    0    0  0.45786298537E+02 -0.90831532002E+01  0.14788502965E+03  0.15507698347E+03  0.00000000000E+00 0.  1.
<mgrwt>
<rscale>  0 0.13743854E+03</rscale>
<asrwt>0</asrwt>
<pdfrwt beam="1">  1        2 0.12974613E+00 0.14480515E+03</pdfrwt>
<pdfrwt beam="2">  1       -2 0.31918751E-02 0.14480515E+03</pdfrwt>
<totfact> 0.12295609E+04</totfact>
</mgrwt>
</event>
<event>
 8    1  0.1273313E-005  0.2523129E+03  0.7546771E-02  0.1113682E+00
         -2   -1    0    0    0  501 -0.00000000000E+00  0.00000000000E+00  0.56621304455E+02  0.56621304455E+02  0.00000000000E+00 0. -1.
          2   -1    0    0  501    0  0.00000000000E+00 -0.00000000000E+00 -0.11460699188E+04  0.11460699188E+04  0.00000000000E+00 0.  1.
         23    2    1    2    0    0  0.17746353801E+03 -0.12862143805E+03 -0.38209997081E+03  0.45168928307E+03  0.99930171099E+02 0.  0.
         23    2    1    2    0    0 -0.17746353801E+03  0.12862143805E+03 -0.70734864356E+03  0.75100194021E+03  0.12500011602E+03 0.  0.
          5    1    4    4  502    0 -0.18615478701E+03  0.14193163993E+03 -0.63532751653E+03  0.67709773179E+03  0.47000000000E+01 0. -1.
         -5    1    4    4    0  502  0.86912490032E+01 -0.13310201874E+02 -0.72021127032E+02  0.73904208419E+02  0.47000000000E+01 0. -1.
        -11    1    3    3    0    0  0.17885705891E+02 -0.67346305738E+02 -0.10129659873E+03  0.12294886858E+03  0.00000000000E+00 0. -1.
         11    1    3    3    0    0  0.15957783212E+03 -0.61275132316E+02 -0.28080337208E+03  0.32874041448E+03  0.00000000000E+00 0.  1.
<mgrwt>
<rscale>  0 0.24940461E+03</rscale>
<asrwt>0</asrwt>
<pdfrwt beam="2">  1        2 0.17631847E+00 0.25231292E+03</pdfrwt>
<pdfrwt beam="1">  1       -2 0.87109690E-02 0.25231292E+03</pdfrwt>
<totfact> 0.17744891E+03</totfact>
</mgrwt>
</event>
<event>
 8    1  0.1273312E-005  0.1398693E+03  0.7546771E-02  0.1224721E+00
          2   -1    0    0  501    0  0.00000000000E+00  0.00000000000E+00  0.40969356619E+03  0.40969356619E+03  0.00000000000E+00 0. -1.
         -2   -1    0    0    0  501 -0.00000000000E+00 -0.00000000000E+00 -0.47440845501E+02  0.47440845501E+02  0.00000000000E+00 0.  1.
         23    2    1    2    0    0  0.58018939031E+02  0.23920802776E+02  0.63916014342E+02  0.12763749440E+03  0.90926734222E+02 0.  0.
         23    2    1    2    0    0 -0.58018939031E+02 -0.23920802776E+02  0.29833670634E+03  0.32949691729E+03  0.12500010423E+03 0.  0.
          5    1    4    4  502    0 -0.92666613659E+02  0.71945055107E+01  0.19859957670E+03  0.21932337783E+03  0.47000000000E+01 0. -1.
         -5    1    4    4    0  502  0.34647674629E+02 -0.31115308287E+02  0.99737129643E+02  0.11017353946E+03  0.47000000000E+01 0. -1.
        -11    1    3    3    0    0  0.17497386048E+02  0.52327686941E+02  0.13106088239E+02  0.56710800453E+02  0.00000000000E+00 0.  1.
         11    1    3    3    0    0  0.40521552982E+02 -0.28406884164E+02  0.50809926103E+02  0.70926693950E+02  0.00000000000E+00 0. -1.
<mgrwt>
<rscale>  0 0.13186024E+03</rscale>
<asrwt>0</asrwt>
<pdfrwt beam="1">  1        2 0.63029777E-01 0.13986933E+03</pdfrwt>
<pdfrwt beam="2">  1       -2 0.72985919E-02 0.13986933E+03</pdfrwt>
<totfact> 0.81080637E+03</totfact>
</mgrwt>
</event>
<event>
 8    1  0.1273312E-005  0.1272534E+03  0.7546771E-02  0.1247514E+00
         -1   -1    0    0    0  501 -0.00000000000E+00  0.00000000000E+00  0.97153932851E+01  0.97153932851E+01  0.00000000000E+00 0.  1.
          1   -1    0    0  501    0  0.00000000000E+00 -0.00000000000E+00 -0.15798189419E+04  0.15798189419E+04  0.00000000000E+00 0. -1.
         23    2    1    2    0    0  0.23265159641E+02  0.12572116842E+02 -0.32028868726E+03  0.33325784991E+03  0.88185177681E+02 0.  0.
         23    2    1    2    0    0 -0.23265159641E+02 -0.12572116842E+02 -0.12498148613E+04  0.12562764852E+04  0.12447527476E+03 0.  0.
          5    1    4    4  502    0 -0.13934730488E+02 -0.46960895438E+02 -0.20426138899E+03  0.21010546744E+03  0.47000000000E+01 0. -1.
         -5    1    4    4    0  502 -0.93304291526E+01  0.34388778595E+02 -0.10455534723E+04  0.10461710178E+04  0.47000000000E+01 0.  1.
        -11    1    3    3    0    0 -0.27971719618E+02 -0.13533482779E+02 -0.15942450057E+03  0.16242457830E+03  0.00000000000E+00 0. -1.
         11    1    3    3    0    0  0.51236879259E+02  0.26105599621E+02 -0.16086418670E+03  0.17083327161E+03  0.00000000000E+00 0.  1.
<mgrwt>
<rscale>  0 0.11736147E+03</rscale>
<asrwt>0</asrwt>
<pdfrwt beam="2">  1        1 0.24304929E+00 0.12725337E+03</pdfrwt>
<pdfrwt beam="1">  1       -1 0.14946745E-02 0.12725337E+03</pdfrwt>
<totfact> 0.65034531E+03</totfact>
</mgrwt>
</event>
<event>
 8    1  0.1273312E-005  0.1335686E+03  0.7546771E-02  0.1235040E+00
          2   -1    0    0  501    0  0.00000000000E+00  0.00000000000E+00  0.82362671732E+03  0.82362671732E+03  0.00000000000E+00 0. -1.
         -2   -1    0    0    0  501 -0.00000000000E+00 -0.00000000000E+00 -0.16927851845E+02  0.16927851845E+02  0.00000000000E+00 0.  1.
         23    2    1    2    0    0 -0.30838904382E+02  0.35539452559E+02  0.34009620068E+03  0.35521076230E+03  0.91077819627E+02 0.  0.
         23    2    1    2    0    0  0.30838904382E+02 -0.35539452559E+02  0.46660266480E+03  0.48534380686E+03  0.12500589327E+03 0.  0.
          5    1    4    4  502    0 -0.36353413941E+02 -0.14792683969E+02  0.54887073217E+02  0.67639300784E+02  0.47000000000E+01 0. -1.
         -5    1    4    4    0  502  0.67192318323E+02 -0.20746768590E+02  0.41171559158E+03  0.41770450608E+03  0.47000000000E+01 0. -1.
        -11    1    3    3    0    0 -0.20895470671E+02 -0.25021373727E+02  0.58166749584E+02  0.66678786694E+02  0.00000000000E+00 0.  1.
         11    1    3    3    0    0 -0.99434337109E+01  0.60560826286E+02  0.28192945109E+03  0.28853197561E+03  0.00000000000E+00 0. -1.
<mgrwt>
<rscale>  0 0.12501863E+03</rscale>
<asrwt>0</asrwt>
<pdfrwt beam="1">  1        2 0.12671177E+00 0.13356857E+03</pdfrwt>
<pdfrwt beam="2">  1       -2 0.26042855E-02 0.13356857E+03</pdfrwt>
<totfact> 0.16988024E+04</totfact>
</mgrwt>
</event>
<event>
 8    1  0.1273312E-005  0.1428200E+03  0.7546771E-02  0.1220104E+00
          3   -1    0    0  501    0  0.00000000000E+00  0.00000000000E+00  0.85882991936E+02  0.85882991936E+02  0.00000000000E+00 0. -1.
         -3   -1    0    0    0  501 -0.00000000000E+00 -0.00000000000E+00 -0.24418731672E+03  0.24418731672E+03  0.00000000000E+00 0.  1.
         23    2    1    2    0    0 -0.61934948810E+02 -0.30631176508E+02 -0.14783967942E+03  0.18686746376E+03  0.91042140483E+02 0.  0.
         23    2    1    2    0    0  0.61934948810E+02  0.30631176508E+02 -0.10464645363E+02  0.14320284489E+03  0.12499335632E+03 0.  0.
          5    1    4    4  502    0  0.57922220555E+02 -0.37114519172E+02 -0.25529633832E+02  0.73527704786E+02  0.47000000000E+01 0. -1.
         -5    1    4    4    0  502  0.40127282548E+01  0.67745695680E+02  0.15064988468E+02  0.69675140106E+02  0.47000000000E+01 0. -1.
        -11    1    3    3    0    0 -0.60423877519E+02  0.50258052166E+01 -0.38433558879E+02  0.71787478996E+02  0.00000000000E+00 0. -1.
         11    1    3    3    0    0 -0.15110712913E+01 -0.35656981725E+02 -0.10940612054E+03  0.11507998476E+03  0.00000000000E+00 0.  1.
<mgrwt>
<rscale>  0 0.13508172E+03</rscale>
<asrwt>0</asrwt>
<pdfrwt beam="1">  1        3 0.13212768E-01 0.14281998E+03</pdfrwt>
<pdfrwt beam="2">  1       -3 0.37567279E-01 0.14281998E+03</pdfrwt>
<totfact> 0.75348735E+02</totfact>
</mgrwt>
</event>
<event>
 8    1  0.1273312E-005  0.1229495E+03  0.7546771E-02  0.1251566E+00
          1   -1    0    0  501    0  0.00000000000E+00  0.00000000000E+00  0.56779867857E+03  0.56779867857E+03  0.00000000000E+00 0. -1.
         -1   -1    0    0    0  501 -0.00000000000E+00 -0.00000000000E+00 -0.21994514196E+02  0.21994514196E+02  0.00000000000E+00 0.  1.
         23    2    1    2    0    0 -0.13432217295E+02 -0.33910820573E+02  0.16913137963E+03  0.19356225139E+03  0.86778761064E+02 0.  0.
         23    2    1    2    0    0  0.13432217295E+02  0.33910820573E+02  0.37667278474E+03  0.39623094138E+03  0.11741466658E+03 0.  0.
          5    1    4    4  502    0  0.35931777488E+02 -0.81941988124E+01  0.31926356479E+03  0.32141803205E+03  0.47000000000E+01 0. -1.
         -5    1    4    4    0  502 -0.22499560193E+02  0.42105019385E+02  0.57409219952E+02  0.74812909326E+02  0.47000000000E+01 0.  1.
        -11    1    3    3    0    0  0.36000270121E+01  0.26194657802E+02  0.24632120502E+02  0.36136707823E+02  0.00000000000E+00 0.  1.
         11    1    3    3    0    0 -0.17032244307E+02 -0.60105478375E+02  0.14449925913E+03  0.15742554356E+03  0.00000000000E+00 0. -1.
<mgrwt>
<rscale>  0 0.11500848E+03</rscale>
<asrwt>0</asrwt>
<pdfrwt beam="1">  1        1 0.87353632E-01 0.12294947E+03</pdfrwt>
<pdfrwt beam="2">  1       -1 0.33837718E-02 0.12294947E+03</pdfrwt>
<totfact> 0.11328134E+04</totfact>
</mgrwt>
</event>
<event>
 8    1  0.1273312E-005  0.1570342E+03  0.7546771E-02  0.1200493E+00
          1   -1    0    0  501    0  0.00000000000E+00  0.00000000000E+00  0.99348957525E+02  0.99348957525E+02  0.00000000000E+00 0. -1.
         -1   -1    0    0    0  501 -0.00000000000E+00 -0.00000000000E+00 -0.21167128885E+03  0.21167128885E+03  0.00000000000E+00 0.  1.
         23    2    1    2    0    0 -0.61818526139E+02 -0.72194289755E+02 -0.70644361972E+02  0.14854934784E+03  0.89681309188E+02 0.  0.
         23    2    1    2    0    0  0.61818526139E+02  0.72194289755E+02 -0.41677969352E+02  0.16247089853E+03  0.12500477629E+03 0.  0.
          5    1    4    4  502    0  0.76358923896E+02  0.75280424118E+02  0.10661424448E+02  0.10785909088E+03  0.47000000000E+01 0. -1.
         -5    1    4    4    0  502 -0.14540397756E+02 -0.30861343634E+01 -0.52339393799E+02  0.54611807656E+02  0.47000000000E+01 0. -1.
        -11    1    3    3    0    0  0.10142621437E+02 -0.45131060056E+02 -0.51690303414E+02  0.69365501645E+02  0.00000000000E+00 0.  1.
         11    1    3    3    0    0 -0.71961147576E+02 -0.27063229699E+02 -0.18954058557E+02  0.79183846194E+02  0.00000000000E+00 0. -1.
<mgrwt>
<rscale>  0 0.14998397E+03</rscale>
<asrwt>0</asrwt>
<pdfrwt beam="1">  1        1 0.15284455E-01 0.15703420E+03</pdfrwt>
<pdfrwt beam="2">  1       -1 0.32564813E-01 0.15703420E+03</pdfrwt>
<totfact> 0.31315004E+03</totfact>
</mgrwt>
</event>
<event>
 7    1  0.1273312E-005  0.1745215E+03  0.7546771E-02  0.1186489E+00
          2   -1    0    0  501    0  0.00000000000E+00  0.00000000000E+00  0.67965691132E+03  0.67965691132E+03  0.00000000000E+00 0. -1.
         -2   -1    0    0    0  501 -0.00000000000E+00 -0.00000000000E+00 -0.34325416812E+02  0.34325416812E+02  0.00000000000E+00 0.  1.
         23    2    1    2    0    0  0.22054275902E+02  0.89505263268E+02  0.24065147119E+03  0.27327418467E+03  0.90928907309E+02 0.  0.
          5    1    1    2  502    0 -0.55575112809E+02  0.19085189004E+02  0.10926473557E+03  0.12415196351E+03  0.47000000000E+01 0. -1.
         -5    1    1    2    0  502  0.33520836907E+02 -0.10859045227E+03  0.29541528774E+03  0.31655617995E+03  0.47000000000E+01 0.  1.
        -11    1    3    3    0    0  0.54443274094E+02  0.38095025441E+02  0.10005585571E+03  0.12011026318E+03  0.00000000000E+00 0.  1.
         11    1    3    3    0    0 -0.32388998192E+02  0.51410237827E+02  0.14059561547E+03  0.15316392150E+03  0.00000000000E+00 0. -1.
<mgrwt>
<rscale>  0 0.16197173E+03</rscale>
<asrwt>0</asrwt>
<pdfrwt beam="1">  1        2 0.10456259E+00 0.17452148E+03</pdfrwt>
<pdfrwt beam="2">  1       -2 0.52808339E-02 0.17452148E+03</pdfrwt>
<totfact> 0.76345498E+03</totfact>
</mgrwt>
</event>
<event>
 8    1  0.1273312E-005  0.1404048E+03  0.7546771E-02  0.1225461E+00
         -1   -1    0    0    0  501 -0.00000000000E+00  0.00000000000E+00  0.24010336463E+03  0.24010336463E+03  0.00000000000E+00 0.  1.
          1   -1    0    0  501    0  0.00000000000E+00 -0.00000000000E+00 -0.64558903811E+02  0.64558903811E+02  0.00000000000E+00 0. -1.
         23    2    1    2    0    0 -0.63101868365E+02 -0.10334342744E+02  0.90067535054E+02  0.14028522141E+03  0.86482009938E+02 0.  0.
         23    2    1    2    0    0  0.63101868365E+02  0.10334342744E+02  0.85476925764E+02  0.16437704704E+03  0.12499945729E+03 0.  0.
          5    1    4    4  502    0 -0.12969365991E+02  0.27330172899E+02  0.80506322531E+02  0.86130719098E+02  0.47000000000E+01 0. -1.
         -5    1    4    4    0  502  0.76071234356E+02 -0.16995830155E+02  0.49706032332E+01  0.78246327937E+02  0.47000000000E+01 0. -1.
        -11    1    3    3    0    0 -0.31789310886E+02 -0.42501895978E+02  0.77019794311E+02  0.93536197079E+02  0.00000000000E+00 0.  1.
         11    1    3    3    0    0 -0.31312557479E+02  0.32167553234E+02  0.13047740743E+02  0.46749024326E+02  0.00000000000E+00 0. -1.
<mgrwt>
<rscale>  0 0.13135383E+03</rscale>
<asrwt>0</asrwt>
<pdfrwt beam="2">  1        1 0.99321391E-02 0.14040480E+03</pdfrwt>
<pdfrwt beam="1">  1       -1 0.36938979E-01 0.14040480E+03</pdfrwt>
<totfact> 0.44144975E+03</totfact>
</mgrwt>
</event>
<event>
 8    1  0.1273312E-005  0.1251203E+03  0.7546771E-02  0.1254257E+00
         -1   -1    0    0    0  501 -0.00000000000E+00  0.00000000000E+00  0.11441796208E+03  0.11441796208E+03  0.00000000000E+00 0.  1.
          1   -1    0    0  501    0  0.00000000000E+00 -0.00000000000E+00 -0.87656072098E+03  0.87656072098E+03  0.00000000000E+00 0. -1.
         23    2    1    2    0    0 -0.17877892760E+02  0.17881838191E+02  0.93557954875E+02  0.12617882414E+03  0.80799910604E+02 0.  0.
         23    2    1    2    0    0  0.17877892760E+02 -0.17881838191E+02 -0.85570071378E+03  0.86479985892E+03  0.12253858673E+03 0.  0.
          5    1    4    4  502    0 -0.34726552494E+02  0.81664832554E+01 -0.64561205847E+03  0.64661398449E+03  0.47000000000E+01 0. -1.
         -5    1    4    4    0  502  0.52604445254E+02 -0.26048321447E+02 -0.21008865532E+03  0.21818587444E+03  0.47000000000E+01 0.  1.
        -11    1    3    3    0    0  0.22399439989E+01 -0.30933938337E+02  0.43482953657E+02  0.53410608955E+02  0.00000000000E+00 0. -1.
         11    1    3    3    0    0 -0.20117836759E+02  0.48815776528E+02  0.50075001218E+02  0.72768215183E+02  0.00000000000E+00 0.  1.
<mgrwt>
<rscale>  0 0.11348032E+03</rscale>
<asrwt>0</asrwt>
<pdfrwt beam="2">  1        1 0.13485549E+00 0.12512028E+03</pdfrwt>
<pdfrwt beam="1">  1       -1 0.17602764E-01 0.12512028E+03</pdfrwt>
<totfact> 0.50510375E+02</totfact>
</mgrwt>
</event>
<event>
 8    1  0.1273312E-005  0.1647335E+03  0.7546771E-02  0.1190458E+00
          2   -1    0    0  501    0  0.00000000000E+00  0.00000000000E+00  0.22337557477E+03  0.22337557477E+03  0.00000000000E+00 0. -1.
         -2   -1    0    0    0  501 -0.00000000000E+00 -0.00000000000E+00 -0.10468025195E+03  0.10468025195E+03  0.00000000000E+00 0.  1.
         23    2    1    2    0    0  0.46416055352E+02  0.96757646090E+02  0.58832740661E+02  0.15278273784E+03  0.91459178534E+02 0.  0.
         23    2    1    2    0    0 -0.46416055352E+02 -0.96757646090E+02  0.59862582161E+02  0.17527308888E+03  0.12498253746E+03 0.  0.
          5    1    4    4  502    0 -0.39780343461E+02 -0.10882810099E+03  0.23945332930E+01  0.11599075429E+03  0.47000000000E+01 0. -1.
         -5    1    4    4    0  502 -0.66357118912E+01  0.12070454899E+02  0.57468048868E+02  0.59282334590E+02  0.47000000000E+01 0. -1.
        -11    1    3    3    0    0  0.54863787825E+02  0.45720505919E+02 -0.38367659292E+01  0.71520071650E+02  0.00000000000E+00 0.  1.
         11    1    3    3    0    0 -0.84477324725E+01  0.51037140170E+02  0.62669506590E+02  0.81262666194E+02  0.00000000000E+00 0. -1.
<mgrwt>
<rscale>  0 0.15844990E+03</rscale>
<asrwt>0</asrwt>
<pdfrwt beam="1">  1        2 0.34365473E-01 0.16473350E+03</pdfrwt>
<pdfrwt beam="2">  1       -2 0.16104654E-01 0.16473350E+03</pdfrwt>
<totfact> 0.44473303E+03</totfact>
</mgrwt>
</event>
<event>
 7    1  0.1273312E-005  0.1831408E+03  0.7546771E-02  0.1185675E+00
         -1   -1    0    0    0  501 -0.00000000000E+00  0.00000000000E+00  0.30737079987E+03  0.30737079987E+03  0.00000000000E+00 0.  1.
          1   -1    0    0  501    0  0.00000000000E+00 -0.00000000000E+00 -0.52059884388E+03  0.52059884388E+03  0.00000000000E+00 0. -1.
         23    2    1    2    0    0 -0.49232363011E+01  0.68485787917E+02  0.27972351658E+03  0.30209723942E+03  0.91120551650E+02 0.  0.
          5    1    1    2  502    0  0.49110815465E+02 -0.10221048324E+03 -0.22303028280E+03  0.25024678245E+03  0.47000000000E+01 0. -1.
         -5    1    1    2    0  502 -0.44187579163E+02  0.33724695321E+02 -0.26992127780E+03  0.27562562188E+03  0.47000000000E+01 0.  1.
        -11    1    3    3    0    0  0.12030815926E+01 -0.16645517058E+02  0.10617270382E+02  0.19779966476E+02  0.00000000000E+00 0. -1.
         11    1    3    3    0    0 -0.61263178937E+01  0.85131304975E+02  0.26910624620E+03  0.28231727294E+03  0.00000000000E+00 0.  1.
<mgrwt>
<rscale>  0 0.16270643E+03</rscale>
<asrwt>0</asrwt>
<pdfrwt beam="2">  1        1 0.80092130E-01 0.18314078E+03</pdfrwt>
<pdfrwt beam="1">  1       -1 0.47287815E-01 0.18314078E+03</pdfrwt>
<totfact> 0.19937423E+02</totfact>
</mgrwt>
</event>
<event>
 8    1  0.1273312E-005  0.1310986E+03  0.7546771E-02  0.1238749E+00
          2   -1    0    0  501    0  0.00000000000E+00  0.00000000000E+00  0.35319158891E+03  0.35319158891E+03  0.00000000000E+00 0. -1.
         -2   -1    0    0    0  501 -0.00000000000E+00 -0.00000000000E+00 -0.52010973205E+02  0.52010973205E+02  0.00000000000E+00 0.  1.
         23    2    1    2    0    0 -0.14615805680E+02  0.36738306411E+02  0.31480637983E+02  0.10532773818E+03  0.92409831347E+02 0.  0.
         23    2    1    2    0    0  0.14615805680E+02 -0.36738306411E+02  0.26969997772E+03  0.29987482393E+03  0.12499402830E+03 0.  0.
          5    1    4    4  502    0  0.15463772545E+02  0.86752426277E+01  0.24910828279E+03  0.24978273489E+03  0.47000000000E+01 0.  1.
         -5    1    4    4    0  502 -0.84796686467E+00 -0.45413549039E+02  0.20591694932E+02  0.50092089039E+02  0.47000000000E+01 0.  1.
        -11    1    3    3    0    0 -0.43020929507E+02  0.62947237632E+01  0.43990936786E+02  0.61851648662E+02  0.00000000000E+00 0. -1.
         11    1    3    3    0    0  0.28405123827E+02  0.30443582648E+02 -0.12510298803E+02  0.43476089523E+02  0.00000000000E+00 0.  1.
<mgrwt>
<rscale>  0 0.12267447E+03</rscale>
<asrwt>0</asrwt>
<pdfrwt beam="1">  1        2 0.54337166E-01 0.13109856E+03</pdfrwt>
<pdfrwt beam="2">  1       -2 0.80016884E-02 0.13109856E+03</pdfrwt>
<totfact> 0.82083713E+03</totfact>
</mgrwt>
</event>
<event>
 8    1  0.1273312E-005  0.1552893E+03  0.7546771E-02  0.1202117E+00
         -1   -1    0    0    0  501 -0.00000000000E+00  0.00000000000E+00  0.27638260877E+02  0.27638260877E+02  0.00000000000E+00 0.  1.
          1   -1    0    0  501    0  0.00000000000E+00 -0.00000000000E+00 -0.74471158450E+03  0.74471158450E+03  0.00000000000E+00 0. -1.
         23    2    1    2    0    0 -0.86100258927E+02  0.32745151793E+02 -0.29268049161E+03  0.32043830815E+03  0.92376077027E+02 0.  0.
         23    2    1    2    0    0  0.86100258927E+02 -0.32745151793E+02 -0.42439283201E+03  0.45191153722E+03  0.12501704709E+03 0.  0.
          5    1    4    4  502    0 -0.27462123064E+02 -0.26346324652E+02 -0.71816304209E+02  0.81412336756E+02  0.47000000000E+01 0.  1.
         -5    1    4    4    0  502  0.11356238199E+03 -0.63988271406E+01 -0.35257652780E+03  0.37049920046E+03  0.47000000000E+01 0.  1.
        -11    1    3    3    0    0 -0.81419925418E+02 -0.14731871621E+02 -0.18725434219E+03  0.20472034819E+03  0.00000000000E+00 0. -1.
         11    1    3    3    0    0 -0.46803335087E+01  0.47477023414E+02 -0.10542614943E+03  0.11571795996E+03  0.00000000000E+00 0.  1.
<mgrwt>
<rscale>  0 0.14866966E+03</rscale>
<asrwt>0</asrwt>
<pdfrwt beam="2">  1        1 0.11457100E+00 0.15528928E+03</pdfrwt>
<pdfrwt beam="1">  1       -1 0.42520406E-02 0.15528928E+03</pdfrwt>
<totfact> 0.56249283E+03</totfact>
</mgrwt>
</event>
<event>
 8    1  0.1273312E-005  0.1467485E+03  0.7546771E-02  0.1212008E+00
         -2   -1    0    0    0  501 -0.00000000000E+00  0.00000000000E+00  0.40368271388E+02  0.40368271388E+02  0.00000000000E+00 0.  1.
          2   -1    0    0  501    0  0.00000000000E+00 -0.00000000000E+00 -0.48544762140E+03  0.48544762140E+03  0.00000000000E+00 0. -1.
         23    2    1    2    0    0 -0.76881085189E+02 -0.11134578869E+01 -0.14277789732E+03  0.18977826280E+03  0.98581539959E+02 0.  0.
         23    2    1    2    0    0  0.76881085189E+02  0.11134578869E+01 -0.30230145270E+03  0.33603762999E+03  0.12499271746E+03 0.  0.
          5    1    4    4  502    0  0.10440537733E+03  0.27777129664E+02 -0.22242766191E+03  0.24732207044E+03  0.47000000000E+01 0. -1.
         -5    1    4    4    0  502 -0.27524292140E+02 -0.26663671777E+02 -0.79873790790E+02  0.88715559546E+02  0.47000000000E+01 0. -1.
        -11    1    3    3    0    0  0.15849011264E+02  0.51577965256E+01  0.29585654076E+01  0.16927703102E+02  0.00000000000E+00 0.  1.
         11    1    3    3    0    0 -0.92730096453E+02 -0.62712544125E+01 -0.14573646273E+03  0.17285055970E+03  0.00000000000E+00 0. -1.
<mgrwt>
<rscale>  0 0.14098601E+03</rscale>
<asrwt>0</asrwt>
<pdfrwt beam="2">  1        2 0.74684251E-01 0.14674849E+03</pdfrwt>
<pdfrwt beam="1">  1       -2 0.62105032E-02 0.14674849E+03</pdfrwt>
<totfact> 0.86625385E+03</totfact>
</mgrwt>
</event>
<event>
 8    1  0.1273312E-005  0.1301523E+03  0.7546771E-02  0.1240894E+00
          2   -1    0    0  501    0  0.00000000000E+00  0.00000000000E+00  0.32610183209E+03  0.32610183209E+03  0.00000000000E+00 0. -1.
         -2   -1    0    0    0  501 -0.00000000000E+00 -0.00000000000E+00 -0.44843680951E+02  0.44843680951E+02  0.00000000000E+00 0.  1.
         23    2    1    2    0    0  0.11985768195E+01  0.36235615297E+02  0.62888149772E+02  0.11673085723E+03  0.91415082161E+02 0.  0.
         23    2    1    2    0    0 -0.11985768195E+01 -0.36235615297E+02  0.21837000137E+03  0.25421465581E+03  0.12500070931E+03 0.  0.
          5    1    4    4  502    0  0.48056372780E+02 -0.54845840780E+02  0.15729403018E+03  0.17343870141E+03  0.47000000000E+01 0. -1.
         -5    1    4    4    0  502 -0.49254949599E+02  0.18610225483E+02  0.61075971187E+02  0.80775954399E+02  0.47000000000E+01 0. -1.
        -11    1    3    3    0    0  0.24972757179E+02  0.19382747240E+02 -0.13949160965E+02  0.34552982263E+02  0.00000000000E+00 0.  1.
         11    1    3    3    0    0 -0.23774180359E+02  0.16852868057E+02  0.76837310737E+02  0.82177874971E+02  0.00000000000E+00 0. -1.
<mgrwt>
<rscale>  0 0.12134556E+03</rscale>
<asrwt>0</asrwt>
<pdfrwt beam="1">  1        2 0.50169511E-01 0.13015235E+03</pdfrwt>
<pdfrwt beam="2">  1       -2 0.68990280E-02 0.13015235E+03</pdfrwt>
<totfact> 0.11210059E+04</totfact>
</mgrwt>
</event>
<event>
 8    1  0.1273312E-005  0.1511942E+03  0.7546771E-02  0.1207717E+00
         -3   -1    0    0    0  501 -0.00000000000E+00  0.00000000000E+00  0.65282967833E+02  0.65282967833E+02  0.00000000000E+00 0. -1.
          3   -1    0    0  501    0  0.00000000000E+00 -0.00000000000E+00 -0.43201939162E+03  0.43201939162E+03  0.00000000000E+00 0.  1.
         23    2    1    2    0    0  0.81528867198E+02  0.24232336437E+02 -0.30959035253E+02  0.12905494925E+03  0.91992150458E+02 0.  0.
         23    2    1    2    0    0 -0.81528867198E+02 -0.24232336437E+02 -0.33577738853E+03  0.36824741020E+03  0.12500215261E+03 0.  0.
          5    1    4    4  502    0 -0.54580116984E+02 -0.15626691538E+02 -0.33473851658E+03  0.33955139102E+03  0.47000000000E+01 0. -1.
         -5    1    4    4    0  502 -0.26948750215E+02 -0.86056448992E+01 -0.10388719515E+01  0.28696019187E+02  0.47000000000E+01 0. -1.
        -11    1    3    3    0    0  0.22467328786E+02  0.27088764531E+02 -0.54940801124E+02  0.65246253952E+02  0.00000000000E+00 0.  1.
         11    1    3    3    0    0  0.59061538412E+02 -0.28564280941E+01  0.23981765871E+02  0.63808695296E+02  0.00000000000E+00 0. -1.
<mgrwt>
<rscale>  0 0.14425390E+03</rscale>
<asrwt>0</asrwt>
<pdfrwt beam="2">  1        3 0.66464522E-01 0.15119425E+03</pdfrwt>
<pdfrwt beam="1">  1       -3 0.10043534E-01 0.15119425E+03</pdfrwt>
<totfact> 0.38412205E+02</totfact>
</mgrwt>
</event>
<event>
 8    1  0.1273312E-005  0.2093645E+03  0.7546771E-02  0.1145803E+00
         -3   -1    0    0    0  501 -0.00000000000E+00  0.00000000000E+00  0.27149731901E+03  0.27149731901E+03  0.00000000000E+00 0.  1.
          3   -1    0    0  501    0  0.00000000000E+00 -0.00000000000E+00 -0.14799946130E+03  0.14799946130E+03  0.00000000000E+00 0. -1.
         23    2    1    2    0    0  0.11769007421E+02 -0.16753922988E+03  0.54767206168E+02  0.19913936502E+03  0.91919185953E+02 0.  0.
         23    2    1    2    0    0 -0.11769007421E+02  0.16753922988E+03  0.68730651543E+02  0.22035741529E+03  0.12500233969E+03 0.  0.
          5    1    4    4  502    0 -0.63662931686E+01  0.17878137734E+03  0.85995224609E+02  0.19854616397E+03  0.47000000000E+01 0. -1.
         -5    1    4    4    0  502 -0.54027142523E+01 -0.11242147462E+02 -0.17264573066E+02  0.21811251317E+02  0.47000000000E+01 0. -1.
        -11    1    3    3    0    0  0.16819474777E+02 -0.60380255627E+02  0.66306455103E+02  0.91242621563E+02  0.00000000000E+00 0.  1.
         11    1    3    3    0    0 -0.50504673564E+01 -0.10715897425E+03 -0.11539248936E+02  0.10789674346E+03  0.00000000000E+00 0. -1.
<mgrwt>
<rscale>  0 0.20473728E+03</rscale>
<asrwt>0</asrwt>
<pdfrwt beam="2">  1        3 0.22769148E-01 0.20936449E+03</pdfrwt>
<pdfrwt beam="1">  1       -3 0.41768818E-01 0.20936449E+03</pdfrwt>
<totfact> 0.24925145E+02</totfact>
</mgrwt>
</event>
<event>
 8    1  0.1273312E-005  0.2544550E+03  0.7546771E-02  0.1112816E+00
         -1   -1    0    0    0  501 -0.00000000000E+00  0.00000000000E+00  0.78838900375E+02  0.78838900375E+02  0.00000000000E+00 0.  1.
          1   -1    0    0  501    0  0.00000000000E+00 -0.00000000000E+00 -0.78160307372E+03  0.78160307372E+03  0.00000000000E+00 0. -1.
         23    2    1    2    0    0  0.21834512228E+03 -0.38035874191E+02 -0.30299043312E+03  0.38655762305E+03  0.92207772028E+02 0.  0.
         23    2    1    2    0    0 -0.21834512228E+03  0.38035874191E+02 -0.39977374022E+03  0.47388435105E+03  0.12500405852E+03 0.  0.
          5    1    4    4  502    0 -0.13140847777E+03  0.75886247816E+02 -0.29960555727E+03  0.33587570705E+03  0.47000000000E+01 0.  1.
         -5    1    4    4    0  502 -0.86936644511E+02 -0.37850373625E+02 -0.10016818295E+03  0.13800864400E+03  0.47000000000E+01 0.  1.
        -11    1    3    3    0    0  0.12254861702E+03 -0.26401938390E+02 -0.95063449006E+02  0.15732858997E+03  0.00000000000E+00 0.  1.
         11    1    3    3    0    0  0.95796505261E+02 -0.11633935801E+02 -0.20792698411E+03  0.22922903308E+03  0.00000000000E+00 0. -1.
<mgrwt>
<rscale>  0 0.25077443E+03</rscale>
<asrwt>0</asrwt>
<pdfrwt beam="2">  1        1 0.12024662E+00 0.25445498E+03</pdfrwt>
<pdfrwt beam="1">  1       -1 0.12129062E-01 0.25445498E+03</pdfrwt>
<totfact> 0.10775248E+03</totfact>
</mgrwt>
</event>
<event>
 8    1  0.1273312E-005  0.1347259E+03  0.7546771E-02  0.1232308E+00
          1   -1    0    0  501    0  0.00000000000E+00  0.00000000000E+00  0.43915247521E+03  0.43915247521E+03  0.00000000000E+00 0. -1.
         -1   -1    0    0    0  501 -0.00000000000E+00 -0.00000000000E+00 -0.39090153996E+02  0.39090153996E+02  0.00000000000E+00 0.  1.
         23    2    1    2    0    0  0.12550667408E+02 -0.48679479659E+02  0.85070312521E+02  0.13564808063E+03  0.92931333323E+02 0.  0.
         23    2    1    2    0    0 -0.12550667408E+02  0.48679479659E+02  0.31499200869E+03  0.34259454858E+03  0.12499539265E+03 0.  0.
          5    1    4    4  502    0 -0.44457647411E+02  0.66133490077E+02  0.28262598266E+03  0.29368291914E+03  0.47000000000E+01 0. -1.
         -5    1    4    4    0  502  0.31906980003E+02 -0.17454010418E+02  0.32366026032E+02  0.48911629432E+02  0.47000000000E+01 0. -1.
        -11    1    3    3    0    0 -0.27438091544E+02 -0.19655164334E+02  0.78946059589E+02  0.85858340755E+02  0.00000000000E+00 0. -1.
         11    1    3    3    0    0  0.39988758951E+02 -0.29024315324E+02  0.61242529314E+01  0.49789739871E+02  0.00000000000E+00 0.  1.
<mgrwt>
<rscale>  0 0.12678358E+03</rscale>
<asrwt>0</asrwt>
<pdfrwt beam="1">  1        1 0.67561916E-01 0.13472587E+03</pdfrwt>
<pdfrwt beam="2">  1       -1 0.60138702E-02 0.13472587E+03</pdfrwt>
<totfact> 0.68315145E+03</totfact>
</mgrwt>
</event>
<event>
 7    1  0.1273312E-005  0.1789623E+03  0.7546771E-02  0.1191268E+00
          1   -1    0    0  501    0  0.00000000000E+00  0.00000000000E+00  0.57346252370E+03  0.57346252370E+03  0.00000000000E+00 0. -1.
         -1   -1    0    0    0  501 -0.00000000000E+00 -0.00000000000E+00 -0.64085652702E+02  0.64085652702E+02  0.00000000000E+00 0.  1.
         23    2    1    2    0    0  0.48802285571E+02  0.32719791872E+02  0.11681486992E+02  0.10865480857E+03  0.90648565510E+02 0.  0.
          5    1    1    2  502    0 -0.18551760817E+01 -0.98120680947E+02  0.28057189909E+03  0.29727729524E+03  0.47000000000E+01 0. -1.
         -5    1    1    2    0  502 -0.46947109490E+02  0.65400889075E+02  0.21712348491E+03  0.23161607259E+03  0.47000000000E+01 0.  1.
        -11    1    3    3    0    0  0.73470229539E+02  0.19739435792E+02 -0.48786995639E+01  0.76232025182E+02  0.00000000000E+00 0.  1.
         11    1    3    3    0    0 -0.24667943968E+02  0.12980356080E+02  0.16560186556E+02  0.32422783383E+02  0.00000000000E+00 0. -1.
<mgrwt>
<rscale>  0 0.15774378E+03</rscale>
<asrwt>0</asrwt>
<pdfrwt beam="1">  1        1 0.88225000E-01 0.17896228E+03</pdfrwt>
<pdfrwt beam="2">  1       -1 0.98593316E-02 0.17896228E+03</pdfrwt>
<totfact> 0.23077044E+03</totfact>
</mgrwt>
</event>
<event>
 8    1  0.1273312E-005  0.1499219E+03  0.7546771E-02  0.1210138E+00
          3   -1    0    0  501    0  0.00000000000E+00  0.00000000000E+00  0.46899052670E+03  0.46899052670E+03  0.00000000000E+00 0. -1.
         -3   -1    0    0    0  501 -0.00000000000E+00 -0.00000000000E+00 -0.39666132095E+02  0.39666132095E+02  0.00000000000E+00 0.  1.
         23    2    1    2    0    0 -0.58395551357E+02 -0.58693585908E+02  0.17284762306E+03  0.21157603418E+03  0.89627785849E+02 0.  0.
         23    2    1    2    0    0  0.58395551357E+02  0.58693585908E+02  0.25647677154E+03  0.29708062461E+03  0.12498634219E+03 0.  0.
          5    1    4    4  502    0  0.64096309487E+02  0.35597662009E+02  0.26208826204E+03  0.27219088437E+03  0.47000000000E+01 0. -1.
         -5    1    4    4    0  502 -0.57007581299E+01  0.23095923899E+02 -0.56114905010E+01  0.24889740249E+02  0.47000000000E+01 0. -1.
        -11    1    3    3    0    0 -0.72940627732E+02 -0.59732360306E+02  0.10060141287E+03  0.13787289187E+03  0.00000000000E+00 0.  1.
         11    1    3    3    0    0  0.14545076375E+02  0.10387743979E+01  0.72246210192E+02  0.73703142308E+02  0.00000000000E+00 0. -1.
<mgrwt>
<rscale>  0 0.14239793E+03</rscale>
<asrwt>0</asrwt>
<pdfrwt beam="1">  1        3 0.72152385E-01 0.14992186E+03</pdfrwt>
<pdfrwt beam="2">  1       -3 0.61024822E-02 0.14992186E+03</pdfrwt>
<totfact> 0.72593337E+02</totfact>
</mgrwt>
</event>
<event>
 8    1  0.1273312E-005  0.1731422E+03  0.7546771E-02  0.1180641E+00
          2   -1    0    0  501    0  0.00000000000E+00  0.00000000000E+00  0.40982037637E+03  0.40982037637E+03  0.00000000000E+00 0. -1.
         -2   -1    0    0    0  501 -0.00000000000E+00 -0.00000000000E+00 -0.68038665430E+02  0.68038665430E+02  0.00000000000E+00 0.  1.
         23    2    1    2    0    0  0.11180255062E+03  0.43127433713E+02  0.10284759904E+03  0.18278664373E+03  0.92051847539E+02 0.  0.
         23    2    1    2    0    0 -0.11180255062E+03 -0.43127433713E+02  0.23893411190E+03  0.29507239807E+03  0.12497369487E+03 0.  0.
          5    1    4    4  502    0  0.10580589345E+02 -0.48640933726E+02  0.80151576290E+02  0.94468272380E+02  0.47000000000E+01 0. -1.
         -5    1    4    4    0  502 -0.12238313996E+03  0.55135000132E+01  0.15878253561E+03  0.20060412569E+03  0.47000000000E+01 0. -1.
        -11    1    3    3    0    0  0.64961673782E+02  0.48499929401E+02  0.14091570245E+02  0.82285081056E+02  0.00000000000E+00 0.  1.
         11    1    3    3    0    0  0.46840876833E+02 -0.53724956876E+01  0.88756028798E+02  0.10050156268E+03  0.00000000000E+00 0. -1.
<mgrwt>
<rscale>  0 0.16734907E+03</rscale>
<asrwt>0</asrwt>
<pdfrwt beam="1">  1        2 0.63049287E-01 0.17314217E+03</pdfrwt>
<pdfrwt beam="2">  1       -2 0.10467487E-01 0.17314217E+03</pdfrwt>
<totfact> 0.46737624E+03</totfact>
</mgrwt>
</event>
<event>
 8    1  0.1273312E-005  0.1433221E+03  0.7546771E-02  0.1217979E+00
         -2   -1    0    0    0  501 -0.00000000000E+00  0.00000000000E+00  0.16525092433E+02  0.16525092433E+02  0.00000000000E+00 0.  1.
          2   -1    0    0  501    0  0.00000000000E+00 -0.00000000000E+00 -0.10593326742E+04  0.10593326742E+04  0.00000000000E+00 0. -1.
         23    2    1    2    0    0 -0.52574872007E+02  0.46390739035E+02 -0.39181618100E+03  0.40927617004E+03  0.95240988212E+02 0.  0.
         23    2    1    2    0    0  0.52574872007E+02 -0.46390739035E+02 -0.65099140076E+03  0.66658159659E+03  0.12500001282E+03 0.  0.
          5    1    4    4  502    0  0.29962274349E+02 -0.50486502376E+02 -0.10743530392E+03  0.12251962837E+03  0.47000000000E+01 0. -1.
         -5    1    4    4    0  502  0.22612597658E+02  0.40957633410E+01 -0.54355609684E+03  0.54406196822E+03  0.47000000000E+01 0. -1.
        -11    1    3    3    0    0 -0.21342035125E+02 -0.13586014729E+02 -0.22616230461E+02  0.33934586187E+02  0.00000000000E+00 0.  1.
         11    1    3    3    0    0 -0.31232836882E+02  0.59976753763E+02 -0.36919995054E+03  0.37534158386E+03  0.00000000000E+00 0. -1.
<mgrwt>
<rscale>  0 0.13659999E+03</rscale>
<asrwt>0</asrwt>
<pdfrwt beam="2">  1        2 0.16297425E+00 0.14332209E+03</pdfrwt>
<pdfrwt beam="1">  1       -2 0.25423221E-02 0.14332209E+03</pdfrwt>
<totfact> 0.12638304E+04</totfact>
</mgrwt>
</event>
<event>
 8    1  0.1296565E-005  0.2743013E+03  0.7546771E-02  0.1101093E+00
          2   -1    0    0  501    0  0.00000000000E+00  0.00000000000E+00  0.78768336719E+03  0.78768336719E+03  0.00000000000E+00 0. -1.
         -2   -1    0    0    0  501 -0.00000000000E+00 -0.00000000000E+00 -0.91698910383E+02  0.91698910383E+02  0.00000000000E+00 0.  1.
         23    2    1    2    0    0 -0.11433282512E+03  0.21573869579E+03  0.28144943477E+03  0.38231035255E+03  0.85628509120E+02 0.  0.
         23    2    1    2    0    0  0.11433282512E+03 -0.21573869579E+03  0.41453502204E+03  0.49707192502E+03  0.12500413749E+03 0.  0.
          5    1    4    4  502    0 -0.78781789571E+01 -0.32430064201E+02  0.79770704538E+01  0.34633775723E+02  0.47000000000E+01 0. -1.
         -5    1    4    4    0  502  0.12221100408E+03 -0.18330863159E+03  0.40655795158E+03  0.46243814930E+03  0.47000000000E+01 0.  1.
        -11    1    3    3    0    0 -0.41445809858E+02  0.86365989260E+02  0.51989429501E+02  0.10899422019E+03  0.00000000000E+00 0.  1.
         11    1    3    3    0    0 -0.72887015267E+02  0.12937270653E+03  0.22946000527E+03  0.27331613236E+03  0.00000000000E+00 0. -1.
<mgrwt>
<rscale>  0 0.27032590E+03</rscale>
<asrwt>0</asrwt>
<pdfrwt beam="1">  1        2 0.12118205E+00 0.27430132E+03</pdfrwt>
<pdfrwt beam="2">  1       -2 0.14107525E-01 0.27430132E+03</pdfrwt>
<totfact> 0.13723558E+03</totfact>
</mgrwt>
</event>
<event>
 8    1  0.1273312E-005  0.1450530E+03  0.7546771E-02  0.1216597E+00
          4   -1    0    0  501    0  0.00000000000E+00  0.00000000000E+00  0.10068190005E+03  0.10068190005E+03  0.00000000000E+00 0.  1.
         -4   -1    0    0    0  501 -0.00000000000E+00 -0.00000000000E+00 -0.17398599538E+03  0.17398599538E+03  0.00000000000E+00 0. -1.
         23    2    1    2    0    0  0.34687587312E+02 -0.64894749043E+02 -0.50420461552E+02  0.12782092259E+03  0.91550030809E+02 0.  0.
         23    2    1    2    0    0 -0.34687587312E+02  0.64894749043E+02 -0.22883633773E+02  0.14684697284E+03  0.12500326224E+03 0.  0.
          5    1    4    4  502    0 -0.22326085161E+02  0.99212419576E+02  0.30460292907E+01  0.10184756537E+03  0.47000000000E+01 0.  1.
         -5    1    4    4    0  502 -0.12361502151E+02 -0.34317670533E+02 -0.25929663064E+02  0.44999407472E+02  0.47000000000E+01 0.  1.
        -11    1    3    3    0    0  0.80859825993E+01 -0.44182255596E+02 -0.74080057616E+02  0.86633190871E+02  0.00000000000E+00 0. -1.
         11    1    3    3    0    0  0.26601604713E+02 -0.20712493447E+02  0.23659596064E+02  0.41187731717E+02  0.00000000000E+00 0.  1.
<mgrwt>
<rscale>  0 0.13759861E+03</rscale>
<asrwt>0</asrwt>
<pdfrwt beam="1">  1        4 0.15489523E-01 0.14505300E+03</pdfrwt>
<pdfrwt beam="2">  1       -4 0.26767076E-01 0.14505300E+03</pdfrwt>
<totfact> 0.78723798E+02</totfact>
</mgrwt>
</event>
<event>
 8    1  0.1439866E-005  0.1533084E+03  0.7546771E-02  0.1204784E+00
         -2   -1    0    0    0  501 -0.00000000000E+00  0.00000000000E+00  0.26792765050E+02  0.26792765050E+02  0.00000000000E+00 0.  1.
          2   -1    0    0  501    0  0.00000000000E+00 -0.00000000000E+00 -0.73865352840E+03  0.73865352840E+03  0.00000000000E+00 0. -1.
         23    2    1    2    0    0 -0.11934578473E+02  0.87953163120E+02 -0.31630582271E+03  0.34122092622E+03  0.92217969734E+02 0.  0.
         23    2    1    2    0    0  0.11934578473E+02 -0.87953163120E+02 -0.39555494063E+03  0.42422536723E+03  0.12500103229E+03 0.  0.
          5    1    4    4  502    0 -0.28433086362E+02 -0.66796237875E+02 -0.92269676174E+02  0.11749876993E+03  0.47000000000E+01 0.  1.
         -5    1    4    4    0  502  0.40367664835E+02 -0.21156925245E+02 -0.30328526446E+03  0.30672659729E+03  0.47000000000E+01 0.  1.
        -11    1    3    3    0    0 -0.19558457836E+02  0.67293541381E+02 -0.31068924404E+03  0.31849452169E+03  0.00000000000E+00 0. -1.
         11    1    3    3    0    0  0.76238793632E+01  0.20659621738E+02 -0.56165786756E+01  0.22726404532E+02  0.00000000000E+00 0.  1.
<mgrwt>
<rscale>  0 0.14654513E+03</rscale>
<asrwt>0</asrwt>
<pdfrwt beam="2">  1        2 0.11363899E+00 0.15330835E+03</pdfrwt>
<pdfrwt beam="1">  1       -2 0.41219643E-02 0.15330835E+03</pdfrwt>
<totfact> 0.99549859E+03</totfact>
</mgrwt>
</event>
<event>
 8    1  0.1273312E-005  0.1785659E+03  0.7546771E-02  0.1174589E+00
          1   -1    0    0  501    0  0.00000000000E+00  0.00000000000E+00  0.96512672989E+02  0.96512672989E+02  0.00000000000E+00 0. -1.
         -1   -1    0    0    0  501 -0.00000000000E+00 -0.00000000000E+00 -0.31514444554E+03  0.31514444554E+03  0.00000000000E+00 0.  1.
         23    2    1    2    0    0 -0.12248447255E+03  0.35481865077E+02 -0.15719611364E+03  0.22281822943E+03  0.93144707084E+02 0.  0.
         23    2    1    2    0    0  0.12248447255E+03 -0.35481865077E+02 -0.61435658912E+02  0.18883888910E+03  0.12499750832E+03 0.  0.
          5    1    4    4  502    0  0.30249249237E+02  0.18683031927E+02  0.30989573798E+02  0.47397430791E+02  0.47000000000E+01 0.  1.
         -5    1    4    4    0  502  0.92235223313E+02 -0.54164897004E+02 -0.92425232710E+02  0.14144145831E+03  0.47000000000E+01 0.  1.
        -11    1    3    3    0    0 -0.94165735945E+02  0.31428835463E+02 -0.48624361186E+02  0.11054087943E+03  0.00000000000E+00 0.  1.
         11    1    3    3    0    0 -0.28318736604E+02  0.40530296147E+01 -0.10857175245E+03  0.11227735000E+03  0.00000000000E+00 0. -1.
<mgrwt>
<rscale>  0 0.17316304E+03</rscale>
<asrwt>0</asrwt>
<pdfrwt beam="1">  1        1 0.14848104E-01 0.17856591E+03</pdfrwt>
<pdfrwt beam="2">  1       -1 0.48483760E-01 0.17856591E+03</pdfrwt>
<totfact> 0.16210517E+03</totfact>
</mgrwt>
</event>
<event>
 8    1  0.1273312E-005  0.1260906E+03  0.7546771E-02  0.1250040E+00
          3   -1    0    0  501    0  0.00000000000E+00  0.00000000000E+00  0.39007518795E+02  0.39007518795E+02  0.00000000000E+00 0. -1.
         -3   -1    0    0    0  501 -0.00000000000E+00 -0.00000000000E+00 -0.32959953374E+03  0.32959953374E+03  0.00000000000E+00 0.  1.
         23    2    1    2    0    0  0.12528648432E+02  0.10802032498E+02 -0.17851602828E+03  0.19990653468E+03  0.88436413969E+02 0.  0.
         23    2    1    2    0    0 -0.12528648432E+02 -0.10802032498E+02 -0.11207598666E+03  0.16870051786E+03  0.12500074800E+03 0.  0.
          5    1    4    4  502    0  0.21176319001E+02  0.21891922914E+02 -0.11724434725E+03  0.12122714109E+03  0.47000000000E+01 0.  1.
         -5    1    4    4    0  502 -0.33704967433E+02 -0.32693955412E+02  0.51683605877E+01  0.47473376763E+02  0.47000000000E+01 0.  1.
        -11    1    3    3    0    0  0.48456725524E+02  0.20716247705E+02 -0.10470104158E+03  0.11721572111E+03  0.00000000000E+00 0.  1.
         11    1    3    3    0    0 -0.35928077092E+02 -0.99142152068E+01 -0.73814986699E+02  0.82690813565E+02  0.00000000000E+00 0. -1.
<mgrwt>
<rscale>  0 0.11588755E+03</rscale>
<asrwt>0</asrwt>
<pdfrwt beam="1">  1        3 0.60011568E-02 0.12609059E+03</pdfrwt>
<pdfrwt beam="2">  1       -3 0.50707620E-01 0.12609059E+03</pdfrwt>
<totfact> 0.15003054E+03</totfact>
</mgrwt>
</event>
<event>
 8    1  0.1273312E-005  0.1223616E+03  0.7546771E-02  0.1249528E+00
          1   -1    0    0  501    0  0.00000000000E+00  0.00000000000E+00  0.61190348878E+02  0.61190348878E+02  0.00000000000E+00 0. -1.
         -1   -1    0    0    0  501 -0.00000000000E+00 -0.00000000000E+00 -0.24724649387E+03  0.24724649387E+03  0.00000000000E+00 0.  1.
         23    2    1    2    0    0 -0.21994672379E+02  0.27148229796E+02 -0.15160325476E+03  0.18131731316E+03  0.93121582906E+02 0.  0.
         23    2    1    2    0    0  0.21994672379E+02 -0.27148229796E+02 -0.34452890237E+02  0.12711952960E+03  0.11726713591E+03 0.  0.
          5    1    4    4  502    0  0.41281066120E+02  0.13711298191E+02  0.26461831388E+02  0.51131640288E+02  0.47000000000E+01 0. -1.
         -5    1    4    4    0  502 -0.19286393741E+02 -0.40859527987E+02 -0.60914721625E+02  0.75987889308E+02  0.47000000000E+01 0.  1.
        -11    1    3    3    0    0 -0.28716089398E+02 -0.28699681083E+02 -0.84563899514E+02  0.93804789780E+02  0.00000000000E+00 0.  1.
         11    1    3    3    0    0  0.67214170187E+01  0.55847910879E+02 -0.67039355244E+02  0.87512523377E+02  0.00000000000E+00 0. -1.
<mgrwt>
<rscale>  0 0.11618413E+03</rscale>
<asrwt>0</asrwt>
<pdfrwt beam="1">  1        1 0.94139000E-02 0.12236165E+03</pdfrwt>
<pdfrwt beam="2">  1       -1 0.38037922E-01 0.12236165E+03</pdfrwt>
<totfact> 0.44656781E+03</totfact>
</mgrwt>
</event>
<event>
 8    1  0.1273312E-005  0.1344819E+03  0.7546771E-02  0.1234416E+00
         -2   -1    0    0    0  501 -0.00000000000E+00  0.00000000000E+00  0.64782520172E+02  0.64782520172E+02  0.00000000000E+00 0.  1.
          2   -1    0    0  501    0  0.00000000000E+00 -0.00000000000E+00 -0.21554309727E+03  0.21554309727E+03  0.00000000000E+00 0. -1.
         23    2    1    2    0    0  0.48293184757E+02 -0.11614492132E+02 -0.60541171950E+02  0.11838449864E+03  0.88783601498E+02 0.  0.
         23    2    1    2    0    0 -0.48293184757E+02  0.11614492132E+02 -0.90219405151E+02  0.16194111881E+03  0.12497302418E+03 0.  0.
          5    1    4    4  502    0 -0.79559375369E+02  0.20121531513E+02 -0.20199925379E+02  0.84644534525E+02  0.47000000000E+01 0.  1.
         -5    1    4    4    0  502  0.31266190612E+02 -0.85070393816E+01 -0.70019479771E+02  0.77296584284E+02  0.47000000000E+01 0.  1.
        -11    1    3    3    0    0  0.29267021792E+02 -0.10419910353E+02 -0.83177704501E+02  0.88789997311E+02  0.00000000000E+00 0. -1.
         11    1    3    3    0    0  0.19026162965E+02 -0.11945817787E+01  0.22636532551E+02  0.29594501326E+02  0.00000000000E+00 0.  1.
<mgrwt>
<rscale>  0 0.12541909E+03</rscale>
<asrwt>0</asrwt>
<pdfrwt beam="2">  1        2 0.33160477E-01 0.13448191E+03</pdfrwt>
<pdfrwt beam="1">  1       -2 0.99665414E-02 0.13448191E+03</pdfrwt>
<totfact> 0.98765099E+03</totfact>
</mgrwt>
</event>
<event>
 7    1  0.1273312E-005  0.1570768E+03  0.7546771E-02  0.1215377E+00
          2   -1    0    0  501    0  0.00000000000E+00  0.00000000000E+00  0.16184751193E+04  0.16184751193E+04  0.00000000000E+00 0.  1.
         -2   -1    0    0    0  501 -0.00000000000E+00 -0.00000000000E+00 -0.14786188526E+02  0.14786188526E+02  0.00000000000E+00 0. -1.
         23    2    1    2    0    0 -0.25826484852E+02 -0.18578567434E+02  0.20646262239E+03  0.22723340477E+03  0.89420553077E+02 0.  0.
          5    1    1    2  502    0  0.60031800230E+02  0.18357168495E+02  0.23490431039E+03  0.24319319010E+03  0.47000000000E+01 0. -1.
         -5    1    1    2    0  502 -0.34205315378E+02  0.22139893909E+00  0.11623219980E+04  0.11628347129E+04  0.47000000000E+01 0.  1.
        -11    1    3    3    0    0  0.56787186955E+01  0.33514689685E+02  0.70840125830E+02  0.78573568701E+02  0.00000000000E+00 0. -1.
         11    1    3    3    0    0 -0.31505203548E+02 -0.52093257119E+02  0.13562249656E+03  0.14865983607E+03  0.00000000000E+00 0.  1.
<mgrwt>
<rscale>  0 0.13848851E+03</rscale>
<asrwt>0</asrwt>
<pdfrwt beam="1">  1        2 0.24899603E+00 0.15707676E+03</pdfrwt>
<pdfrwt beam="2">  1       -2 0.22747995E-02 0.15707676E+03</pdfrwt>
<totfact> 0.74354240E+03</totfact>
</mgrwt>
</event>
<event>
 8    1  0.1273312E-005  0.2152722E+03  0.7546771E-02  0.1140698E+00
          2   -1    0    0  501    0  0.00000000000E+00  0.00000000000E+00  0.56510661850E+03  0.56510661850E+03  0.00000000000E+00 0. -1.
         -2   -1    0    0    0  501 -0.00000000000E+00 -0.00000000000E+00 -0.10898886143E+03  0.10898886143E+03  0.00000000000E+00 0.  1.
         23    2    1    2    0    0 -0.16402293820E+03 -0.61760828019E+02  0.36357739800E+02  0.20235341219E+03  0.94377402199E+02 0.  0.
         23    2    1    2    0    0  0.16402293820E+03  0.61760828019E+02  0.41976001727E+03  0.47174206775E+03  0.12499672896E+03 0.  0.
          5    1    4    4  502    0  0.68308902441E+01  0.18253145453E+02  0.18362258712E+03  0.18471378638E+03  0.47000000000E+01 0. -1.
         -5    1    4    4    0  502  0.15719204796E+03  0.43507682566E+02  0.23613743015E+03  0.28702828136E+03  0.47000000000E+01 0. -1.
        -11    1    3    3    0    0 -0.14723183365E+03 -0.22309016415E+02  0.50440869922E+02  0.15722336471E+03  0.00000000000E+00 0.  1.
         11    1    3    3    0    0 -0.16791104555E+02 -0.39451811604E+02 -0.14083130122E+02  0.45130047475E+02  0.00000000000E+00 0. -1.
<mgrwt>
<rscale>  0 0.21109945E+03</rscale>
<asrwt>0</asrwt>
<pdfrwt beam="1">  1        2 0.86939478E-01 0.21527217E+03</pdfrwt>
<pdfrwt beam="2">  1       -2 0.16767517E-01 0.21527217E+03</pdfrwt>
<totfact> 0.15316148E+03</totfact>
</mgrwt>
</event>
<event>
 8    1  0.1273312E-005  0.1318229E+03  0.7546771E-02  0.1239231E+00
         -2   -1    0    0    0  501 -0.00000000000E+00  0.00000000000E+00  0.12399767462E+02  0.12399767462E+02  0.00000000000E+00 0.  1.
          2   -1    0    0  501    0  0.00000000000E+00 -0.00000000000E+00 -0.17042394737E+04  0.17042394737E+04  0.00000000000E+00 0. -1.
         23    2    1    2    0    0 -0.19700796014E+02 -0.36923649806E+02 -0.24543841554E+03  0.26424330424E+03  0.88504410828E+02 0.  0.
         23    2    1    2    0    0  0.19700796014E+02  0.36923649806E+02 -0.14464012907E+04  0.14523959369E+04  0.12500314623E+03 0.  0.
          5    1    4    4  502    0 -0.23683205742E+02  0.40638594485E+02 -0.21149160511E+03  0.21670989508E+03  0.47000000000E+01 0. -1.
         -5    1    4    4    0  502  0.43384001756E+02 -0.37149446788E+01 -0.12349096856E+04  0.12356860419E+04  0.47000000000E+01 0. -1.
        -11    1    3    3    0    0 -0.40401359438E+02 -0.89625993901E+00 -0.49271151594E+02  0.63723775043E+02  0.00000000000E+00 0.  1.
         11    1    3    3    0    0  0.20700563424E+02 -0.36027389867E+02 -0.19616726394E+03  0.20051952920E+03  0.00000000000E+00 0. -1.
<mgrwt>
<rscale>  0 0.12237403E+03</rscale>
<asrwt>0</asrwt>
<pdfrwt beam="2">  1        2 0.26219074E+00 0.13182285E+03</pdfrwt>
<pdfrwt beam="1">  1       -2 0.19076562E-02 0.13182285E+03</pdfrwt>
<totfact> 0.86297216E+03</totfact>
</mgrwt>
</event>
<event>
 8    1  0.1273312E-005  0.2037188E+03  0.7546771E-02  0.1150845E+00
          1   -1    0    0  501    0  0.00000000000E+00  0.00000000000E+00  0.89914648470E+02  0.89914648470E+02  0.00000000000E+00 0.  1.
         -1   -1    0    0    0  501 -0.00000000000E+00 -0.00000000000E+00 -0.45571604174E+03  0.45571604174E+03  0.00000000000E+00 0. -1.
         23    2    1    2    0    0 -0.34312595367E+02  0.15716444198E+03 -0.25214961676E+03  0.31235387953E+03  0.90041661476E+02 0.  0.
         23    2    1    2    0    0  0.34312595367E+02 -0.15716444198E+03 -0.11365177652E+03  0.23327681069E+03  0.12499331212E+03 0.  0.
          5    1    4    4  502    0 -0.39185322298E+02 -0.73062701740E+02 -0.15421515121E+02  0.84460410831E+02  0.47000000000E+01 0. -1.
         -5    1    4    4    0  502  0.73497917665E+02 -0.84101740237E+02 -0.98230261395E+02  0.14881639986E+03  0.47000000000E+01 0. -1.
        -11    1    3    3    0    0 -0.40710895639E+02  0.14159173446E+03 -0.25573798494E+03  0.29513981980E+03  0.00000000000E+00 0. -1.
         11    1    3    3    0    0  0.63983002720E+01  0.15572707521E+02  0.35883681870E+01  0.17214059723E+02  0.00000000000E+00 0.  1.
<mgrwt>
<rscale>  0 0.19869413E+03</rscale>
<asrwt>0</asrwt>
<pdfrwt beam="1">  1        1 0.13833022E-01 0.20371879E+03</pdfrwt>
<pdfrwt beam="2">  1       -1 0.70110163E-01 0.20371879E+03</pdfrwt>
<totfact> 0.88367063E+02</totfact>
</mgrwt>
</event>
<event>
 8    1  0.1273312E-005  0.1424249E+03  0.7546771E-02  0.1221317E+00
          1   -1    0    0  501    0  0.00000000000E+00  0.00000000000E+00  0.47717465002E+03  0.47717465002E+03  0.00000000000E+00 0. -1.
         -1   -1    0    0    0  501 -0.00000000000E+00 -0.00000000000E+00 -0.38432661130E+02  0.38432661130E+02  0.00000000000E+00 0.  1.
         23    2    1    2    0    0 -0.16960201075E+02  0.66219378488E+02  0.10953250950E+03  0.15691003222E+03  0.89166883233E+02 0.  0.
         23    2    1    2    0    0  0.16960201075E+02 -0.66219378488E+02  0.32920947939E+03  0.35869727893E+03  0.12494879785E+03 0.  0.
          5    1    4    4  502    0  0.63738207266E+02 -0.13675271962E+02  0.21269937244E+03  0.22251446058E+03  0.47000000000E+01 0.  1.
         -5    1    4    4    0  502 -0.46778006191E+02 -0.52544106526E+02  0.11651010695E+03  0.13618281836E+03  0.47000000000E+01 0.  1.
        -11    1    3    3    0    0 -0.13321428144E+02  0.13468438552E+02 -0.13322577308E+02  0.23159238997E+02  0.00000000000E+00 0.  1.
         11    1    3    3    0    0 -0.36387729313E+01  0.52750939936E+02  0.12285508681E+03  0.13375079322E+03  0.00000000000E+00 0. -1.
<mgrwt>
<rscale>  0 0.13422594E+03</rscale>
<asrwt>0</asrwt>
<pdfrwt beam="1">  1        1 0.73411481E-01 0.14242492E+03</pdfrwt>
<pdfrwt beam="2">  1       -1 0.59127174E-02 0.14242492E+03</pdfrwt>
<totfact> 0.63180092E+03</totfact>
</mgrwt>
</event>
<event>
 8    1  0.1273312E-005  0.1292368E+03  0.7546771E-02  0.1243436E+00
          2   -1    0    0  501    0  0.00000000000E+00  0.00000000000E+00  0.14531665611E+03  0.14531665611E+03  0.00000000000E+00 0. -1.
         -2   -1    0    0    0  501 -0.00000000000E+00 -0.00000000000E+00 -0.93748863050E+02  0.93748863050E+02  0.00000000000E+00 0.  1.
         23    2    1    2    0    0  0.29874912149E+02  0.13617203453E+02 -0.99618878770E+01  0.95929060622E+02  0.89583518886E+02 0.  0.
         23    2    1    2    0    0 -0.29874912149E+02 -0.13617203453E+02  0.61529680941E+02  0.14313645854E+03  0.12499682205E+03 0.  0.
          5    1    4    4  502    0 -0.15538901670E+02 -0.61786138494E+02  0.43159097671E+00  0.63884745017E+02  0.47000000000E+01 0. -1.
         -5    1    4    4    0  502 -0.14336010478E+02  0.48168935040E+02  0.61098089964E+02  0.79251713525E+02  0.47000000000E+01 0. -1.
        -11    1    3    3    0    0 -0.14484623246E+02  0.31725976980E+02  0.19226947754E+02  0.39824834537E+02  0.00000000000E+00 0. -1.
         11    1    3    3    0    0  0.44359535395E+02 -0.18108773527E+02 -0.29188835631E+02  0.56104226085E+02  0.00000000000E+00 0.  1.
<mgrwt>
<rscale>  0 0.11979495E+03</rscale>
<asrwt>0</asrwt>
<pdfrwt beam="1">  1        2 0.22356409E-01 0.12923678E+03</pdfrwt>
<pdfrwt beam="2">  1       -2 0.14422902E-01 0.12923678E+03</pdfrwt>
<totfact> 0.83983431E+03</totfact>
</mgrwt>
</event>
<event>
 8    1  0.1273312E-005  0.1581027E+03  0.7546771E-02  0.1198668E+00
          2   -1    0    0  501    0  0.00000000000E+00  0.00000000000E+00  0.54889889614E+03  0.54889889614E+03  0.00000000000E+00 0. -1.
         -2   -1    0    0    0  501 -0.00000000000E+00 -0.00000000000E+00 -0.38875564931E+02  0.38875564931E+02  0.00000000000E+00 0.  1.
         23    2    1    2    0    0  0.53972482001E+02  0.80359997016E+02  0.21132238735E+03  0.24981184208E+03  0.91531672748E+02 0.  0.
         23    2    1    2    0    0 -0.53972482001E+02 -0.80359997016E+02  0.29870094387E+03  0.33796261900E+03  0.12500288012E+03 0.  0.
          5    1    4    4  502    0  0.30344365506E+02 -0.32605237044E+02  0.34568503348E+02  0.56576969028E+02  0.47000000000E+01 0. -1.
         -5    1    4    4    0  502 -0.84316847507E+02 -0.47754759972E+02  0.26413244052E+03  0.28138564997E+03  0.47000000000E+01 0. -1.
        -11    1    3    3    0    0  0.19284210806E+02  0.55797592539E+02  0.19589055084E+03  0.20459315733E+03  0.00000000000E+00 0. -1.
         11    1    3    3    0    0  0.34688271195E+02  0.24562404477E+02  0.15431836506E+02  0.45218684746E+02  0.00000000000E+00 0.  1.
<mgrwt>
<rscale>  0 0.15147840E+03</rscale>
<asrwt>0</asrwt>
<pdfrwt beam="1">  1        2 0.84445978E-01 0.15810274E+03</pdfrwt>
<pdfrwt beam="2">  1       -2 0.59808565E-02 0.15810274E+03</pdfrwt>
<totfact> 0.80423584E+03</totfact>
</mgrwt>
</event>
<event>
 8    1  0.1273312E-005  0.1386401E+03  0.7546771E-02  0.1226147E+00
          2   -1    0    0  501    0  0.00000000000E+00  0.00000000000E+00  0.53047342297E+03  0.53047342297E+03  0.00000000000E+00 0.  1.
         -2   -1    0    0    0  501 -0.00000000000E+00 -0.00000000000E+00 -0.29995060871E+02  0.29995060871E+02  0.00000000000E+00 0. -1.
         23    2    1    2    0    0 -0.14586362063E+02  0.58145832762E+02  0.17604725047E+03  0.20765602922E+03  0.92383398124E+02 0.  0.
         23    2    1    2    0    0  0.14586362063E+02 -0.58145832762E+02  0.32443111163E+03  0.35281245462E+03  0.12500952810E+03 0.  0.
          5    1    4    4  502    0  0.20953703376E+02 -0.93480171750E+02  0.18055745075E+03  0.20445215385E+03  0.47000000000E+01 0. -1.
         -5    1    4    4    0  502 -0.63673413127E+01  0.35334338988E+02  0.14387366088E+03  0.14836030077E+03  0.47000000000E+01 0. -1.
        -11    1    3    3    0    0 -0.52452123802E+02  0.27736000472E+02  0.75768062398E+02  0.96235701759E+02  0.00000000000E+00 0.  1.
         11    1    3    3    0    0  0.37865761739E+02  0.30409832290E+02  0.10027918807E+03  0.11142032746E+03  0.00000000000E+00 0. -1.
<mgrwt>
<rscale>  0 0.13088567E+03</rscale>
<asrwt>0</asrwt>
<pdfrwt beam="1">  1        2 0.81611289E-01 0.13864012E+03</pdfrwt>
<pdfrwt beam="2">  1       -2 0.46146252E-02 0.13864012E+03</pdfrwt>
<totfact> 0.12249181E+04</totfact>
</mgrwt>
</event>
<event>
 8    1  0.1273312E-005  0.1755684E+03  0.7546771E-02  0.1178163E+00
         -2   -1    0    0    0  501 -0.00000000000E+00  0.00000000000E+00  0.27164631470E+02  0.27164631470E+02  0.00000000000E+00 0.  1.
          2   -1    0    0  501    0  0.00000000000E+00 -0.00000000000E+00 -0.10391075193E+04  0.10391075193E+04  0.00000000000E+00 0. -1.
         23    2    1    2    0    0  0.78637648483E+02 -0.94955523822E+02 -0.36346232355E+03  0.39444529993E+03  0.91004410533E+02 0.  0.
         23    2    1    2    0    0 -0.78637648483E+02  0.94955523822E+02 -0.64848056433E+03  0.67182685088E+03  0.12499537589E+03 0.  0.
          5    1    4    4  502    0 -0.38531868263E+02 -0.12699480451E+02 -0.62423341720E+02  0.74597220237E+02  0.47000000000E+01 0.  1.
         -5    1    4    4    0  502 -0.40105780220E+02  0.10765500427E+03 -0.58605722261E+03  0.59722963064E+03  0.47000000000E+01 0.  1.
        -11    1    3    3    0    0  0.56208875272E+02 -0.97830186190E+02 -0.35086689357E+03  0.36856174516E+03  0.00000000000E+00 0.  1.
         11    1    3    3    0    0  0.22428773211E+02  0.28746623689E+01 -0.12595429978E+02  0.25883554776E+02  0.00000000000E+00 0. -1.
<mgrwt>
<rscale>  0 0.16969821E+03</rscale>
<asrwt>0</asrwt>
<pdfrwt beam="2">  1        2 0.15986271E+00 0.17556843E+03</pdfrwt>
<pdfrwt beam="1">  1       -2 0.41791736E-02 0.17556843E+03</pdfrwt>
<totfact> 0.62842441E+03</totfact>
</mgrwt>
</event>
<event>
 8    1  0.1273312E-005  0.1275633E+03  0.7546771E-02  0.1247495E+00
         -1   -1    0    0    0  501 -0.00000000000E+00  0.00000000000E+00  0.10961053882E+03  0.10961053882E+03  0.00000000000E+00 0.  1.
          1   -1    0    0  501    0  0.00000000000E+00 -0.00000000000E+00 -0.19279971771E+03  0.19279971771E+03  0.00000000000E+00 0. -1.
         23    2    1    2    0    0  0.14678398721E+02 -0.20927864627E+02  0.60986036186E+02  0.10990337690E+03  0.87783966291E+02 0.  0.
         23    2    1    2    0    0 -0.14678398721E+02  0.20927864627E+02 -0.14417521507E+03  0.19250687963E+03  0.12497589831E+03 0.  0.
          5    1    4    4  502    0  0.23681280457E+01  0.72620375634E+02 -0.78231319300E+02  0.10687168150E+03  0.47000000000E+01 0. -1.
         -5    1    4    4    0  502 -0.17046526767E+02 -0.51692511007E+02 -0.65943895768E+02  0.85635198126E+02  0.47000000000E+01 0. -1.
        -11    1    3    3    0    0 -0.29738920168E+02 -0.27540671221E+02  0.48671120480E+02  0.63338534186E+02  0.00000000000E+00 0.  1.
         11    1    3    3    0    0  0.44417318889E+02  0.66128065931E+01  0.12314915706E+02  0.46564842716E+02  0.00000000000E+00 0. -1.
<mgrwt>
<rscale>  0 0.11737258E+03</rscale>
<asrwt>0</asrwt>
<pdfrwt beam="2">  1        1 0.29661495E-01 0.12756334E+03</pdfrwt>
<pdfrwt beam="1">  1       -1 0.16863160E-01 0.12756334E+03</pdfrwt>
<totfact> 0.39197707E+03</totfact>
</mgrwt>
</event>
<event>
 8    1  0.1273312E-005  0.1484194E+03  0.7546771E-02  0.1211720E+00
         -2   -1    0    0    0  501 -0.00000000000E+00  0.00000000000E+00  0.89562903851E+02  0.89562903851E+02  0.00000000000E+00 0.  1.
          2   -1    0    0  501    0  0.00000000000E+00 -0.00000000000E+00 -0.21231310206E+03  0.21231310206E+03  0.00000000000E+00 0. -1.
         23    2    1    2    0    0  0.67133087009E+02  0.43555358604E+02 -0.24924919701E+02  0.12411748593E+03  0.91542220077E+02 0.  0.
         23    2    1    2    0    0 -0.67133087009E+02 -0.43555358604E+02 -0.97825278511E+02  0.17775851999E+03  0.12499754268E+03 0.  0.
          5    1    4    4  502    0 -0.89509217598E+02 -0.52747052706E+02 -0.34123206386E+02  0.10945608625E+03  0.47000000000E+01 0.  1.
         -5    1    4    4    0  502  0.22376130588E+02  0.91916941013E+01 -0.63702072125E+02  0.68302433731E+02  0.47000000000E+01 0.  1.
        -11    1    3    3    0    0  0.56040196655E+02  0.38519132734E+02  0.25209506667E+02  0.72524109468E+02  0.00000000000E+00 0.  1.
         11    1    3    3    0    0  0.11092890354E+02  0.50362258706E+01 -0.50134426368E+02  0.51593376461E+02  0.00000000000E+00 0. -1.
<mgrwt>
<rscale>  0 0.14120222E+03</rscale>
<asrwt>0</asrwt>
<pdfrwt beam="2">  1        2 0.32663554E-01 0.14841936E+03</pdfrwt>
<pdfrwt beam="1">  1       -2 0.13778908E-01 0.14841936E+03</pdfrwt>
<totfact> 0.60286519E+03</totfact>
</mgrwt>
</event>
<event>
 8    1  0.1273312E-005  0.1302751E+03  0.7546771E-02  0.1241292E+00
         -3   -1    0    0    0  501 -0.00000000000E+00  0.00000000000E+00  0.22311441701E+03  0.22311441701E+03  0.00000000000E+00 0.  1.
          3   -1    0    0  501    0  0.00000000000E+00 -0.00000000000E+00 -0.58239947387E+02  0.58239947387E+02  0.00000000000E+00 0. -1.
         23    2    1    2    0    0  0.13919310993E+02  0.33965833888E+02  0.79113606201E+02  0.12538472441E+03  0.90082969200E+02 0.  0.
         23    2    1    2    0    0 -0.13919310993E+02 -0.33965833888E+02  0.85760863419E+02  0.15596963998E+03  0.12499671120E+03 0.  0.
          5    1    4    4  502    0 -0.60750607222E+02 -0.26149257185E+02  0.10898114803E+02  0.67195824539E+02  0.47000000000E+01 0. -1.
         -5    1    4    4    0  502  0.46831296229E+02 -0.78165767026E+01  0.74862748617E+02  0.88773815443E+02  0.47000000000E+01 0. -1.
        -11    1    3    3    0    0 -0.92547157336E+01  0.59798064050E+02  0.62205771243E+02  0.86781427756E+02  0.00000000000E+00 0.  1.
         11    1    3    3    0    0  0.23174026727E+02 -0.25832230162E+02  0.16907834958E+02  0.38603296657E+02  0.00000000000E+00 0. -1.
<mgrwt>
<rscale>  0 0.12110053E+03</rscale>
<asrwt>0</asrwt>
<pdfrwt beam="2">  1        3 0.89599920E-02 0.13027510E+03</pdfrwt>
<pdfrwt beam="1">  1       -3 0.34325295E-01 0.13027510E+03</pdfrwt>
<totfact> 0.16817052E+03</totfact>
</mgrwt>
</event>
<event>
 8    1  0.1273312E-005  0.1308317E+03  0.7546771E-02  0.1239399E+00
          2   -1    0    0  501    0  0.00000000000E+00  0.00000000000E+00  0.24429744738E+03  0.24429744738E+03  0.00000000000E+00 0. -1.
         -2   -1    0    0    0  501 -0.00000000000E+00 -0.00000000000E+00 -0.55764169829E+02  0.55764169829E+02  0.00000000000E+00 0.  1.
         23    2    1    2    0    0 -0.12074963984E+02  0.36679090748E+02  0.58916531381E+02  0.11589477494E+03  0.92028695174E+02 0.  0.
         23    2    1    2    0    0  0.12074963984E+02 -0.36679090748E+02  0.12961674617E+03  0.18416684227E+03  0.12500305776E+03 0.  0.
          5    1    4    4  502    0 -0.49094368402E+02 -0.47441838975E+02  0.64043192219E+02  0.93726226659E+02  0.47000000000E+01 0. -1.
         -5    1    4    4    0  502  0.61169332385E+02  0.10762748227E+02  0.65573553948E+02  0.90440615607E+02  0.47000000000E+01 0. -1.
        -11    1    3    3    0    0 -0.30225093244E+02  0.57908658689E+02  0.20628628147E+02  0.68501892762E+02  0.00000000000E+00 0.  1.
         11    1    3    3    0    0  0.18150129261E+02 -0.21229567941E+02  0.38287903235E+02  0.47392882179E+02  0.00000000000E+00 0. -1.
<mgrwt>
<rscale>  0 0.12226988E+03</rscale>
<asrwt>0</asrwt>
<pdfrwt beam="1">  1        2 0.37584222E-01 0.13083167E+03</pdfrwt>
<pdfrwt beam="2">  1       -2 0.85791032E-02 0.13083167E+03</pdfrwt>
<totfact> 0.10891133E+04</totfact>
</mgrwt>
</event>
<event>
 8    1  0.1740638E-005  0.2005768E+03  0.7546771E-02  0.1153537E+00
         -4   -1    0    0    0  501 -0.00000000000E+00  0.00000000000E+00  0.12150764565E+03  0.12150764565E+03  0.00000000000E+00 0.  1.
          4   -1    0    0  501    0  0.00000000000E+00 -0.00000000000E+00 -0.34836042130E+03  0.34836042130E+03  0.00000000000E+00 0. -1.
         23    2    1    2    0    0  0.14191887202E+03  0.66821800521E+02 -0.21034428506E+02  0.18247943449E+03  0.90830488099E+02 0.  0.
         23    2    1    2    0    0 -0.14191887202E+03 -0.66821800521E+02 -0.20581834715E+03  0.28738863246E+03  0.12499965913E+03 0.  0.
          5    1    4    4  502    0 -0.59842300181E+02 -0.52846695021E+02 -0.18123105801E+02  0.82002506239E+02  0.47000000000E+01 0.  1.
         -5    1    4    4    0  502 -0.82076571840E+02 -0.13975105501E+02 -0.18769524135E+03  0.20538612622E+03  0.47000000000E+01 0.  1.
        -11    1    3    3    0    0  0.39707978704E+02  0.51116977035E+02  0.24866310021E+02  0.69339759792E+02  0.00000000000E+00 0. -1.
         11    1    3    3    0    0  0.10221089332E+03  0.15704823487E+02 -0.45900738527E+02  0.11313967470E+03  0.00000000000E+00 0.  1.
<mgrwt>
<rscale>  0 0.19556349E+03</rscale>
<asrwt>0</asrwt>
<pdfrwt beam="2">  1        4 0.53593909E-01 0.20057675E+03</pdfrwt>
<pdfrwt beam="1">  1       -4 0.18693485E-01 0.20057675E+03</pdfrwt>
<totfact> 0.15234695E+02</totfact>
</mgrwt>
</event>
<event>
 8    1  0.1273312E-005  0.1304208E+03  0.7546771E-02  0.1240500E+00
         -3   -1    0    0    0  501 -0.00000000000E+00  0.00000000000E+00  0.67145621412E+03  0.67145621412E+03  0.00000000000E+00 0.  1.
          3   -1    0    0  501    0  0.00000000000E+00 -0.00000000000E+00 -0.19992992011E+02  0.19992992011E+02  0.00000000000E+00 0. -1.
         23    2    1    2    0    0  0.18296326891E+02  0.32398498912E+02  0.33438423261E+03  0.34859549831E+03  0.91222739015E+02 0.  0.
         23    2    1    2    0    0 -0.18296326891E+02 -0.32398498912E+02  0.31707898950E+03  0.34285370782E+03  0.12500064430E+03 0.  0.
          5    1    4    4  502    0 -0.18041263686E+02 -0.54868795017E+02  0.55403350105E+02  0.80172894826E+02  0.47000000000E+01 0.  1.
         -5    1    4    4    0  502 -0.25506320529E+00  0.22470296105E+02  0.26167563939E+03  0.26268081300E+03  0.47000000000E+01 0.  1.
        -11    1    3    3    0    0 -0.30036623379E+02 -0.45818774137E+01  0.18181911638E+03  0.18434040096E+03  0.00000000000E+00 0.  1.
         11    1    3    3    0    0  0.48332950270E+02  0.36980376326E+02  0.15256511623E+03  0.16425509735E+03  0.00000000000E+00 0. -1.
<mgrwt>
<rscale>  0 0.12158785E+03</rscale>
<asrwt>0</asrwt>
<pdfrwt beam="2">  1        3 0.30758454E-02 0.13042078E+03</pdfrwt>
<pdfrwt beam="1">  1       -3 0.10330094E+00 0.13042078E+03</pdfrwt>
<totfact> 0.94475133E+02</totfact>
</mgrwt>
</event>
<event>
 8    1  0.1273312E-005  0.1298987E+03  0.7546771E-02  0.1240948E+00
          1   -1    0    0  501    0  0.00000000000E+00  0.00000000000E+00  0.34255308374E+02  0.34255308374E+02  0.00000000000E+00 0. -1.
         -1   -1    0    0    0  501 -0.00000000000E+00 -0.00000000000E+00 -0.39975805966E+03  0.39975805966E+03  0.00000000000E+00 0.  1.
         23    2    1    2    0    0  0.26387862023E+02  0.23512429287E+02 -0.20467575873E+03  0.22727927221E+03  0.92274307217E+02 0.  0.
         23    2    1    2    0    0 -0.26387862023E+02 -0.23512429287E+02 -0.16082699256E+03  0.20673409582E+03  0.12499804497E+03 0.  0.
          5    1    4    4  502    0 -0.33768961944E+02 -0.67176771606E+02 -0.59310680568E+02  0.95879655108E+02  0.47000000000E+01 0.  1.
         -5    1    4    4    0  502  0.73810999213E+01  0.43664342319E+02 -0.10151631199E+03  0.11085444071E+03  0.47000000000E+01 0.  1.
        -11    1    3    3    0    0 -0.19519904394E+02  0.34923863573E+02 -0.42603308446E+02  0.58444373595E+02  0.00000000000E+00 0.  1.
         11    1    3    3    0    0  0.45907766417E+02 -0.11411434286E+02 -0.16207245028E+03  0.16883489862E+03  0.00000000000E+00 0. -1.
<mgrwt>
<rscale>  0 0.12131244E+03</rscale>
<asrwt>0</asrwt>
<pdfrwt beam="1">  1        1 0.52700474E-02 0.12989867E+03</pdfrwt>
<pdfrwt beam="2">  1       -1 0.61501240E-01 0.12989867E+03</pdfrwt>
<totfact> 0.40936764E+03</totfact>
</mgrwt>
</event>
<event>
 8    1  0.1273312E-005  0.1554192E+03  0.7546771E-02  0.1202000E+00
         -2   -1    0    0    0  501 -0.00000000000E+00  0.00000000000E+00  0.17917229466E+02  0.17917229466E+02  0.00000000000E+00 0.  1.
          2   -1    0    0  501    0  0.00000000000E+00 -0.00000000000E+00 -0.11963465626E+04  0.11963465626E+04  0.00000000000E+00 0. -1.
         23    2    1    2    0    0  0.91761848941E+02  0.10517077347E+02 -0.40928290658E+03  0.42957191406E+03  0.92134064776E+02 0.  0.
         23    2    1    2    0    0 -0.91761848941E+02 -0.10517077347E+02 -0.76914642652E+03  0.78469187798E+03  0.12499708834E+03 0.  0.
          5    1    4    4  502    0 -0.11760096344E+03 -0.19257092203E+02 -0.49553936621E+03  0.50968831227E+03  0.47000000000E+01 0.  1.
         -5    1    4    4    0  502  0.25839114500E+02  0.87400148566E+01 -0.27360706031E+03  0.27500356570E+03  0.47000000000E+01 0.  1.
        -11    1    3    3    0    0  0.99715642619E+02  0.21812828907E+02 -0.40026239963E+03  0.41307262974E+03  0.00000000000E+00 0. -1.
         11    1    3    3    0    0 -0.79537936787E+01 -0.11295751561E+02 -0.90205069523E+01  0.16499284314E+02  0.00000000000E+00 0.  1.
<mgrwt>
<rscale>  0 0.14876367E+03</rscale>
<asrwt>0</asrwt>
<pdfrwt beam="2">  1        2 0.18405339E+00 0.15541917E+03</pdfrwt>
<pdfrwt beam="1">  1       -2 0.27564957E-02 0.15541917E+03</pdfrwt>
<totfact> 0.94182567E+03</totfact>
</mgrwt>
</event>
<event>
 8    1  0.1273312E-005  0.3654283E+03  0.7546771E-02  0.1057516E+00
          1   -1    0    0  501    0  0.00000000000E+00  0.00000000000E+00  0.12131817620E+03  0.12131817620E+03  0.00000000000E+00 0. -1.
         -1   -1    0    0    0  501 -0.00000000000E+00 -0.00000000000E+00 -0.10688221025E+04  0.10688221025E+04  0.00000000000E+00 0.  1.
         23    2    1    2    0    0 -0.26279679152E+03  0.22102147134E+03 -0.45766334786E+03  0.57900886212E+03  0.88785573201E+02 0.  0.
         23    2    1    2    0    0  0.26279679152E+03 -0.22102147134E+03 -0.48984057846E+03  0.61113141660E+03  0.12500068650E+03 0.  0.
          5    1    4    4  502    0  0.12305627273E+03 -0.84697855168E+02 -0.31650707368E+03  0.35002198591E+03  0.47000000000E+01 0.  1.
         -5    1    4    4    0  502  0.13974051880E+03 -0.13632361618E+03 -0.17333350478E+03  0.26110943070E+03  0.47000000000E+01 0.  1.
        -11    1    3    3    0    0 -0.10746285825E+03  0.37806232883E+02 -0.13233420401E+03  0.17461362690E+03  0.00000000000E+00 0.  1.
         11    1    3    3    0    0 -0.15533393327E+03  0.18321523846E+03 -0.32532914385E+03  0.40439523522E+03  0.00000000000E+00 0. -1.
<mgrwt>
<rscale>  0 0.36271018E+03</rscale>
<asrwt>0</asrwt>
<pdfrwt beam="1">  1        1 0.18664335E-01 0.36542826E+03</pdfrwt>
<pdfrwt beam="2">  1       -1 0.16443417E+00 0.36542826E+03</pdfrwt>
<totfact> 0.81864904E+01</totfact>
</mgrwt>
</event>
<event>
 8    1  0.1273312E-005  0.1713186E+03  0.7546771E-02  0.1182648E+00
          2   -1    0    0  501    0  0.00000000000E+00  0.00000000000E+00  0.12453358594E+03  0.12453358594E+03  0.00000000000E+00 0. -1.
         -2   -1    0    0    0  501 -0.00000000000E+00 -0.00000000000E+00 -0.36989817305E+03  0.36989817305E+03  0.00000000000E+00 0.  1.
         23    2    1    2    0    0  0.20865757340E+02 -0.11530316637E+03 -0.28221870287E+03  0.31919396769E+03  0.92234444545E+02 0.  0.
         23    2    1    2    0    0 -0.20865757340E+02  0.11530316637E+03  0.36854115755E+02  0.17523779130E+03  0.12497942890E+03 0.  0.
          5    1    4    4  502    0 -0.37936640230E+02  0.63973182797E+02 -0.37293757608E+02  0.83334693529E+02  0.47000000000E+01 0. -1.
         -5    1    4    4    0  502  0.17070882889E+02  0.51329983569E+02  0.74147873363E+02  0.91903097772E+02  0.47000000000E+01 0. -1.
        -11    1    3    3    0    0  0.67365722664E+01 -0.11977296961E+03 -0.27946035366E+03  0.30412009950E+03  0.00000000000E+00 0.  1.
         11    1    3    3    0    0  0.14129185074E+02  0.44698032447E+01 -0.27583492108E+01  0.15073868192E+02  0.00000000000E+00 0. -1.
<mgrwt>
<rscale>  0 0.16547746E+03</rscale>
<asrwt>0</asrwt>
<pdfrwt beam="1">  1        2 0.19159014E-01 0.17131859E+03</pdfrwt>
<pdfrwt beam="2">  1       -2 0.56907410E-01 0.17131859E+03</pdfrwt>
<totfact> 0.85362875E+02</totfact>
</mgrwt>
</event>
<event>
 7    1  0.1273312E-005  0.2090898E+03  0.7546771E-02  0.1156350E+00
         -2   -1    0    0    0  501 -0.00000000000E+00  0.00000000000E+00  0.64334936217E+02  0.64334936217E+02  0.00000000000E+00 0.  1.
          2   -1    0    0  501    0  0.00000000000E+00 -0.00000000000E+00 -0.13426367437E+04  0.13426367437E+04  0.00000000000E+00 0. -1.
         23    2    1    2    0    0  0.93398582274E+02 -0.79483678225E+02 -0.45465985453E+02  0.15653066877E+03  0.85986883639E+02 0.  0.
          5    1    1    2  502    0 -0.98872921860E+02  0.73684488388E+02 -0.12348228327E+04  0.12409733182E+04  0.47000000000E+01 0. -1.
         -5    1    1    2    0  502  0.54743395859E+01  0.57991898372E+01  0.19870106809E+01  0.94676928613E+01  0.47000000000E+01 0.  1.
        -11    1    3    3    0    0  0.47899157375E+02 -0.55808174756E+02  0.17221070569E+02  0.75534408837E+02  0.00000000000E+00 0.  1.
         11    1    3    3    0    0  0.45499424899E+02 -0.23675503469E+02 -0.62687056023E+02  0.80996259935E+02  0.00000000000E+00 0. -1.
<mgrwt>
<rscale>  0 0.19235997E+03</rscale>
<asrwt>0</asrwt>
<pdfrwt beam="2">  1        2 0.20655950E+00 0.20908983E+03</pdfrwt>
<pdfrwt beam="1">  1       -2 0.98976824E-02 0.20908983E+03</pdfrwt>
<totfact> 0.11268515E+03</totfact>
</mgrwt>
</event>
<event>
 8    1  0.1273312E-005  0.1888938E+03  0.7546771E-02  0.1164482E+00
         -1   -1    0    0    0  501 -0.00000000000E+00  0.00000000000E+00  0.91769070063E+02  0.91769070063E+02  0.00000000000E+00 0.  1.
          1   -1    0    0  501    0  0.00000000000E+00 -0.00000000000E+00 -0.35082666991E+03  0.35082666991E+03  0.00000000000E+00 0. -1.
         23    2    1    2    0    0  0.33813904881E+02  0.13752045919E+03 -0.99779204335E+02  0.19551182089E+03  0.90629606815E+02 0.  0.
         23    2    1    2    0    0 -0.33813904881E+02 -0.13752045919E+03 -0.15927839552E+03  0.24708391909E+03  0.12500239571E+03 0.  0.
          5    1    4    4  502    0 -0.61054203964E+02 -0.42367148394E+02 -0.21743128259E+02  0.77572190321E+02  0.47000000000E+01 0. -1.
         -5    1    4    4    0  502  0.27240299083E+02 -0.95153310795E+02 -0.13753526726E+03  0.16951172877E+03  0.47000000000E+01 0. -1.
        -11    1    3    3    0    0 -0.18380113555E+02  0.85572931615E+02 -0.81598121932E+02  0.11966122472E+03  0.00000000000E+00 0.  1.
         11    1    3    3    0    0  0.52194018436E+02  0.51947527574E+02 -0.18181082403E+02  0.75850596167E+02  0.00000000000E+00 0. -1.
<mgrwt>
<rscale>  0 0.18347504E+03</rscale>
<asrwt>0</asrwt>
<pdfrwt beam="2">  1        1 0.53973335E-01 0.18889377E+03</pdfrwt>
<pdfrwt beam="1">  1       -1 0.14118318E-01 0.18889377E+03</pdfrwt>
<totfact> 0.25048404E+03</totfact>
</mgrwt>
</event>
<event>
 8    1  0.1273312E-005  0.1512684E+03  0.7546771E-02  0.1207467E+00
         -1   -1    0    0    0  501 -0.00000000000E+00  0.00000000000E+00  0.63340767916E+03  0.63340767916E+03  0.00000000000E+00 0.  1.
          1   -1    0    0  501    0  0.00000000000E+00 -0.00000000000E+00 -0.31576730311E+02  0.31576730311E+02  0.00000000000E+00 0. -1.
         23    2    1    2    0    0 -0.85462315927E+02  0.49487205489E+01  0.34109465019E+03  0.36354530518E+03  0.92148419714E+02 0.  0.
         23    2    1    2    0    0  0.85462315927E+02 -0.49487205489E+01  0.26073629866E+03  0.30143910428E+03  0.12471495049E+03 0.  0.
          5    1    4    4  502    0  0.19834859754E+02  0.38682534095E+02  0.19151285822E+03  0.19644089434E+03  0.47000000000E+01 0.  1.
         -5    1    4    4    0  502  0.65627456173E+02 -0.43631254644E+02  0.69223440441E+02  0.10499820995E+03  0.47000000000E+01 0.  1.
        -11    1    3    3    0    0 -0.58651513156E+02 -0.12212134193E+02  0.31952584240E+03  0.32509367908E+03  0.00000000000E+00 0.  1.
         11    1    3    3    0    0 -0.26810802771E+02  0.17160854742E+02  0.21568807792E+02  0.38451626107E+02  0.00000000000E+00 0. -1.
<mgrwt>
<rscale>  0 0.14444769E+03</rscale>
<asrwt>0</asrwt>
<pdfrwt beam="2">  1        1 0.48579590E-02 0.15126836E+03</pdfrwt>
<pdfrwt beam="1">  1       -1 0.97447326E-01 0.15126836E+03</pdfrwt>
<totfact> 0.18083570E+03</totfact>
</mgrwt>
</event>
<event>
 8    1  0.1273312E-005  0.1367565E+03  0.7546771E-02  0.1229438E+00
          2   -1    0    0  501    0  0.00000000000E+00  0.00000000000E+00  0.65305490343E+02  0.65305490343E+02  0.00000000000E+00 0. -1.
         -2   -1    0    0    0  501 -0.00000000000E+00 -0.00000000000E+00 -0.29729005756E+03  0.29729005756E+03  0.00000000000E+00 0.  1.
         23    2    1    2    0    0 -0.45927985110E+02  0.31127239409E+02 -0.19237778990E+03  0.22021917506E+03  0.91700524353E+02 0.  0.
         23    2    1    2    0    0  0.45927985110E+02 -0.31127239409E+02 -0.39606777315E+02  0.14237637284E+03  0.12499619949E+03 0.  0.
          5    1    4    4  502    0  0.27116001404E+02  0.45954363684E+02 -0.32320031597E+02  0.62560015315E+02  0.47000000000E+01 0. -1.
         -5    1    4    4    0  502  0.18811983705E+02 -0.77081603092E+02 -0.72867457179E+01  0.79816357530E+02  0.47000000000E+01 0. -1.
        -11    1    3    3    0    0 -0.57007884369E+01  0.47770765509E+02 -0.15674331447E+03  0.16396039661E+03  0.00000000000E+00 0.  1.
         11    1    3    3    0    0 -0.40227196673E+02 -0.16643526100E+02 -0.35634475436E+02  0.56258778451E+02  0.00000000000E+00 0. -1.
<mgrwt>
<rscale>  0 0.12867318E+03</rscale>
<asrwt>0</asrwt>
<pdfrwt beam="1">  1        2 0.10046999E-01 0.13675648E+03</pdfrwt>
<pdfrwt beam="2">  1       -2 0.45736931E-01 0.13675648E+03</pdfrwt>
<totfact> 0.28091705E+03</totfact>
</mgrwt>
</event>
<event>
 8    1  0.1273312E-005  0.1538372E+03  0.7546771E-02  0.1203837E+00
         -1   -1    0    0    0  501 -0.00000000000E+00  0.00000000000E+00  0.65613177277E+02  0.65613177277E+02  0.00000000000E+00 0.  1.
          1   -1    0    0  501    0  0.00000000000E+00 -0.00000000000E+00 -0.32228633622E+03  0.32228633622E+03  0.00000000000E+00 0. -1.
         23    2    1    2    0    0 -0.17125047237E+02  0.88105901998E+02 -0.73600105673E+02  0.14877270852E+03  0.93061410020E+02 0.  0.
         23    2    1    2    0    0  0.17125047237E+02 -0.88105901998E+02 -0.18307305327E+03  0.23912680498E+03  0.12493986080E+03 0.  0.
          5    1    4    4  502    0  0.35211566238E+02 -0.11380787277E+03 -0.12380631605E+03  0.17187838781E+03  0.47000000000E+01 0. -1.
         -5    1    4    4    0  502 -0.18086519001E+02  0.25701970775E+02 -0.59266737221E+02  0.67248417172E+02  0.47000000000E+01 0. -1.
        -11    1    3    3    0    0  0.11139246290E+02  0.52137507755E+02  0.92710232024E+01  0.54114271630E+02  0.00000000000E+00 0.  1.
         11    1    3    3    0    0 -0.28264293526E+02  0.35968394242E+02 -0.82871128876E+02  0.94658436888E+02  0.00000000000E+00 0. -1.
<mgrwt>
<rscale>  0 0.14729524E+03</rscale>
<asrwt>0</asrwt>
<pdfrwt beam="2">  1        1 0.49582514E-01 0.15383721E+03</pdfrwt>
<pdfrwt beam="1">  1       -1 0.10094335E-01 0.15383721E+03</pdfrwt>
<totfact> 0.46481844E+03</totfact>
</mgrwt>
</event>
<event>
 8    1  0.1273312E-005  0.2682979E+03  0.7546771E-02  0.1104383E+00
         -1   -1    0    0    0  501 -0.00000000000E+00  0.00000000000E+00  0.28259249776E+02  0.28259249776E+02  0.00000000000E+00 0.  1.
          1   -1    0    0  501    0  0.00000000000E+00 -0.00000000000E+00 -0.30744963263E+04  0.30744963263E+04  0.00000000000E+00 0. -1.
         23    2    1    2    0    0 -0.17813517959E+03 -0.15692706236E+03 -0.77110290979E+03  0.81185635720E+03  0.90292868661E+02 0.  0.
         23    2    1    2    0    0  0.17813517959E+03  0.15692706236E+03 -0.22751341667E+04  0.22908992188E+04  0.12500203717E+03 0.  0.
          5    1    4    4  502    0  0.17571148193E+03  0.10328553223E+03 -0.20118878142E+04  0.20221911613E+04  0.47000000000E+01 0.  1.
         -5    1    4    4    0  502  0.24236976601E+01  0.53641530134E+02 -0.26324635250E+03  0.26870805751E+03  0.47000000000E+01 0.  1.
        -11    1    3    3    0    0 -0.16472887609E+03 -0.14418811765E+03 -0.75854072140E+03  0.78949974155E+03  0.00000000000E+00 0. -1.
         11    1    3    3    0    0 -0.13406303503E+02 -0.12738944713E+02 -0.12562188384E+02  0.22356615643E+02  0.00000000000E+00 0.  1.
<mgrwt>
<rscale>  0 0.26464714E+03</rscale>
<asrwt>0</asrwt>
<pdfrwt beam="2">  1        1 0.47299960E+00 0.26829788E+03</pdfrwt>
<pdfrwt beam="1">  1       -1 0.43475754E-02 0.26829788E+03</pdfrwt>
<totfact> 0.13932278E+02</totfact>
</mgrwt>
</event>
<event>
 8    1  0.1273312E-005  0.1628937E+03  0.7546771E-02  0.1192816E+00
          2   -1    0    0  501    0  0.00000000000E+00  0.00000000000E+00  0.22747364902E+03  0.22747364902E+03  0.00000000000E+00 0. -1.
         -2   -1    0    0    0  501 -0.00000000000E+00 -0.00000000000E+00 -0.10687308443E+03  0.10687308443E+03  0.00000000000E+00 0.  1.
         23    2    1    2    0    0 -0.49147633032E+02 -0.92165452319E+02  0.98605202460E+02  0.16997469435E+03  0.90876016276E+02 0.  0.
         23    2    1    2    0    0  0.49147633032E+02  0.92165452319E+02  0.21995362126E+02  0.16437203909E+03  0.12499764336E+03 0.  0.
          5    1    4    4  502    0  0.24022267207E+02  0.11960156448E+03  0.24943379047E+01  0.12210616392E+03  0.47000000000E+01 0. -1.
         -5    1    4    4    0  502  0.25125365825E+02 -0.27436112156E+02  0.19501024221E+02  0.42265875169E+02  0.47000000000E+01 0. -1.
        -11    1    3    3    0    0  0.16759591744E+02 -0.43676369721E+02  0.72599786443E+01  0.47341487908E+02  0.00000000000E+00 0.  1.
         11    1    3    3    0    0 -0.65907224776E+02 -0.48489082598E+02  0.91345223816E+02  0.12263320644E+03  0.00000000000E+00 0. -1.
<mgrwt>
<rscale>  0 0.15640534E+03</rscale>
<asrwt>0</asrwt>
<pdfrwt beam="1">  1        2 0.34995946E-01 0.16289374E+03</pdfrwt>
<pdfrwt beam="2">  1       -2 0.16442013E-01 0.16289374E+03</pdfrwt>
<totfact> 0.42114154E+03</totfact>
</mgrwt>
</event>
<event>
 8    1  0.1273312E-005  0.1683009E+03  0.7546771E-02  0.1187043E+00
         -1   -1    0    0    0  501 -0.00000000000E+00  0.00000000000E+00  0.84008913132E+02  0.84008913132E+02  0.00000000000E+00 0.  1.
          1   -1    0    0  501    0  0.00000000000E+00 -0.00000000000E+00 -0.30517722169E+03  0.30517722169E+03  0.00000000000E+00 0. -1.
         23    2    1    2    0    0  0.98473754114E+02 -0.54687978001E+02 -0.55501995320E+02  0.15302829361E+03  0.87460459481E+02 0.  0.
         23    2    1    2    0    0 -0.98473754114E+02  0.54687978001E+02 -0.16566631324E+03  0.23615784122E+03  0.12504936401E+03 0.  0.
          5    1    4    4  502    0 -0.51357110310E+02 -0.22871403978E+02 -0.12391750644E+03  0.13615539762E+03  0.47000000000E+01 0. -1.
         -5    1    4    4    0  502 -0.47116643803E+02  0.77559381980E+02 -0.41748806805E+02  0.10000244360E+03  0.47000000000E+01 0. -1.
        -11    1    3    3    0    0 -0.13998946205E+02 -0.19538904415E+02 -0.37469560048E+01  0.24326507351E+02  0.00000000000E+00 0.  1.
         11    1    3    3    0    0  0.11247270032E+03 -0.35149073586E+02 -0.51755039316E+02  0.12870178626E+03  0.00000000000E+00 0. -1.
<mgrwt>
<rscale>  0 0.16147349E+03</rscale>
<asrwt>0</asrwt>
<pdfrwt beam="2">  1        1 0.46950341E-01 0.16830092E+03</pdfrwt>
<pdfrwt beam="1">  1       -1 0.12924448E-01 0.16830092E+03</pdfrwt>
<totfact> 0.34107516E+03</totfact>
</mgrwt>
</event>
<event>
 8    1  0.1273312E-005  0.2061128E+03  0.7546771E-02  0.1148756E+00
         -2   -1    0    0    0  501 -0.00000000000E+00  0.00000000000E+00  0.50478891766E+02  0.50478891766E+02  0.00000000000E+00 0. -1.
          2   -1    0    0  501    0  0.00000000000E+00 -0.00000000000E+00 -0.10057965280E+04  0.10057965280E+04  0.00000000000E+00 0.  1.
         23    2    1    2    0    0 -0.24291772219E+02  0.16205331748E+03 -0.20210987903E+03  0.27537566568E+03  0.90177525704E+02 0.  0.
         23    2    1    2    0    0  0.24291772219E+02 -0.16205331748E+03 -0.75320775715E+03  0.78089975404E+03  0.12502452766E+03 0.  0.
          5    1    4    4  502    0 -0.58032940162E+01 -0.10616949508E+03 -0.22535753133E+03  0.24922629643E+03  0.47000000000E+01 0. -1.
         -5    1    4    4    0  502  0.30095066235E+02 -0.55883822399E+02 -0.52785022583E+03  0.53167345760E+03  0.47000000000E+01 0. -1.
        -11    1    3    3    0    0 -0.76950525513E+01  0.92883867679E+02 -0.46240638446E+02  0.10404241132E+03  0.00000000000E+00 0. -1.
         11    1    3    3    0    0 -0.16596719667E+02  0.69169449802E+02 -0.15586924059E+03  0.17133325436E+03  0.00000000000E+00 0.  1.
<mgrwt>
<rscale>  0 0.20116919E+03</rscale>
<asrwt>0</asrwt>
<pdfrwt beam="2">  1        2 0.15473792E+00 0.20611283E+03</pdfrwt>
<pdfrwt beam="1">  1       -2 0.77659837E-02 0.20611283E+03</pdfrwt>
<totfact> 0.25675992E+03</totfact>
</mgrwt>
</event>
<event>
 8    1  0.1273312E-005  0.1274910E+03  0.7546771E-02  0.1244983E+00
          1   -1    0    0  501    0  0.00000000000E+00  0.00000000000E+00  0.29767096971E+03  0.29767096971E+03  0.00000000000E+00 0. -1.
         -1   -1    0    0    0  501 -0.00000000000E+00 -0.00000000000E+00 -0.59825810794E+02  0.59825810794E+02  0.00000000000E+00 0.  1.
         23    2    1    2    0    0 -0.95624758474E+01 -0.23186162172E+02  0.10573902761E+02  0.96908649150E+02  0.93007740538E+02 0.  0.
         23    2    1    2    0    0  0.95624758474E+01  0.23186162172E+02  0.22727125616E+03  0.26058813135E+03  0.12499964507E+03 0.  0.
          5    1    4    4  502    0  0.31036870555E+01  0.23821577900E+02 -0.75607631763E+01  0.25619437675E+02  0.47000000000E+01 0.  1.
         -5    1    4    4    0  502  0.64587887919E+01 -0.63541572823E+00  0.23483201933E+03  0.23496869368E+03  0.47000000000E+01 0.  1.
        -11    1    3    3    0    0 -0.20869099909E+02 -0.49698541755E+02  0.30439249333E+02  0.61903249378E+02  0.00000000000E+00 0. -1.
         11    1    3    3    0    0  0.11306624062E+02  0.26512379582E+02 -0.19865346573E+02  0.35005399773E+02  0.00000000000E+00 0.  1.
<mgrwt>
<rscale>  0 0.11886392E+03</rscale>
<asrwt>0</asrwt>
<pdfrwt beam="1">  1        1 0.45795533E-01 0.12749098E+03</pdfrwt>
<pdfrwt beam="2">  1       -1 0.92039710E-02 0.12749098E+03</pdfrwt>
<totfact> 0.58415352E+03</totfact>
</mgrwt>
</event>
<event>
 8    1  0.1273312E-005  0.1318263E+03  0.7546771E-02  0.1232675E+00
          1   -1    0    0  501    0  0.00000000000E+00  0.00000000000E+00  0.54639821562E+02  0.54639821562E+02  0.00000000000E+00 0. -1.
         -1   -1    0    0    0  501 -0.00000000000E+00 -0.00000000000E+00 -0.44819006391E+03  0.44819006391E+03  0.00000000000E+00 0.  1.
         23    2    1    2    0    0 -0.38606409803E+02 -0.51609449495E+02 -0.34440812185E+03  0.36214184759E+03  0.91519250597E+02 0.  0.
         23    2    1    2    0    0  0.38606409803E+02  0.51609449495E+02 -0.49142120504E+02  0.14068803788E+03  0.11499646012E+03 0.  0.
          5    1    4    4  502    0  0.32634413832E+02  0.82888503632E+02 -0.59085063321E+02  0.10699833507E+03  0.47000000000E+01 0. -1.
         -5    1    4    4    0  502  0.59719959712E+01 -0.31279054137E+02  0.99429428165E+01  0.33689702810E+02  0.47000000000E+01 0.  1.
        -11    1    3    3    0    0 -0.65160429152E+02 -0.39762778626E+02 -0.29589100834E+03  0.30557887510E+03  0.00000000000E+00 0.  1.
         11    1    3    3    0    0  0.26554019349E+02 -0.11846670869E+02 -0.48517113506E+02  0.56562972493E+02  0.00000000000E+00 0. -1.
<mgrwt>
<rscale>  0 0.12654484E+03</rscale>
<asrwt>0</asrwt>
<pdfrwt beam="1">  1        1 0.84061262E-02 0.13182631E+03</pdfrwt>
<pdfrwt beam="2">  1       -1 0.68952319E-01 0.13182631E+03</pdfrwt>
<totfact> 0.17478165E+03</totfact>
</mgrwt>
</event>
<event>
 8    1  0.1273312E-005  0.1326153E+03  0.7546771E-02  0.1234380E+00
          2   -1    0    0  501    0  0.00000000000E+00  0.00000000000E+00  0.80210868920E+02  0.80210868920E+02  0.00000000000E+00 0. -1.
         -2   -1    0    0    0  501 -0.00000000000E+00 -0.00000000000E+00 -0.17832244931E+03  0.17832244931E+03  0.00000000000E+00 0.  1.
         23    2    1    2    0    0 -0.28550269384E+02 -0.33868830997E+02 -0.36116443297E+02  0.11214273752E+03  0.96485131013E+02 0.  0.
         23    2    1    2    0    0  0.28550269384E+02  0.33868830997E+02 -0.61995137094E+02  0.14639058071E+03  0.12499835800E+03 0.  0.
          5    1    4    4  502    0  0.12227058858E+02  0.46153345084E+02  0.26937022201E+02  0.55021135901E+02  0.47000000000E+01 0.  1.
         -5    1    4    4    0  502  0.16323210526E+02 -0.12284514088E+02 -0.88932159295E+02  0.91369444811E+02  0.47000000000E+01 0.  1.
        -11    1    3    3    0    0 -0.40011892396E+02 -0.39657311216E+02 -0.61680414939E+02  0.83535186916E+02  0.00000000000E+00 0.  1.
         11    1    3    3    0    0  0.11461623012E+02  0.57884802192E+01  0.25563971642E+02  0.28607550602E+02  0.00000000000E+00 0. -1.
<mgrwt>
<rscale>  0 0.12544209E+03</rscale>
<asrwt>0</asrwt>
<pdfrwt beam="1">  1        2 0.12340134E-01 0.13261525E+03</pdfrwt>
<pdfrwt beam="2">  1       -2 0.27434223E-01 0.13261525E+03</pdfrwt>
<totfact> 0.56325350E+03</totfact>
</mgrwt>
</event>
<event>
 8    1  0.1273312E-005  0.1610318E+03  0.7546771E-02  0.1194643E+00
          2   -1    0    0  501    0  0.00000000000E+00  0.00000000000E+00  0.26969093200E+03  0.26969093200E+03  0.00000000000E+00 0. -1.
         -2   -1    0    0    0  501 -0.00000000000E+00 -0.00000000000E+00 -0.10121243858E+03  0.10121243858E+03  0.00000000000E+00 0.  1.
         23    2    1    2    0    0  0.79666861295E+02  0.62939131398E+02 -0.23499698681E+00  0.13767498205E+03  0.92984957967E+02 0.  0.
         23    2    1    2    0    0 -0.79666861295E+02 -0.62939131398E+02  0.16871349041E+03  0.23322838853E+03  0.12499238506E+03 0.  0.
          5    1    4    4  502    0 -0.16846004183E+02 -0.23348185955E+02  0.15481205671E+03  0.15753662605E+03  0.47000000000E+01 0.  1.
         -5    1    4    4    0  502 -0.62820857112E+02 -0.39590945443E+02  0.13901433697E+02  0.75691762485E+02  0.47000000000E+01 0.  1.
        -11    1    3    3    0    0  0.42864031624E+02  0.81555162839E+02 -0.16016993648E+02  0.93515313603E+02  0.00000000000E+00 0.  1.
         11    1    3    3    0    0  0.36802829671E+02 -0.18616031441E+02  0.15781996661E+02  0.44159668443E+02  0.00000000000E+00 0. -1.
<mgrwt>
<rscale>  0 0.15484505E+03</rscale>
<asrwt>0</asrwt>
<pdfrwt beam="1">  1        2 0.41490912E-01 0.16103180E+03</pdfrwt>
<pdfrwt beam="2">  1       -2 0.15571144E-01 0.16103180E+03</pdfrwt>
<totfact> 0.38369680E+03</totfact>
</mgrwt>
</event>
<event>
 8    1  0.1273312E-005  0.1709459E+03  0.7546771E-02  0.1183314E+00
         -2   -1    0    0    0  501 -0.00000000000E+00  0.00000000000E+00  0.38465595458E+02  0.38465595458E+02  0.00000000000E+00 0.  1.
          2   -1    0    0  501    0  0.00000000000E+00 -0.00000000000E+00 -0.78472261438E+03  0.78472261438E+03  0.00000000000E+00 0. -1.
         23    2    1    2    0    0  0.65299766426E+02  0.96611062386E+02 -0.18710118450E+03  0.23848507533E+03  0.90942405090E+02 0.  0.
         23    2    1    2    0    0 -0.65299766426E+02 -0.96611062386E+02 -0.55915583442E+03  0.58470313451E+03  0.12499900585E+03 0.  0.
          5    1    4    4  502    0 -0.25746304495E+02  0.10398832516E+02 -0.22533583297E+02  0.36067440844E+02  0.47000000000E+01 0. -1.
         -5    1    4    4    0  502 -0.39553461931E+02 -0.10700989490E+03 -0.53662225113E+03  0.54863569366E+03  0.47000000000E+01 0. -1.
        -11    1    3    3    0    0  0.47386088632E+02  0.34408017264E+02 -0.24511529667E+02  0.63483605242E+02  0.00000000000E+00 0.  1.
         11    1    3    3    0    0  0.17913677794E+02  0.62203045121E+02 -0.16258965483E+03  0.17500147009E+03  0.00000000000E+00 0. -1.
<mgrwt>
<rscale>  0 0.16486212E+03</rscale>
<asrwt>0</asrwt>
<pdfrwt beam="2">  1        2 0.12072655E+00 0.17094592E+03</pdfrwt>
<pdfrwt beam="1">  1       -2 0.59177841E-02 0.17094592E+03</pdfrwt>
<totfact> 0.53866337E+03</totfact>
</mgrwt>
</event>
<event>
 8    1  0.1273312E-005  0.1826067E+03  0.7546771E-02  0.1171403E+00
         -2   -1    0    0    0  501 -0.00000000000E+00  0.00000000000E+00  0.25134520640E+02  0.25134520640E+02  0.00000000000E+00 0.  1.
          2   -1    0    0  501    0  0.00000000000E+00 -0.00000000000E+00 -0.11777431485E+04  0.11777431485E+04  0.00000000000E+00 0. -1.
         23    2    1    2    0    0 -0.10268208145E+03 -0.84715521372E+02 -0.61216434422E+03  0.63241711429E+03  0.86521053502E+02 0.  0.
         23    2    1    2    0    0  0.10268208145E+03  0.84715521372E+02 -0.54044428367E+03  0.57046055488E+03  0.12499956604E+03 0.  0.
          5    1    4    4  502    0  0.14721973117E+02  0.75122710352E+02 -0.13332824270E+03  0.15381374583E+03  0.47000000000E+01 0. -1.
         -5    1    4    4    0  502  0.87960108337E+02  0.95928110193E+01 -0.40711604097E+03  0.41664680905E+03  0.47000000000E+01 0. -1.
        -11    1    3    3    0    0 -0.37486709548E+02  0.89892817688E+01 -0.89791414129E+02  0.97716726464E+02  0.00000000000E+00 0.  1.
         11    1    3    3    0    0 -0.65195371906E+02 -0.93704803140E+02 -0.52237293009E+03  0.53470038783E+03  0.00000000000E+00 0. -1.
<mgrwt>
<rscale>  0 0.17632994E+03</rscale>
<asrwt>0</asrwt>
<pdfrwt beam="2">  1        2 0.18119125E+00 0.18260674E+03</pdfrwt>
<pdfrwt beam="1">  1       -2 0.38668495E-02 0.18260674E+03</pdfrwt>
<totfact> 0.58774321E+03</totfact>
</mgrwt>
</event>
<event>
 8    1  0.1273312E-005  0.1253332E+03  0.7546771E-02  0.1249773E+00
         -2   -1    0    0    0  501 -0.00000000000E+00  0.00000000000E+00  0.19802473671E+02  0.19802473671E+02  0.00000000000E+00 0. -1.
          2   -1    0    0  501    0  0.00000000000E+00 -0.00000000000E+00 -0.68333651056E+03  0.68333651056E+03  0.00000000000E+00 0.  1.
         23    2    1    2    0    0  0.88114801040E+01 -0.12003081680E+01 -0.16369213389E+03  0.18782322338E+03  0.91669873045E+02 0.  0.
         23    2    1    2    0    0 -0.88114801040E+01  0.12003081680E+01 -0.49984190300E+03  0.51531576085E+03  0.12501728865E+03 0.  0.
          5    1    4    4  502    0 -0.51915577145E+02  0.33009052424E+02 -0.16452157490E+03  0.17571073757E+03  0.47000000000E+01 0.  1.
         -5    1    4    4    0  502  0.43104097041E+02 -0.31808744256E+02 -0.33532032811E+03  0.33960502328E+03  0.47000000000E+01 0.  1.
        -11    1    3    3    0    0 -0.26036666575E+02  0.29620286982E+02 -0.42350952838E+02  0.57869444559E+02  0.00000000000E+00 0. -1.
         11    1    3    3    0    0  0.34848146679E+02 -0.30820595150E+02 -0.12134118105E+03  0.12995377882E+03  0.00000000000E+00 0.  1.
<mgrwt>
<rscale>  0 0.11604186E+03</rscale>
<asrwt>0</asrwt>
<pdfrwt beam="2">  1        2 0.10512866E+00 0.12533318E+03</pdfrwt>
<pdfrwt beam="1">  1       -2 0.30465353E-02 0.12533318E+03</pdfrwt>
<totfact> 0.16851331E+04</totfact>
</mgrwt>
</event>
<event>
 8    1  0.1273312E-005  0.1931056E+03  0.7546771E-02  0.1160046E+00
         -3   -1    0    0    0  501 -0.00000000000E+00  0.00000000000E+00  0.50154674784E+03  0.50154674784E+03  0.00000000000E+00 0.  1.
          3   -1    0    0  501    0  0.00000000000E+00 -0.00000000000E+00 -0.69162544166E+02  0.69162544166E+02  0.00000000000E+00 0. -1.
         23    2    1    2    0    0 -0.31668966692E+02 -0.14374269654E+03  0.25190597258E+03  0.30639479215E+03  0.93574907835E+02 0.  0.
         23    2    1    2    0    0  0.31668966692E+02  0.14374269654E+03  0.18047823110E+03  0.26431449986E+03  0.12499950670E+03 0.  0.
          5    1    4    4  502    0 -0.16346064751E+02 -0.16129912636E+02  0.94312867609E+01  0.25266718909E+02  0.47000000000E+01 0. -1.
         -5    1    4    4    0  502  0.48015031442E+02  0.15987260918E+03  0.17104694434E+03  0.23904778095E+03  0.47000000000E+01 0. -1.
        -11    1    3    3    0    0 -0.64119888977E+02 -0.77540686266E+02  0.14103727228E+03  0.17324961865E+03  0.00000000000E+00 0. -1.
         11    1    3    3    0    0  0.32450922285E+02 -0.66202010275E+02  0.11086870030E+03  0.13314517351E+03  0.00000000000E+00 0.  1.
<mgrwt>
<rscale>  0 0.18825350E+03</rscale>
<asrwt>0</asrwt>
<pdfrwt beam="2">  1        3 0.10640392E-01 0.19310557E+03</pdfrwt>
<pdfrwt beam="1">  1       -3 0.77161036E-01 0.19310557E+03</pdfrwt>
<totfact> 0.26104046E+02</totfact>
</mgrwt>
</event>
<event>
 8    1  0.1273312E-005  0.1290790E+03  0.7546771E-02  0.1243187E+00
         -2   -1    0    0    0  501 -0.00000000000E+00  0.00000000000E+00  0.30032108114E+02  0.30032108114E+02  0.00000000000E+00 0. -1.
          2   -1    0    0  501    0  0.00000000000E+00 -0.00000000000E+00 -0.55005582413E+03  0.55005582413E+03  0.00000000000E+00 0.  1.
         23    2    1    2    0    0 -0.31055708855E+02  0.85094062516E+01 -0.92442794181E+02  0.13344843269E+03  0.90697006262E+02 0.  0.
         23    2    1    2    0    0  0.31055708855E+02 -0.85094062516E+01 -0.42758092184E+03  0.44663949955E+03  0.12499812317E+03 0.  0.
          5    1    4    4  502    0 -0.43076134486E+02  0.19440618347E+02 -0.20188085036E+03  0.20739204118E+03  0.47000000000E+01 0.  1.
         -5    1    4    4    0  502  0.74131843341E+02 -0.27950024598E+02 -0.22570007148E+03  0.23924745837E+03  0.47000000000E+01 0.  1.
        -11    1    3    3    0    0  0.27292675011E+02  0.11634187074E+01 -0.60827386128E+02  0.66679941178E+02  0.00000000000E+00 0. -1.
         11    1    3    3    0    0 -0.58348383866E+02  0.73459875442E+01 -0.31615408053E+02  0.66768491515E+02  0.00000000000E+00 0.  1.
<mgrwt>
<rscale>  0 0.11994569E+03</rscale>
<asrwt>0</asrwt>
<pdfrwt beam="2">  1        2 0.84623973E-01 0.12907904E+03</pdfrwt>
<pdfrwt beam="1">  1       -2 0.46203243E-02 0.12907904E+03</pdfrwt>
<totfact> 0.11682925E+04</totfact>
</mgrwt>
</event>
<event>
 8    1  0.1273312E-005  0.2405153E+03  0.7546771E-02  0.1121802E+00
          2   -1    0    0  501    0  0.00000000000E+00  0.00000000000E+00  0.31906710035E+04  0.31906710035E+04  0.00000000000E+00 0.  1.
         -2   -1    0    0    0  501 -0.00000000000E+00 -0.00000000000E+00 -0.17624245963E+02  0.17624245963E+02  0.00000000000E+00 0. -1.
         23    2    1    2    0    0  0.20101062878E+03  0.42632544483E+02  0.12675369831E+04  0.12876664190E+04  0.95979145080E+02 0.  0.
         23    2    1    2    0    0 -0.20101062878E+03 -0.42632544483E+02  0.19055097744E+04  0.19206288305E+04  0.12499918923E+03 0.  0.
          5    1    4    4  502    0 -0.14865481346E+03  0.17526405497E+02  0.14901187634E+04  0.14976252694E+04  0.47000000000E+01 0. -1.
         -5    1    4    4    0  502 -0.52355815313E+02 -0.60158949980E+02  0.41539101098E+03  0.42300356105E+03  0.47000000000E+01 0. -1.
        -11    1    3    3    0    0  0.32886932390E+02 -0.29158734469E+02  0.25408865102E+03  0.25786202647E+03  0.00000000000E+00 0.  1.
         11    1    3    3    0    0  0.16812369639E+03  0.71791278953E+02  0.10134483321E+04  0.10298043925E+04  0.00000000000E+00 0. -1.
<mgrwt>
<rscale>  0 0.23700863E+03</rscale>
<asrwt>0</asrwt>
<pdfrwt beam="1">  1        2 0.49087200E+00 0.24051529E+03</pdfrwt>
<pdfrwt beam="2">  1       -2 0.27114250E-02 0.24051529E+03</pdfrwt>
<totfact> 0.79229268E+02</totfact>
</mgrwt>
</event>
<event>
 8    1  0.1273312E-005  0.1357645E+03  0.7546771E-02  0.1230277E+00
          1   -1    0    0  501    0  0.00000000000E+00  0.00000000000E+00  0.72176782665E+03  0.72176782665E+03  0.00000000000E+00 0. -1.
         -1   -1    0    0    0  501 -0.00000000000E+00 -0.00000000000E+00 -0.20545615905E+02  0.20545615905E+02  0.00000000000E+00 0.  1.
         23    2    1    2    0    0 -0.49900336534E+02  0.17839450110E+02  0.29850925821E+03  0.31733142023E+03  0.93718533177E+02 0.  0.
         23    2    1    2    0    0  0.49900336534E+02 -0.17839450110E+02  0.40271295254E+03  0.42498202233E+03  0.12499483027E+03 0.  0.
          5    1    4    4  502    0  0.25500945125E+02 -0.66628058723E+02  0.14689102223E+03  0.16336663926E+03  0.47000000000E+01 0.  1.
         -5    1    4    4    0  502  0.24399391409E+02  0.48788608613E+02  0.25582193030E+03  0.26161538306E+03  0.47000000000E+01 0.  1.
        -11    1    3    3    0    0 -0.74665628907E+02  0.17130424932E+00  0.17767013800E+03  0.19272172535E+03  0.00000000000E+00 0. -1.
         11    1    3    3    0    0  0.24765292373E+02  0.17668145860E+02  0.12083912021E+03  0.12460969488E+03  0.00000000000E+00 0.  1.
<mgrwt>
<rscale>  0 0.12811704E+03</rscale>
<asrwt>0</asrwt>
<pdfrwt beam="1">  1        1 0.11104118E+00 0.13576449E+03</pdfrwt>
<pdfrwt beam="2">  1       -1 0.31608645E-02 0.13576449E+03</pdfrwt>
<totfact> 0.90307761E+03</totfact>
</mgrwt>
</event>
<event>
 8    1  0.1273312E-005  0.1207471E+03  0.7546771E-02  0.1253713E+00
         -1   -1    0    0    0  501 -0.00000000000E+00  0.00000000000E+00  0.28521915153E+03  0.28521915153E+03  0.00000000000E+00 0.  1.
          1   -1    0    0  501    0  0.00000000000E+00 -0.00000000000E+00 -0.69952939651E+02  0.69952939651E+02  0.00000000000E+00 0. -1.
         23    2    1    2    0    0 -0.21886303783E+02  0.15027492171E+02  0.21420894715E+03  0.23442039820E+03  0.91447330426E+02 0.  0.
         23    2    1    2    0    0  0.21886303783E+02 -0.15027492171E+02  0.10572647344E+01  0.12075169298E+03  0.11779226517E+03 0.  0.
          5    1    4    4  502    0  0.30950914596E+02 -0.63357302768E+02 -0.56809025393E+01  0.70897599268E+02  0.47000000000E+01 0. -1.
         -5    1    4    4    0  502 -0.90646108125E+01  0.48329810597E+02  0.67381672737E+01  0.49854093711E+02  0.47000000000E+01 0.  1.
        -11    1    3    3    0    0  0.29443074846E+02  0.27429176822E+02  0.68592247952E+02  0.79524530031E+02  0.00000000000E+00 0.  1.
         11    1    3    3    0    0 -0.51329378629E+02 -0.12401684651E+02  0.14561669919E+03  0.15489586817E+03  0.00000000000E+00 0. -1.
<mgrwt>
<rscale>  0 0.11378711E+03</rscale>
<asrwt>0</asrwt>
<pdfrwt beam="2">  1        1 0.10761991E-01 0.12074706E+03</pdfrwt>
<pdfrwt beam="1">  1       -1 0.43879869E-01 0.12074706E+03</pdfrwt>
<totfact> 0.29100872E+03</totfact>
</mgrwt>
</event>
<event>
 8    1  0.1273312E-005  0.1535547E+03  0.7546771E-02  0.1204336E+00
          2   -1    0    0  501    0  0.00000000000E+00  0.00000000000E+00  0.14337460562E+04  0.14337460562E+04  0.00000000000E+00 0. -1.
         -2   -1    0    0    0  501 -0.00000000000E+00 -0.00000000000E+00 -0.15477015100E+02  0.15477015100E+02  0.00000000000E+00 0.  1.
         23    2    1    2    0    0  0.85632838666E+02  0.25798812604E+02  0.42117500221E+03  0.44037443171E+03  0.92426705138E+02 0.  0.
         23    2    1    2    0    0 -0.85632838666E+02 -0.25798812604E+02  0.99709403888E+03  0.10088486396E+04  0.12482184678E+03 0.  0.
          5    1    4    4  502    0 -0.20533946800E+02 -0.99801057558E+01  0.80528749014E+03  0.80562477448E+03  0.47000000000E+01 0. -1.
         -5    1    4    4    0  502 -0.65098891866E+02 -0.15818706848E+02  0.19180654874E+03  0.20322386511E+03  0.47000000000E+01 0.  1.
        -11    1    3    3    0    0  0.10299773662E+03  0.33944195301E+02  0.33604507140E+03  0.35311050983E+03  0.00000000000E+00 0. -1.
         11    1    3    3    0    0 -0.17364897956E+02 -0.81453826970E+01  0.85129930818E+02  0.87263921877E+02  0.00000000000E+00 0.  1.
<mgrwt>
<rscale>  0 0.14689887E+03</rscale>
<asrwt>0</asrwt>
<pdfrwt beam="1">  1        2 0.22057621E+00 0.15355473E+03</pdfrwt>
<pdfrwt beam="2">  1       -2 0.23810804E-02 0.15355473E+03</pdfrwt>
<totfact> 0.86800134E+03</totfact>
</mgrwt>
</event>
<event>
 8    1  0.1273312E-005  0.1238894E+03  0.7546771E-02  0.1250176E+00
          1   -1    0    0  501    0  0.00000000000E+00  0.00000000000E+00  0.76368625778E+02  0.76368625778E+02  0.00000000000E+00 0. -1.
         -1   -1    0    0    0  501 -0.00000000000E+00 -0.00000000000E+00 -0.25422442192E+03  0.25422442192E+03  0.00000000000E+00 0.  1.
         23    2    1    2    0    0 -0.23643489733E+02  0.34805142733E+01 -0.18363710690E+03  0.20656883520E+03  0.91525778113E+02 0.  0.
         23    2    1    2    0    0  0.23643489733E+02 -0.34805142733E+01  0.57813107615E+01  0.12402421249E+03  0.12156254828E+03 0.  0.
          5    1    4    4  502    0 -0.36382875471E+02 -0.34747602792E+02  0.20622196860E+02  0.54575402249E+02  0.47000000000E+01 0. -1.
         -5    1    4    4    0  502  0.60026365204E+02  0.31267088519E+02 -0.14840886099E+02  0.69448810244E+02  0.47000000000E+01 0.  1.
        -11    1    3    3    0    0  0.15422747160E+01 -0.39492686686E+02 -0.48623200415E+02  0.62659927638E+02  0.00000000000E+00 0. -1.
         11    1    3    3    0    0 -0.25185764449E+02  0.42973200959E+02 -0.13501390648E+03  0.14390890756E+03  0.00000000000E+00 0.  1.
<mgrwt>
<rscale>  0 0.11580890E+03</rscale>
<asrwt>0</asrwt>
<pdfrwt beam="1">  1        1 0.11749019E-01 0.12388939E+03</pdfrwt>
<pdfrwt beam="2">  1       -1 0.39111450E-01 0.12388939E+03</pdfrwt>
<totfact> 0.31794980E+03</totfact>
</mgrwt>
</event>
<event>
 8    1  0.1273312E-005  0.1505677E+03  0.7546771E-02  0.1208952E+00
          2   -1    0    0  501    0  0.00000000000E+00  0.00000000000E+00  0.59703246755E+03  0.59703246755E+03  0.00000000000E+00 0. -1.
         -2   -1    0    0    0  501 -0.00000000000E+00 -0.00000000000E+00 -0.48985335188E+02  0.48985335188E+02  0.00000000000E+00 0.  1.
         23    2    1    2    0    0  0.29621462526E+02  0.78530345245E+02  0.64092613308E+02  0.13918191784E+03  0.90660338667E+02 0.  0.
         23    2    1    2    0    0 -0.29621462526E+02 -0.78530345245E+02  0.48395451905E+03  0.50683588490E+03  0.12500476606E+03 0.  0.
          5    1    4    4  502    0  0.70485295908E+01 -0.10428096420E+03  0.31189233074E+03  0.32897282143E+03  0.47000000000E+01 0.  1.
         -5    1    4    4    0  502 -0.36669992117E+02  0.25750618956E+02  0.17206218831E+03  0.17786306346E+03  0.47000000000E+01 0.  1.
        -11    1    3    3    0    0 -0.10724817803E+01 -0.20110063951E+02  0.83982474750E+01  0.21819611590E+02  0.00000000000E+00 0.  1.
         11    1    3    3    0    0  0.30693944306E+02  0.98640409196E+02  0.55694365833E+02  0.11736230625E+03  0.00000000000E+00 0. -1.
<mgrwt>
<rscale>  0 0.14330341E+03</rscale>
<asrwt>0</asrwt>
<pdfrwt beam="1">  1        2 0.91851144E-01 0.15056772E+03</pdfrwt>
<pdfrwt beam="2">  1       -2 0.75362059E-02 0.15056772E+03</pdfrwt>
<totfact> 0.51190831E+03</totfact>
</mgrwt>
</event>
<event>
 8    1  0.1273312E-005  0.1332525E+03  0.7546771E-02  0.1235540E+00
         -2   -1    0    0    0  501 -0.00000000000E+00  0.00000000000E+00  0.26581890019E+02  0.26581890019E+02  0.00000000000E+00 0. -1.
          2   -1    0    0  501    0  0.00000000000E+00 -0.00000000000E+00 -0.52259556188E+03  0.52259556188E+03  0.00000000000E+00 0.  1.
         23    2    1    2    0    0 -0.69307905550E+01 -0.45751031405E+02 -0.20215457507E+03  0.22651759130E+03  0.91118352788E+02 0.  0.
         23    2    1    2    0    0  0.69307905550E+01  0.45751031405E+02 -0.29385909679E+03  0.32265986060E+03  0.12496009020E+03 0.  0.
          5    1    4    4  502    0 -0.33863876539E+02  0.35909499932E+02 -0.35767015149E+02  0.61136107926E+02  0.47000000000E+01 0. -1.
         -5    1    4    4    0  502  0.40794667094E+02  0.98415314721E+01 -0.25809208165E+03  0.26152375268E+03  0.47000000000E+01 0. -1.
        -11    1    3    3    0    0  0.35098430252E+02 -0.35094531068E+02 -0.59845359087E+02  0.77749552547E+02  0.00000000000E+00 0. -1.
         11    1    3    3    0    0 -0.42029220807E+02 -0.10656500336E+02 -0.14230921598E+03  0.14876803875E+03  0.00000000000E+00 0.  1.
<mgrwt>
<rscale>  0 0.12469914E+03</rscale>
<asrwt>0</asrwt>
<pdfrwt beam="2">  1        2 0.80399317E-01 0.13325246E+03</pdfrwt>
<pdfrwt beam="1">  1       -2 0.40895216E-02 0.13325246E+03</pdfrwt>
<totfact> 0.14868814E+04</totfact>
</mgrwt>
</event>
<event>
 7    1  0.1273312E-005  0.1677870E+03  0.7546771E-02  0.1193010E+00
         -2   -1    0    0    0  501 -0.00000000000E+00  0.00000000000E+00  0.94731098894E+02  0.94731098894E+02  0.00000000000E+00 0.  1.
          2   -1    0    0  501    0  0.00000000000E+00 -0.00000000000E+00 -0.23048806545E+03  0.23048806545E+03  0.00000000000E+00 0. -1.
         23    2    1    2    0    0 -0.76830554841E+02  0.47564142838E+02 -0.75065272014E+02  0.14679279693E+03  0.88022998854E+02 0.  0.
          5    1    1    2  502    0  0.60075038199E+02 -0.45552486043E+02 -0.10582103332E+03  0.13001623088E+03  0.47000000000E+01 0. -1.
         -5    1    1    2    0  502  0.16755516642E+02 -0.20116567947E+01  0.45129338776E+02  0.48410136535E+02  0.47000000000E+01 0.  1.
        -11    1    3    3    0    0 -0.92007997524E+02  0.55474653803E+02 -0.55944646078E+02  0.12113097146E+03  0.00000000000E+00 0.  1.
         11    1    3    3    0    0  0.15177442683E+02 -0.79105109652E+01 -0.19120625936E+02  0.25661825467E+02  0.00000000000E+00 0. -1.
<mgrwt>
<rscale>  0 0.15623881E+03</rscale>
<asrwt>0</asrwt>
<pdfrwt beam="2">  1        2 0.35459702E-01 0.16778703E+03</pdfrwt>
<pdfrwt beam="1">  1       -2 0.14574016E-01 0.16778703E+03</pdfrwt>
<totfact> 0.50724499E+03</totfact>
</mgrwt>
</event>
<event>
 8    1  0.1273312E-005  0.2572023E+03  0.7546771E-02  0.1111254E+00
          1   -1    0    0  501    0  0.00000000000E+00  0.00000000000E+00  0.38210290002E+03  0.38210290002E+03  0.00000000000E+00 0. -1.
         -1   -1    0    0    0  501 -0.00000000000E+00 -0.00000000000E+00 -0.16394796399E+03  0.16394796399E+03  0.00000000000E+00 0.  1.
         23    2    1    2    0    0  0.10063965600E+03 -0.20099301683E+03  0.84353461632E+02  0.25612699515E+03  0.89213216395E+02 0.  0.
         23    2    1    2    0    0 -0.10063965600E+03  0.20099301683E+03  0.13380147440E+03  0.28992386886E+03  0.12500592790E+03 0.  0.
          5    1    4    4  502    0 -0.12709430506E+03  0.15792399810E+03  0.12556058754E+03  0.23849633686E+03  0.47000000000E+01 0. -1.
         -5    1    4    4    0  502  0.26454649058E+02  0.43069018733E+02  0.82408868576E+01  0.51427532000E+02  0.47000000000E+01 0. -1.
        -11    1    3    3    0    0  0.21098272337E+02 -0.48512012182E+02 -0.18135872108E+02  0.55923718390E+02  0.00000000000E+00 0.  1.
         11    1    3    3    0    0  0.79541383663E+02 -0.15248100465E+03  0.10248933374E+03  0.20020327675E+03  0.00000000000E+00 0. -1.
<mgrwt>
<rscale>  0 0.25327199E+03</rscale>
<asrwt>0</asrwt>
<pdfrwt beam="1">  1        1 0.58785061E-01 0.25720228E+03</pdfrwt>
<pdfrwt beam="2">  1       -1 0.25222764E-01 0.25720228E+03</pdfrwt>
<totfact> 0.88367613E+02</totfact>
</mgrwt>
</event>
<event>
 8    1  0.1273312E-005  0.1895145E+03  0.7546771E-02  0.1163926E+00
          2   -1    0    0  501    0  0.00000000000E+00  0.00000000000E+00  0.60952428824E+03  0.60952428824E+03  0.00000000000E+00 0. -1.
         -2   -1    0    0    0  501 -0.00000000000E+00 -0.00000000000E+00 -0.53050950054E+02  0.53050950054E+02  0.00000000000E+00 0.  1.
         23    2    1    2    0    0 -0.11117273131E+03  0.89062009946E+02  0.29224398933E+03  0.33740931802E+03  0.90261180931E+02 0.  0.
         23    2    1    2    0    0  0.11117273131E+03 -0.89062009946E+02  0.26422934886E+03  0.32516592028E+03  0.12499723640E+03 0.  0.
          5    1    4    4  502    0  0.27245528881E+02 -0.91303694666E+02  0.87488861575E+02  0.12944139370E+03  0.47000000000E+01 0. -1.
         -5    1    4    4    0  502  0.83927202432E+02  0.22416847200E+01  0.17674048728E+03  0.19572452658E+03  0.47000000000E+01 0. -1.
        -11    1    3    3    0    0 -0.38034222513E+02  0.85092698442E+02  0.13631384228E+03  0.16513277388E+03  0.00000000000E+00 0. -1.
         11    1    3    3    0    0 -0.73138508800E+02  0.39693115039E+01  0.15593014705E+03  0.17227654414E+03  0.00000000000E+00 0.  1.
<mgrwt>
<rscale>  0 0.18406452E+03</rscale>
<asrwt>0</asrwt>
<pdfrwt beam="1">  1        2 0.93772962E-01 0.18951445E+03</pdfrwt>
<pdfrwt beam="2">  1       -2 0.81616851E-02 0.18951445E+03</pdfrwt>
<totfact> 0.44614673E+03</totfact>
</mgrwt>
</event>
<event>
 8    1  0.1273312E-005  0.1195018E+03  0.7546771E-02  0.1259250E+00
          2   -1    0    0  501    0  0.00000000000E+00  0.00000000000E+00  0.20180778907E+03  0.20180778907E+03  0.00000000000E+00 0. -1.
         -2   -1    0    0    0  501 -0.00000000000E+00 -0.00000000000E+00 -0.64998066794E+02  0.64998066794E+02  0.00000000000E+00 0.  1.
         23    2    1    2    0    0 -0.67289903732E+01  0.48402819525E+01  0.39878417926E+01  0.88137631524E+02  0.87656326456E+02 0.  0.
         23    2    1    2    0    0  0.67289903732E+01 -0.48402819525E+01  0.13282188049E+03  0.17866822434E+03  0.11921398749E+03 0.  0.
          5    1    4    4  502    0 -0.52777024424E+02  0.64813929763E+01  0.88913907801E+02  0.10370725993E+03  0.47000000000E+01 0. -1.
         -5    1    4    4    0  502  0.59506014797E+02 -0.11321674929E+02  0.43907972686E+02  0.74960964412E+02  0.47000000000E+01 0.  1.
        -11    1    3    3    0    0  0.19842482301E+02 -0.33770320434E+02 -0.75003325561E+01  0.39879990403E+02  0.00000000000E+00 0. -1.
         11    1    3    3    0    0 -0.26571472674E+02  0.38610602387E+02  0.11488174349E+02  0.48257641121E+02  0.00000000000E+00 0.  1.
<mgrwt>
<rscale>  0 0.11071589E+03</rscale>
<asrwt>0</asrwt>
<pdfrwt beam="1">  1        2 0.31047352E-01 0.11950181E+03</pdfrwt>
<pdfrwt beam="2">  1       -2 0.99997026E-02 0.11950181E+03</pdfrwt>
<totfact> 0.10446463E+04</totfact>
</mgrwt>
</event>
<event>
 8    1  0.1273312E-005  0.2357781E+03  0.7546771E-02  0.1125506E+00
          2   -1    0    0  501    0  0.00000000000E+00  0.00000000000E+00  0.30480587149E+03  0.30480587149E+03  0.00000000000E+00 0.  1.
         -2   -1    0    0    0  501 -0.00000000000E+00 -0.00000000000E+00 -0.23577614578E+03  0.23577614578E+03  0.00000000000E+00 0. -1.
         23    2    1    2    0    0 -0.17408609213E+03  0.98288776583E+02 -0.10900261019E+03  0.24513860086E+03  0.90800404887E+02 0.  0.
         23    2    1    2    0    0  0.17408609213E+03 -0.98288776583E+02  0.17803233590E+03  0.29544341640E+03  0.12499859436E+03 0.  0.
          5    1    4    4  502    0  0.51034185315E+02 -0.37060025859E+02  0.13864683467E+03  0.15239084078E+03  0.47000000000E+01 0.  1.
         -5    1    4    4    0  502  0.12305190682E+03 -0.61228750723E+02  0.39385501231E+02  0.14305257563E+03  0.47000000000E+01 0.  1.
        -11    1    3    3    0    0 -0.82316670432E+02  0.45537565511E+02 -0.10244508899E+03  0.13908522697E+03  0.00000000000E+00 0. -1.
         11    1    3    3    0    0 -0.91769421700E+02  0.52751211072E+02 -0.65575212005E+01  0.10605337389E+03  0.00000000000E+00 0.  1.
<mgrwt>
<rscale>  0 0.23161743E+03</rscale>
<asrwt>0</asrwt>
<pdfrwt beam="1">  1        2 0.46893211E-01 0.23577807E+03</pdfrwt>
<pdfrwt beam="2">  1       -2 0.36273253E-01 0.23577807E+03</pdfrwt>
<totfact> 0.77279249E+02</totfact>
</mgrwt>
</event>
<event>
 8    1  0.1273312E-005  0.1345869E+03  0.7546771E-02  0.1233132E+00
         -2   -1    0    0    0  501 -0.00000000000E+00  0.00000000000E+00  0.57981591274E+02  0.57981591274E+02  0.00000000000E+00 0.  1.
          2   -1    0    0  501    0  0.00000000000E+00 -0.00000000000E+00 -0.24617040856E+03  0.24617040856E+03  0.00000000000E+00 0. -1.
         23    2    1    2    0    0 -0.47594261521E+02  0.14951088815E+02 -0.76773702982E+02  0.12943236247E+03  0.91486535607E+02 0.  0.
         23    2    1    2    0    0  0.47594261521E+02 -0.14951088815E+02 -0.11141511430E+03  0.17471963737E+03  0.12499950080E+03 0.  0.
          5    1    4    4  502    0 -0.12026040341E+02  0.45532396504E+02 -0.55448432011E+02  0.72900229013E+02  0.47000000000E+01 0. -1.
         -5    1    4    4    0  502  0.59620301862E+02 -0.60483485319E+02 -0.55966682290E+02  0.10181940835E+03  0.47000000000E+01 0. -1.
        -11    1    3    3    0    0 -0.21998084044E+02  0.49700411586E+02 -0.19555210581E+02  0.57762036618E+02  0.00000000000E+00 0.  1.
         11    1    3    3    0    0 -0.25596177477E+02 -0.34749322771E+02 -0.57218492401E+02  0.71670325848E+02  0.00000000000E+00 0. -1.
<mgrwt>
<rscale>  0 0.12624768E+03</rscale>
<asrwt>0</asrwt>
<pdfrwt beam="2">  1        2 0.37872371E-01 0.13458686E+03</pdfrwt>
<pdfrwt beam="1">  1       -2 0.89202446E-02 0.13458686E+03</pdfrwt>
<totfact> 0.10190337E+04</totfact>
</mgrwt>
</event>
<event>
 8    1  0.1273312E-005  0.1487351E+03  0.7546771E-02  0.1211644E+00
          2   -1    0    0  501    0  0.00000000000E+00  0.00000000000E+00  0.24333120235E+03  0.24333120235E+03  0.00000000000E+00 0. -1.
         -2   -1    0    0    0  501 -0.00000000000E+00 -0.00000000000E+00 -0.75396576223E+02  0.75396576223E+02  0.00000000000E+00 0.  1.
         23    2    1    2    0    0 -0.53880334685E+02 -0.59958187814E+02  0.60829233109E+02  0.13544198887E+03  0.90256645160E+02 0.  0.
         23    2    1    2    0    0  0.53880334685E+02  0.59958187814E+02  0.10710539301E+03  0.18328578970E+03  0.12499616291E+03 0.  0.
          5    1    4    4  502    0  0.19478263999E+00  0.34577664228E+02  0.11771621621E+03  0.12277968220E+03  0.47000000000E+01 0. -1.
         -5    1    4    4    0  502  0.53685552045E+02  0.25380523586E+02 -0.10610823194E+02  0.60506107499E+02  0.47000000000E+01 0. -1.
        -11    1    3    3    0    0 -0.79297051575E+02 -0.44119188352E+02  0.41388733831E+02  0.99737417540E+02  0.00000000000E+00 0.  1.
         11    1    3    3    0    0  0.25416716890E+02 -0.15838999462E+02  0.19440499278E+02  0.35704571326E+02  0.00000000000E+00 0. -1.
<mgrwt>
<rscale>  0 0.14125984E+03</rscale>
<asrwt>0</asrwt>
<pdfrwt beam="1">  1        2 0.37435569E-01 0.14873505E+03</pdfrwt>
<pdfrwt beam="2">  1       -2 0.11599473E-01 0.14873505E+03</pdfrwt>
<totfact> 0.68696302E+03</totfact>
</mgrwt>
</event>
<event>
 8    1  0.1273312E-005  0.1357788E+03  0.7546771E-02  0.1231313E+00
          2   -1    0    0  501    0  0.00000000000E+00  0.00000000000E+00  0.50430469205E+03  0.50430469205E+03  0.00000000000E+00 0. -1.
         -2   -1    0    0    0  501 -0.00000000000E+00 -0.00000000000E+00 -0.31256588719E+02  0.31256588719E+02  0.00000000000E+00 0.  1.
         23    2    1    2    0    0  0.41721782728E+02 -0.32699133075E+02  0.13485880808E+03  0.17113311874E+03  0.91047821240E+02 0.  0.
         23    2    1    2    0    0 -0.41721782728E+02  0.32699133075E+02  0.33818929524E+03  0.36442816203E+03  0.12500378156E+03 0.  0.
          5    1    4    4  502    0  0.40354394621E+02  0.28899678357E+02  0.17037271923E+03  0.17751794848E+03  0.47000000000E+01 0. -1.
         -5    1    4    4    0  502 -0.82076177349E+02  0.37994547176E+01  0.16781657601E+03  0.18691021355E+03  0.47000000000E+01 0. -1.
        -11    1    3    3    0    0 -0.21345393172E+02  0.69829299802E+01  0.65846398892E+02  0.69571081405E+02  0.00000000000E+00 0. -1.
         11    1    3    3    0    0  0.63067175900E+02 -0.39682063055E+02  0.69012409193E+02  0.10156203733E+03  0.00000000000E+00 0.  1.
<mgrwt>
<rscale>  0 0.12743468E+03</rscale>
<asrwt>0</asrwt>
<pdfrwt beam="1">  1        2 0.77585331E-01 0.13577881E+03</pdfrwt>
<pdfrwt beam="2">  1       -2 0.48087063E-02 0.13577881E+03</pdfrwt>
<totfact> 0.12160007E+04</totfact>
</mgrwt>
</event>
<event>
 8    1  0.1273312E-005  0.1445356E+03  0.7546771E-02  0.1217658E+00
         -3   -1    0    0    0  501 -0.00000000000E+00  0.00000000000E+00  0.31700092631E+03  0.31700092631E+03  0.00000000000E+00 0.  1.
          3   -1    0    0  501    0  0.00000000000E+00 -0.00000000000E+00 -0.68024515657E+02  0.68024515657E+02  0.00000000000E+00 0. -1.
         23    2    1    2    0    0  0.39855172309E+02 -0.60638137432E+02  0.20211276894E+03  0.23308225292E+03  0.90621999476E+02 0.  0.
         23    2    1    2    0    0 -0.39855172309E+02  0.60638137432E+02  0.46863641719E+02  0.15194318905E+03  0.12500045325E+03 0.  0.
          5    1    4    4  502    0 -0.18294751209E+02  0.15093018196E+02 -0.42699781787E+02  0.49069934631E+02  0.47000000000E+01 0.  1.
         -5    1    4    4    0  502 -0.21560421100E+02  0.45545119236E+02  0.89563423506E+02  0.10287325442E+03  0.47000000000E+01 0.  1.
        -11    1    3    3    0    0  0.65932204510E+01 -0.36121288964E+02  0.12148191909E+02  0.38675530236E+02  0.00000000000E+00 0. -1.
         11    1    3    3    0    0  0.33261951858E+02 -0.24516848468E+02  0.18996457703E+03  0.19440672269E+03  0.00000000000E+00 0.  1.
<mgrwt>
<rscale>  0 0.13683062E+03</rscale>
<asrwt>0</asrwt>
<pdfrwt beam="2">  1        3 0.10465310E-01 0.14453557E+03</pdfrwt>
<pdfrwt beam="1">  1       -3 0.48769372E-01 0.14453557E+03</pdfrwt>
<totfact> 0.67077634E+02</totfact>
</mgrwt>
</event>
<event>
 8    1  0.1273312E-005  0.1371715E+03  0.7546771E-02  0.1229204E+00
          2   -1    0    0  501    0  0.00000000000E+00  0.00000000000E+00  0.67558976101E+03  0.67558976101E+03  0.00000000000E+00 0. -1.
         -2   -1    0    0    0  501 -0.00000000000E+00 -0.00000000000E+00 -0.23678462849E+02  0.23678462849E+02  0.00000000000E+00 0.  1.
         23    2    1    2    0    0  0.39028188414E+02 -0.40839541573E+02  0.19604596448E+03  0.22321232073E+03  0.90546409607E+02 0.  0.
         23    2    1    2    0    0 -0.39028188414E+02  0.40839541573E+02  0.45586533369E+03  0.47605590313E+03  0.12499981119E+03 0.  0.
          5    1    4    4  502    0 -0.47924367331E+02  0.51501372186E+02  0.45597680238E+03  0.46139578523E+03  0.47000000000E+01 0. -1.
         -5    1    4    4    0  502  0.88961789175E+01 -0.10661830613E+02 -0.11146869656E+00  0.14660117893E+02  0.47000000000E+01 0. -1.
        -11    1    3    3    0    0  0.38242209846E+02  0.21045678469E+02  0.65137253084E+02  0.78410770532E+02  0.00000000000E+00 0. -1.
         11    1    3    3    0    0  0.78597856738E+00 -0.61885220043E+02  0.13090871139E+03  0.14480155020E+03  0.00000000000E+00 0.  1.
<mgrwt>
<rscale>  0 0.12882853E+03</rscale>
<asrwt>0</asrwt>
<pdfrwt beam="1">  1        2 0.10393687E+00 0.13717150E+03</pdfrwt>
<pdfrwt beam="2">  1       -2 0.36428409E-02 0.13717150E+03</pdfrwt>
<totfact> 0.13211767E+04</totfact>
</mgrwt>
</event>
<event>
 8    1  0.1273312E-005  0.1345564E+03  0.7546771E-02  0.1243400E+00
          2   -1    0    0  501    0  0.00000000000E+00  0.00000000000E+00  0.82549623661E+03  0.82549623661E+03  0.00000000000E+00 0. -1.
         -2   -1    0    0    0  501 -0.00000000000E+00 -0.00000000000E+00 -0.20305419547E+02  0.20305419547E+02  0.00000000000E+00 0.  1.
         23    2    1    2    0    0 -0.45648418970E+02  0.19918415042E+02  0.11584454977E+03  0.14344583988E+03  0.68382950042E+02 0.  0.
         23    2    1    2    0    0  0.45648418970E+02 -0.19918415042E+02  0.68934626730E+03  0.70235581628E+03  0.12499958003E+03 0.  0.
          5    1    4    4  502    0  0.58102545977E+02 -0.22568395208E+02  0.68536727969E+03  0.68821191241E+03  0.47000000000E+01 0.  1.
         -5    1    4    4    0  502 -0.12454127007E+02  0.26499801659E+01  0.39789876146E+01  0.14143903875E+02  0.47000000000E+01 0.  1.
        -11    1    3    3    0    0 -0.38793294391E+02  0.42826698885E+02  0.63254836934E+02  0.85675085192E+02  0.00000000000E+00 0.  1.
         11    1    3    3    0    0 -0.68551245791E+01 -0.22908283843E+02  0.52589712832E+02  0.57770754689E+02  0.00000000000E+00 0. -1.
<mgrwt>
<rscale>  0 0.11981679E+03</rscale>
<asrwt>0</asrwt>
<pdfrwt beam="1">  1        2 0.12699939E+00 0.13455637E+03</pdfrwt>
<pdfrwt beam="2">  1       -2 0.31239113E-02 0.13455637E+03</pdfrwt>
<totfact> 0.12978921E+04</totfact>
</mgrwt>
</event>
<event>
 8    1  0.1273312E-005  0.2067801E+03  0.7546771E-02  0.1147896E+00
         -2   -1    0    0    0  501 -0.00000000000E+00  0.00000000000E+00  0.27691729609E+02  0.27691729609E+02  0.00000000000E+00 0.  1.
          2   -1    0    0  501    0  0.00000000000E+00 -0.00000000000E+00 -0.14659390574E+04  0.14659390574E+04  0.00000000000E+00 0. -1.
         23    2    1    2    0    0 -0.12618518487E+03  0.10585315275E+03 -0.54838808888E+03  0.58006225844E+03  0.92817761332E+02 0.  0.
         23    2    1    2    0    0  0.12618518487E+03 -0.10585315275E+03 -0.88985923896E+03  0.91356852861E+03  0.12502160005E+03 0.  0.
          5    1    4    4  502    0  0.14934959592E+03 -0.93354782009E+02 -0.82117511155E+03  0.83986372166E+03  0.47000000000E+01 0.  1.
         -5    1    4    4    0  502 -0.23164411046E+02 -0.12498370742E+02 -0.68684127407E+02  0.73704806953E+02  0.47000000000E+01 0.  1.
        -11    1    3    3    0    0 -0.55836915245E+02  0.10308010912E+03 -0.37600917979E+03  0.39386060134E+03  0.00000000000E+00 0. -1.
         11    1    3    3    0    0 -0.70348269627E+02  0.27730436337E+01 -0.17237890908E+03  0.18620165710E+03  0.00000000000E+00 0.  1.
<mgrwt>
<rscale>  0 0.20219944E+03</rscale>
<asrwt>0</asrwt>
<pdfrwt beam="2">  1        2 0.22552909E+00 0.20678006E+03</pdfrwt>
<pdfrwt beam="1">  1       -2 0.42602661E-02 0.20678006E+03</pdfrwt>
<totfact> 0.35461055E+03</totfact>
</mgrwt>
</event>
<event>
 8    1  0.1273312E-005  0.1443891E+03  0.7546771E-02  0.1212245E+00
          1   -1    0    0  501    0  0.00000000000E+00  0.00000000000E+00  0.42406022855E+03  0.42406022855E+03  0.00000000000E+00 0. -1.
         -1   -1    0    0    0  501 -0.00000000000E+00 -0.00000000000E+00 -0.44735420207E+02  0.44735420207E+02  0.00000000000E+00 0.  1.
         23    2    1    2    0    0 -0.21765473085E+02  0.90517023215E+02  0.19408747305E+03  0.23393169471E+03  0.91580692752E+02 0.  0.
         23    2    1    2    0    0  0.21765473085E+02 -0.90517023215E+02  0.18523733529E+03  0.23486395404E+03  0.11036819838E+03 0.  0.
          5    1    4    4  502    0  0.16149108776E+02 -0.69164445842E+02  0.19696042207E+03  0.20942782085E+03  0.47000000000E+01 0. -1.
         -5    1    4    4    0  502  0.56163643089E+01 -0.21352577373E+02 -0.11723086777E+02  0.25436133199E+02  0.47000000000E+01 0.  1.
        -11    1    3    3    0    0 -0.36429656833E+02 -0.10793416993E+00  0.36599474438E+02  0.51639646357E+02  0.00000000000E+00 0. -1.
         11    1    3    3    0    0  0.14664183748E+02  0.90624957385E+02  0.15748799862E+03  0.18229204836E+03  0.00000000000E+00 0.  1.
<mgrwt>
<rscale>  0 0.14080865E+03</rscale>
<asrwt>0</asrwt>
<pdfrwt beam="1">  1        1 0.65240032E-01 0.14438908E+03</pdfrwt>
<pdfrwt beam="2">  1       -1 0.68823726E-02 0.14438908E+03</pdfrwt>
<totfact> 0.58619932E+03</totfact>
</mgrwt>
</event>
<event>
 7    1  0.1273312E-005  0.3820294E+03  0.7546771E-02  0.1050186E+00
          3   -1    0    0  501    0  0.00000000000E+00  0.00000000000E+00  0.15687565155E+03  0.15687565155E+03  0.00000000000E+00 0. -1.
         -3   -1    0    0    0  501 -0.00000000000E+00 -0.00000000000E+00 -0.23258302023E+03  0.23258302023E+03  0.00000000000E+00 0.  1.
         23    2    1    2    0    0  0.10495442835E+02  0.71211861321E+02 -0.61752271892E+02  0.12963095203E+03  0.88371698671E+02 0.  0.
          5    1    1    2  502    0 -0.69471691418E+02 -0.10147730705E+03  0.78495199199E+02  0.14597104525E+03  0.47000000000E+01 0. -1.
         -5    1    1    2    0  502  0.58976248583E+02  0.30265445731E+02 -0.92450295978E+02  0.11385667450E+03  0.47000000000E+01 0.  1.
        -11    1    3    3    0    0 -0.22191843304E+02  0.54095829800E+02 -0.91370389431E+00  0.58477957948E+02  0.00000000000E+00 0. -1.
         11    1    3    3    0    0  0.32687286139E+02  0.17116031521E+02 -0.60838567998E+02  0.71152994077E+02  0.00000000000E+00 0.  1.
<mgrwt>
<rscale>  0 0.38202939E+03</rscale>
<asrwt>0</asrwt>
<pdfrwt beam="1">  1        3 0.24134716E-01 0.38202939E+03</pdfrwt>
<pdfrwt beam="2">  1       -3 0.35782003E-01 0.38202939E+03</pdfrwt>
<totfact> 0.32079836E+02</totfact>
</mgrwt>
</event>
<event>
 7    1  0.1273312E-005  0.4169258E+03  0.7546771E-02  0.1038072E+00
         -2   -1    0    0    0  501 -0.00000000000E+00  0.00000000000E+00  0.80299724589E+02  0.80299724589E+02  0.00000000000E+00 0.  1.
          2   -1    0    0  501    0  0.00000000000E+00 -0.00000000000E+00 -0.54118217118E+03  0.54118217118E+03  0.00000000000E+00 0. -1.
         23    2    1    2    0    0 -0.13844293032E+03 -0.17701371912E+02 -0.20794388051E+03  0.26615658393E+03  0.90104862264E+02 0.  0.
          5    1    1    2  502    0 -0.26851276118E+02  0.68016861559E+02 -0.10363360830E+03  0.12692241431E+03  0.47000000000E+01 0. -1.
         -5    1    1    2    0  502  0.16529420644E+03 -0.50315489647E+02 -0.14930495778E+03  0.22840289753E+03  0.47000000000E+01 0.  1.
        -11    1    3    3    0    0 -0.76268532576E+02  0.27546175592E+02 -0.65331049683E+02  0.10413369725E+03  0.00000000000E+00 0.  1.
         11    1    3    3    0    0 -0.62174397745E+02 -0.45247547503E+02 -0.14261283083E+03  0.16202288668E+03  0.00000000000E+00 0. -1.
<mgrwt>
<rscale>  0 0.41692579E+03</rscale>
<asrwt>0</asrwt>
<pdfrwt beam="2">  1        2 0.83258796E-01 0.41692579E+03</pdfrwt>
<pdfrwt beam="1">  1       -2 0.12353804E-01 0.41692579E+03</pdfrwt>
<totfact> 0.26980476E+03</totfact>
</mgrwt>
</event>
<event>
 8    1  0.1273312E-005  0.2424381E+03  0.7546771E-02  0.1120884E+00
         -2   -1    0    0    0  501 -0.00000000000E+00  0.00000000000E+00  0.80311296433E+02  0.80311296433E+02  0.00000000000E+00 0.  1.
          2   -1    0    0  501    0  0.00000000000E+00 -0.00000000000E+00 -0.68654742795E+03  0.68654742795E+03  0.00000000000E+00 0. -1.
         23    2    1    2    0    0 -0.14189259521E+03  0.15173820014E+03 -0.27314024540E+03  0.35487682691E+03  0.90410058409E+02 0.  0.
         23    2    1    2    0    0  0.14189259521E+03 -0.15173820014E+03 -0.33309588612E+03  0.41198189748E+03  0.12497289524E+03 0.  0.
          5    1    4    4  502    0  0.53816927885E+02  0.84290783514E+01 -0.11531516180E+03  0.12762048280E+03  0.47000000000E+01 0. -1.
         -5    1    4    4    0  502  0.88075667323E+02 -0.16016727849E+03 -0.21778072432E+03  0.28436141468E+03  0.47000000000E+01 0. -1.
        -11    1    3    3    0    0 -0.81706368179E+02  0.14406086469E+03 -0.20747380874E+03  0.26547098645E+03  0.00000000000E+00 0.  1.
         11    1    3    3    0    0 -0.60186227029E+02  0.76773354537E+01 -0.65666436660E+02  0.89405840454E+02  0.00000000000E+00 0. -1.
<mgrwt>
<rscale>  0 0.23836863E+03</rscale>
<asrwt>0</asrwt>
<pdfrwt beam="2">  1        2 0.10562269E+00 0.24243806E+03</pdfrwt>
<pdfrwt beam="1">  1       -2 0.12355584E-01 0.24243806E+03</pdfrwt>
<totfact> 0.20187120E+03</totfact>
</mgrwt>
</event>
<event>
 8    1  0.1273312E-005  0.1321281E+03  0.7546771E-02  0.1238507E+00
         -2   -1    0    0    0  501 -0.00000000000E+00  0.00000000000E+00  0.54265715264E+02  0.54265715264E+02  0.00000000000E+00 0.  1.
          2   -1    0    0  501    0  0.00000000000E+00 -0.00000000000E+00 -0.24935329730E+03  0.24935329730E+03  0.00000000000E+00 0. -1.
         23    2    1    2    0    0 -0.35503867851E+02 -0.23906564468E+02 -0.64704056043E+02  0.11799116311E+03  0.88900231989E+02 0.  0.
         23    2    1    2    0    0  0.35503867851E+02  0.23906564468E+02 -0.13038352599E+03  0.18562784945E+03  0.12500314470E+03 0.  0.
          5    1    4    4  502    0 -0.41736718319E+02  0.27737393539E+02 -0.29206841719E+02  0.58193180525E+02  0.47000000000E+01 0. -1.
         -5    1    4    4    0  502  0.77240586170E+02 -0.38308290717E+01 -0.10117668427E+03  0.12743466892E+03  0.47000000000E+01 0. -1.
        -11    1    3    3    0    0 -0.47649036819E+02 -0.71659664068E+01  0.19276634691E+01  0.48223414134E+02  0.00000000000E+00 0.  1.
         11    1    3    3    0    0  0.12145168968E+02 -0.16740598061E+02 -0.66631719512E+02  0.69767748980E+02  0.00000000000E+00 0. -1.
<mgrwt>
<rscale>  0 0.12282593E+03</rscale>
<asrwt>0</asrwt>
<pdfrwt beam="2">  1        2 0.38362046E-01 0.13212810E+03</pdfrwt>
<pdfrwt beam="1">  1       -2 0.83485716E-02 0.13212810E+03</pdfrwt>
<totfact> 0.11124232E+04</totfact>
</mgrwt>
</event>
<event>
 8    1  0.1273312E-005  0.1303206E+03  0.7546771E-02  0.1241835E+00
         -1   -1    0    0    0  501 -0.00000000000E+00  0.00000000000E+00  0.45549704799E+02  0.45549704799E+02  0.00000000000E+00 0.  1.
          1   -1    0    0  501    0  0.00000000000E+00 -0.00000000000E+00 -0.29844161381E+03  0.29844161381E+03  0.00000000000E+00 0. -1.
         23    2    1    2    0    0 -0.19484143116E+02 -0.31291986490E+02 -0.67781296344E+02  0.11760804274E+03  0.88761068780E+02 0.  0.
         23    2    1    2    0    0  0.19484143116E+02  0.31291986490E+02 -0.18511061267E+03  0.22638327587E+03  0.12499851368E+03 0.  0.
          5    1    4    4  502    0  0.26276590259E+02  0.70663163275E+02 -0.16486916152E+03  0.18134958577E+03  0.47000000000E+01 0.  1.
         -5    1    4    4    0  502 -0.67924471428E+01 -0.39371176784E+02 -0.20241451150E+02  0.45033690102E+02  0.47000000000E+01 0.  1.
        -11    1    3    3    0    0 -0.38416853090E+02 -0.40712111579E+02 -0.11040282820E+02  0.57054521953E+02  0.00000000000E+00 0.  1.
         11    1    3    3    0    0  0.18932709974E+02  0.94201250885E+01 -0.56741013524E+02  0.60553520784E+02  0.00000000000E+00 0. -1.
<mgrwt>
<rscale>  0 0.12076835E+03</rscale>
<asrwt>0</asrwt>
<pdfrwt beam="2">  1        1 0.45914095E-01 0.13032056E+03</pdfrwt>
<pdfrwt beam="1">  1       -1 0.70076469E-02 0.13032056E+03</pdfrwt>
<totfact> 0.87948157E+03</totfact>
</mgrwt>
</event>
<event>
 8    1  0.1273312E-005  0.1282337E+03  0.7546771E-02  0.1244124E+00
         -2   -1    0    0    0  501 -0.00000000000E+00  0.00000000000E+00  0.20779480661E+02  0.20779480661E+02  0.00000000000E+00 0.  1.
          2   -1    0    0  501    0  0.00000000000E+00 -0.00000000000E+00 -0.74617094111E+03  0.74617094111E+03  0.00000000000E+00 0. -1.
         23    2    1    2    0    0  0.26384098919E+02  0.11181520888E+02 -0.15633756029E+03  0.18362699063E+03  0.91958098310E+02 0.  0.
         23    2    1    2    0    0 -0.26384098919E+02 -0.11181520888E+02 -0.56905390016E+03  0.58332343114E+03  0.12499094747E+03 0.  0.
          5    1    4    4  502    0 -0.88560555070E+01 -0.26698539991E+01  0.30921957950E+01  0.10826334299E+02  0.47000000000E+01 0. -1.
         -5    1    4    4    0  502 -0.17528043412E+02 -0.85116668889E+01 -0.57214609595E+03  0.57249709684E+03  0.47000000000E+01 0. -1.
        -11    1    3    3    0    0 -0.15971070107E+02 -0.18507691238E+02 -0.11455668281E+03  0.11713600340E+03  0.00000000000E+00 0. -1.
         11    1    3    3    0    0  0.42355169026E+02  0.29689212126E+02 -0.41780877475E+02  0.66490987228E+02  0.00000000000E+00 0.  1.
<mgrwt>
<rscale>  0 0.11937961E+03</rscale>
<asrwt>0</asrwt>
<pdfrwt beam="2">  1        2 0.11479550E+00 0.12823371E+03</pdfrwt>
<pdfrwt beam="1">  1       -2 0.31968439E-02 0.12823371E+03</pdfrwt>
<totfact> 0.14162709E+04</totfact>
</mgrwt>
</event>
<event>
 8    1  0.1273312E-005  0.1280964E+03  0.7546771E-02  0.1243232E+00
         -2   -1    0    0    0  501 -0.00000000000E+00  0.00000000000E+00  0.22469659229E+02  0.22469659229E+02  0.00000000000E+00 0.  1.
          2   -1    0    0  501    0  0.00000000000E+00 -0.00000000000E+00 -0.58659305638E+03  0.58659305638E+03  0.00000000000E+00 0. -1.
         23    2    1    2    0    0 -0.25179075212E+02 -0.12273686126E+02 -0.19635912156E+03  0.21962820293E+03  0.94313380285E+02 0.  0.
         23    2    1    2    0    0  0.25179075212E+02  0.12273686126E+02 -0.36776427559E+03  0.38943451268E+03  0.12499619222E+03 0.  0.
          5    1    4    4  502    0  0.53155430680E+02  0.23168844912E+02 -0.74129579512E+02  0.94231522030E+02  0.47000000000E+01 0. -1.
         -5    1    4    4    0  502 -0.27976355468E+02 -0.10895158786E+02 -0.29363469607E+03  0.29520299065E+03  0.47000000000E+01 0. -1.
        -11    1    3    3    0    0 -0.49392508652E+02 -0.38281062105E+02 -0.11594734591E+03  0.13171502059E+03  0.00000000000E+00 0.  1.
         11    1    3    3    0    0  0.24213433440E+02  0.26007375979E+02 -0.80411775654E+02  0.87913182334E+02  0.00000000000E+00 0. -1.
<mgrwt>
<rscale>  0 0.11991817E+03</rscale>
<asrwt>0</asrwt>
<pdfrwt beam="2">  1        2 0.90245069E-01 0.12809636E+03</pdfrwt>
<pdfrwt beam="1">  1       -2 0.34568713E-02 0.12809636E+03</pdfrwt>
<totfact> 0.16709038E+04</totfact>
</mgrwt>
</event>
<event>
 8    1  0.2031836E-005  0.1487962E+03  0.7546771E-02  0.1214913E+00
          2   -1    0    0  501    0  0.00000000000E+00  0.00000000000E+00  0.61926474489E+03  0.61926474489E+03  0.00000000000E+00 0. -1.
         -2   -1    0    0    0  501 -0.00000000000E+00 -0.00000000000E+00 -0.31458545875E+02  0.31458545875E+02  0.00000000000E+00 0.  1.
         23    2    1    2    0    0 -0.21339762978E+02 -0.77842598831E+02  0.14561287051E+03  0.18416648601E+03  0.78735829416E+02 0.  0.
         23    2    1    2    0    0  0.21339762978E+02  0.77842598831E+02  0.44219332851E+03  0.46655680476E+03  0.12500182644E+03 0.  0.
          5    1    4    4  502    0 -0.38539294893E+02  0.26015962044E+02  0.59153387693E+02  0.75387802777E+02  0.47000000000E+01 0.  1.
         -5    1    4    4    0  502  0.59879057871E+02  0.51826636787E+02  0.38303994081E+03  0.39116900198E+03  0.47000000000E+01 0.  1.
        -11    1    3    3    0    0 -0.10085103945E+01 -0.52124859460E+02  0.22533725167E+02  0.56796010748E+02  0.00000000000E+00 0.  1.
         11    1    3    3    0    0 -0.20331252583E+02 -0.25717739371E+02  0.12307914534E+03  0.12737047526E+03  0.00000000000E+00 0. -1.
<mgrwt>
<rscale>  0 0.13882893E+03</rscale>
<asrwt>0</asrwt>
<pdfrwt beam="1">  1        2 0.95271490E-01 0.14879621E+03</pdfrwt>
<pdfrwt beam="2">  1       -2 0.48397768E-02 0.14879621E+03</pdfrwt>
<totfact> 0.96217780E+03</totfact>
</mgrwt>
</event>
<event>
 8    1  0.1273312E-005  0.1267434E+03  0.7546771E-02  0.1248850E+00
          2   -1    0    0  501    0  0.00000000000E+00  0.00000000000E+00  0.36593256256E+03  0.36593256256E+03  0.00000000000E+00 0.  1.
         -2   -1    0    0    0  501 -0.00000000000E+00 -0.00000000000E+00 -0.33139256391E+02  0.33139256391E+02  0.00000000000E+00 0. -1.
         23    2    1    2    0    0  0.15840885151E+02  0.13646337971E+02  0.10835329377E+03  0.14131767567E+03  0.88278496843E+02 0.  0.
         23    2    1    2    0    0 -0.15840885151E+02 -0.13646337971E+02  0.22444001240E+03  0.25775414328E+03  0.12500689192E+03 0.  0.
          5    1    4    4  502    0 -0.18300906781E+02  0.41595924388E+02  0.18266578907E+03  0.18829239127E+03  0.47000000000E+01 0. -1.
         -5    1    4    4    0  502  0.24600216295E+01 -0.55242262359E+02  0.41774223335E+02  0.69461752010E+02  0.47000000000E+01 0. -1.
        -11    1    3    3    0    0  0.37546370008E+02  0.36507745283E+02  0.91860632718E+02  0.10573987521E+03  0.00000000000E+00 0.  1.
         11    1    3    3    0    0 -0.21705484857E+02 -0.22861407312E+02  0.16492661050E+02  0.35577800461E+02  0.00000000000E+00 0. -1.
<mgrwt>
<rscale>  0 0.11657906E+03</rscale>
<asrwt>0</asrwt>
<pdfrwt beam="1">  1        2 0.56297314E-01 0.12674336E+03</pdfrwt>
<pdfrwt beam="2">  1       -2 0.50983474E-02 0.12674336E+03</pdfrwt>
<totfact> 0.15645454E+04</totfact>
</mgrwt>
</event>
<event>
 8    1  0.1273312E-005  0.1483056E+03  0.7546771E-02  0.1212236E+00
          1   -1    0    0  501    0  0.00000000000E+00  0.00000000000E+00  0.60169629092E+03  0.60169629092E+03  0.00000000000E+00 0. -1.
         -1   -1    0    0    0  501 -0.00000000000E+00 -0.00000000000E+00 -0.30032489415E+02  0.30032489415E+02  0.00000000000E+00 0.  1.
         23    2    1    2    0    0  0.36435278364E+02 -0.71005267069E+02  0.25885799788E+03  0.28554672067E+03  0.90333765328E+02 0.  0.
         23    2    1    2    0    0 -0.36435278364E+02  0.71005267069E+02  0.31280580363E+03  0.34618205967E+03  0.12500108076E+03 0.  0.
          5    1    4    4  502    0 -0.38142884988E+02  0.67506822702E+02  0.73958188280E+02  0.10725648885E+03  0.47000000000E+01 0. -1.
         -5    1    4    4    0  502  0.17076066240E+01  0.34984443672E+01  0.23884761535E+03  0.23892557082E+03  0.47000000000E+01 0. -1.
        -11    1    3    3    0    0  0.66251842670E+02 -0.42136067232E+02  0.15639640131E+03  0.17499882617E+03  0.00000000000E+00 0.  1.
         11    1    3    3    0    0 -0.29816564307E+02 -0.28869199838E+02  0.10246159657E+03  0.11054789450E+03  0.00000000000E+00 0. -1.
<mgrwt>
<rscale>  0 0.14081514E+03</rscale>
<asrwt>0</asrwt>
<pdfrwt beam="1">  1        1 0.92568651E-01 0.14830559E+03</pdfrwt>
<pdfrwt beam="2">  1       -1 0.46203834E-02 0.14830559E+03</pdfrwt>
<totfact> 0.67117722E+03</totfact>
</mgrwt>
</event>
<event>
 8    1  0.1273312E-005  0.1446384E+03  0.7546771E-02  0.1217063E+00
         -2   -1    0    0    0  501 -0.00000000000E+00  0.00000000000E+00  0.21406949878E+02  0.21406949878E+02  0.00000000000E+00 0. -1.
          2   -1    0    0  501    0  0.00000000000E+00 -0.00000000000E+00 -0.83514232313E+03  0.83514232313E+03  0.00000000000E+00 0.  1.
         23    2    1    2    0    0 -0.72107972967E+02  0.99866806370E+01 -0.28042916395E+03  0.30397729698E+03  0.91991236168E+02 0.  0.
         23    2    1    2    0    0  0.72107972967E+02 -0.99866806370E+01 -0.53330620930E+03  0.55257197602E+03  0.12498392797E+03 0.  0.
          5    1    4    4  502    0  0.87251813715E+01 -0.23510108110E+00 -0.43494644570E+03  0.43505940363E+03  0.47000000000E+01 0.  1.
         -5    1    4    4    0  502  0.63382791596E+02 -0.97515795559E+01 -0.98359763604E+02  0.11751257239E+03  0.47000000000E+01 0.  1.
        -11    1    3    3    0    0 -0.92505950016E+02  0.72228318124E+01 -0.19283956523E+03  0.21400144394E+03  0.00000000000E+00 0. -1.
         11    1    3    3    0    0  0.20397977049E+02  0.27638488246E+01 -0.87589598713E+02  0.89975853043E+02  0.00000000000E+00 0.  1.
<mgrwt>
<rscale>  0 0.13726086E+03</rscale>
<asrwt>0</asrwt>
<pdfrwt beam="2">  1        2 0.12848343E+00 0.14463843E+03</pdfrwt>
<pdfrwt beam="1">  1       -2 0.32933770E-02 0.14463843E+03</pdfrwt>
<totfact> 0.11886322E+04</totfact>
</mgrwt>
</event>
<event>
 8    1  0.1273312E-005  0.1473641E+03  0.7546771E-02  0.1212583E+00
         -3   -1    0    0    0  501 -0.00000000000E+00  0.00000000000E+00  0.47511578607E+02  0.47511578607E+02  0.00000000000E+00 0.  1.
          3   -1    0    0  501    0  0.00000000000E+00 -0.00000000000E+00 -0.48152320350E+03  0.48152320350E+03  0.00000000000E+00 0. -1.
         23    2    1    2    0    0 -0.74634483412E+02  0.22844241404E+02 -0.80757668352E+02  0.14627568637E+03  0.93715580057E+02 0.  0.
         23    2    1    2    0    0  0.74634483412E+02 -0.22844241404E+02 -0.35325395654E+03  0.38275909574E+03  0.12499600826E+03 0.  0.
          5    1    4    4  502    0  0.90771937347E+02  0.53283500862E+01 -0.14004310196E+03  0.16703920597E+03  0.47000000000E+01 0. -1.
         -5    1    4    4    0  502 -0.16137453935E+02 -0.28172591490E+02 -0.21321085459E+03  0.21571988978E+03  0.47000000000E+01 0. -1.
        -11    1    3    3    0    0 -0.67406903956E+02 -0.24613429615E+02 -0.61657497871E+02  0.94610563163E+02  0.00000000000E+00 0.  1.
         11    1    3    3    0    0 -0.72275794559E+01  0.47457671020E+02 -0.19100170481E+02  0.51665123205E+02  0.00000000000E+00 0. -1.
<mgrwt>
<rscale>  0 0.14055620E+03</rscale>
<asrwt>0</asrwt>
<pdfrwt beam="2">  1        3 0.74080490E-01 0.14736406E+03</pdfrwt>
<pdfrwt beam="1">  1       -3 0.73094739E-02 0.14736406E+03</pdfrwt>
<totfact> 0.51176209E+02</totfact>
</mgrwt>
</event>
<event>
 8    1  0.1273312E-005  0.1959068E+03  0.7546771E-02  0.1157528E+00
         -1   -1    0    0    0  501 -0.00000000000E+00  0.00000000000E+00  0.19063874869E+04  0.19063874869E+04  0.00000000000E+00 0.  1.
          1   -1    0    0  501    0  0.00000000000E+00 -0.00000000000E+00 -0.18260053828E+02  0.18260053828E+02  0.00000000000E+00 0. -1.
         23    2    1    2    0    0 -0.11429874860E+03  0.98410712593E+02  0.87455040209E+03  0.89231141146E+03  0.92910585757E+02 0.  0.
         23    2    1    2    0    0  0.11429874860E+03 -0.98410712593E+02  0.10135770310E+04  0.10323361293E+04  0.12502245306E+03 0.  0.
          5    1    4    4  502    0  0.85241582214E+02 -0.30327138758E+02  0.82074698670E+03  0.82573214111E+03  0.47000000000E+01 0.  1.
         -5    1    4    4    0  502  0.29057166389E+02 -0.68083573834E+02  0.19283004429E+03  0.20660398816E+03  0.47000000000E+01 0.  1.
        -11    1    3    3    0    0 -0.52365895220E+02  0.10104000487E+03  0.61687138492E+03  0.62728109735E+03  0.00000000000E+00 0.  1.
         11    1    3    3    0    0 -0.61932853382E+02 -0.26292922793E+01  0.25767901717E+03  0.26503031411E+03  0.00000000000E+00 0. -1.
<mgrwt>
<rscale>  0 0.19103853E+03</rscale>
<asrwt>0</asrwt>
<pdfrwt beam="2">  1        1 0.28092406E-02 0.19590683E+03</pdfrwt>
<pdfrwt beam="1">  1       -1 0.29329022E+00 0.19590683E+03</pdfrwt>
<totfact> 0.16007146E+02</totfact>
</mgrwt>
</event>
<event>
 8    1  0.1273312E-005  0.1336444E+03  0.7546771E-02  0.1232197E+00
          2   -1    0    0  501    0  0.00000000000E+00  0.00000000000E+00  0.14985744297E+04  0.14985744297E+04  0.00000000000E+00 0. -1.
         -2   -1    0    0    0  501 -0.00000000000E+00 -0.00000000000E+00 -0.10659777267E+02  0.10659777267E+02  0.00000000000E+00 0.  1.
         23    2    1    2    0    0  0.39453270810E+02  0.26079052563E+02  0.45742324165E+03  0.47011276377E+03  0.97638676254E+02 0.  0.
         23    2    1    2    0    0 -0.39453270810E+02 -0.26079052563E+02  0.10304914108E+04  0.10391214432E+04  0.12499659374E+03 0.  0.
          5    1    4    4  502    0 -0.23249893249E+02 -0.70236325746E+02  0.39654359744E+03  0.40341370039E+03  0.47000000000E+01 0. -1.
         -5    1    4    4    0  502 -0.16203377561E+02  0.44157273183E+02  0.63394781332E+03  0.63570774278E+03  0.47000000000E+01 0. -1.
        -11    1    3    3    0    0  0.26916951533E+02 -0.32466837073E+02  0.11488661779E+03  0.12238281226E+03  0.00000000000E+00 0.  1.
         11    1    3    3    0    0  0.12536319277E+02  0.58545889636E+02  0.34253662385E+03  0.34772995151E+03  0.00000000000E+00 0. -1.
<mgrwt>
<rscale>  0 0.12685573E+03</rscale>
<asrwt>0</asrwt>
<pdfrwt beam="1">  1        2 0.23054975E+00 0.13364440E+03</pdfrwt>
<pdfrwt beam="2">  1       -2 0.16399669E-02 0.13364440E+03</pdfrwt>
<totfact> 0.13715796E+04</totfact>
</mgrwt>
</event>
<event>
 8    1  0.1273312E-005  0.1282261E+03  0.7546771E-02  0.1246347E+00
          2   -1    0    0  501    0  0.00000000000E+00  0.00000000000E+00  0.16258340712E+04  0.16258340712E+04  0.00000000000E+00 0.  1.
         -2   -1    0    0    0  501 -0.00000000000E+00 -0.00000000000E+00 -0.11722221889E+02  0.11722221889E+02  0.00000000000E+00 0. -1.
         23    2    1    2    0    0  0.28475529495E+02  0.19591156200E+00  0.23368481051E+03  0.25118666368E+03  0.87608533746E+02 0.  0.
         23    2    1    2    0    0 -0.28475529495E+02 -0.19591156200E+00  0.13804270388E+04  0.13863696294E+04  0.12502418062E+03 0.  0.
          5    1    4    4  502    0 -0.28969551487E+02  0.41172899845E+02  0.24418278756E+03  0.24936272042E+03  0.47000000000E+01 0. -1.
         -5    1    4    4    0  502  0.49402199286E+00 -0.41368811407E+02  0.11362442512E+04  0.11370069090E+04  0.47000000000E+01 0. -1.
        -11    1    3    3    0    0 -0.48747854954E+01 -0.38487204860E+02  0.12899489679E+03  0.13470230833E+03  0.00000000000E+00 0. -1.
         11    1    3    3    0    0  0.33350314990E+02  0.38683116422E+02  0.10468991372E+03  0.11648435535E+03  0.00000000000E+00 0.  1.
<mgrwt>
<rscale>  0 0.11805142E+03</rscale>
<asrwt>0</asrwt>
<pdfrwt beam="1">  1        2 0.25012814E+00 0.12822613E+03</pdfrwt>
<pdfrwt beam="2">  1       -2 0.18034200E-02 0.12822613E+03</pdfrwt>
<totfact> 0.10257181E+04</totfact>
</mgrwt>
</event>
<event>
 8    1  0.1273312E-005  0.1576552E+03  0.7546771E-02  0.1199248E+00
         -1   -1    0    0    0  501 -0.00000000000E+00  0.00000000000E+00  0.56838701594E+02  0.56838701594E+02  0.00000000000E+00 0.  1.
          1   -1    0    0  501    0  0.00000000000E+00 -0.00000000000E+00 -0.49505569794E+03  0.49505569794E+03  0.00000000000E+00 0. -1.
         23    2    1    2    0    0  0.30113922058E+01 -0.96020674109E+02 -0.67104516790E+02  0.14868274447E+03  0.91512316050E+02 0.  0.
         23    2    1    2    0    0 -0.30113922058E+01  0.96020674109E+02 -0.37111247956E+03  0.40321165507E+03  0.12500451177E+03 0.  0.
          5    1    4    4  502    0 -0.44803653555E+02  0.92924321367E+02 -0.32363000710E+03  0.33970688596E+03  0.47000000000E+01 0. -1.
         -5    1    4    4    0  502  0.41792261349E+02  0.30963527416E+01 -0.47482472454E+02  0.63504769107E+02  0.47000000000E+01 0. -1.
        -11    1    3    3    0    0 -0.35780151082E+02 -0.91362101413E+01 -0.12553242111E+02  0.39003505415E+02  0.00000000000E+00 0.  1.
         11    1    3    3    0    0  0.38791543288E+02 -0.86884463968E+02 -0.54551274680E+02  0.10967923905E+03  0.00000000000E+00 0. -1.
<mgrwt>
<rscale>  0 0.15100150E+03</rscale>
<asrwt>0</asrwt>
<pdfrwt beam="2">  1        1 0.76162414E-01 0.15765521E+03</pdfrwt>
<pdfrwt beam="1">  1       -1 0.87444158E-02 0.15765521E+03</pdfrwt>
<totfact> 0.33584271E+03</totfact>
</mgrwt>
</event>
<event>
 8    1  0.1273312E-005  0.1828752E+03  0.7546771E-02  0.1170500E+00
         -1   -1    0    0    0  501 -0.00000000000E+00  0.00000000000E+00  0.27437006637E+02  0.27437006637E+02  0.00000000000E+00 0.  1.
          1   -1    0    0  501    0  0.00000000000E+00 -0.00000000000E+00 -0.11020003191E+04  0.11020003191E+04  0.00000000000E+00 0. -1.
         23    2    1    2    0    0 -0.13043405685E+03  0.28367345886E+02 -0.42425247754E+03  0.45390233447E+03  0.90660989615E+02 0.  0.
         23    2    1    2    0    0  0.13043405685E+03 -0.28367345886E+02 -0.65031083489E+03  0.67553499123E+03  0.12500237162E+03 0.  0.
          5    1    4    4  502    0  0.13376963864E+03  0.83817408004E+01 -0.38634472176E+03  0.40896076075E+03  0.47000000000E+01 0.  1.
         -5    1    4    4    0  502 -0.33355817925E+01 -0.36749086686E+02 -0.26396611313E+03  0.26657423049E+03  0.47000000000E+01 0.  1.
        -11    1    3    3    0    0 -0.78383628253E+02  0.21155559051E+02 -0.11836002108E+03  0.14352924945E+03  0.00000000000E+00 0.  1.
         11    1    3    3    0    0 -0.52050428595E+02  0.72117868353E+01 -0.30589245646E+03  0.31037308502E+03  0.00000000000E+00 0. -1.
<mgrwt>
<rscale>  0 0.17724147E+03</rscale>
<asrwt>0</asrwt>
<pdfrwt beam="2">  1        1 0.16953850E+00 0.18287521E+03</pdfrwt>
<pdfrwt beam="1">  1       -1 0.42210782E-02 0.18287521E+03</pdfrwt>
<totfact> 0.30298566E+03</totfact>
</mgrwt>
</event>
<event>
 8    1  0.1273312E-005  0.1519522E+03  0.7546771E-02  0.1206460E+00
          1   -1    0    0  501    0  0.00000000000E+00  0.00000000000E+00  0.30493949669E+02  0.30493949669E+02  0.00000000000E+00 0. -1.
         -1   -1    0    0    0  501 -0.00000000000E+00 -0.00000000000E+00 -0.79024708082E+03  0.79024708082E+03  0.00000000000E+00 0.  1.
         23    2    1    2    0    0 -0.86257731861E+02 -0.50144540607E+01 -0.53235224113E+03  0.54724395842E+03  0.92798169899E+02 0.  0.
         23    2    1    2    0    0  0.86257731861E+02  0.50144540607E+01 -0.22740089002E+03  0.27349707207E+03  0.12499577030E+03 0.  0.
          5    1    4    4  502    0  0.34958357257E+01 -0.35788867044E+02 -0.10526374477E+02  0.37761864776E+02  0.47000000000E+01 0. -1.
         -5    1    4    4    0  502  0.82761896135E+02  0.40803321105E+02 -0.21687451554E+03  0.23573520729E+03  0.47000000000E+01 0. -1.
        -11    1    3    3    0    0  0.55020389583E+01  0.26830526853E+02 -0.79284023293E+02  0.83881499470E+02  0.00000000000E+00 0.  1.
         11    1    3    3    0    0 -0.91759770819E+02 -0.31844980914E+02 -0.45306821784E+03  0.46336245895E+03  0.00000000000E+00 0. -1.
<mgrwt>
<rscale>  0 0.14522992E+03</rscale>
<asrwt>0</asrwt>
<pdfrwt beam="1">  1        1 0.46913768E-02 0.15195224E+03</pdfrwt>
<pdfrwt beam="2">  1       -1 0.12157648E+00 0.15195224E+03</pdfrwt>
<totfact> 0.11475296E+03</totfact>
</mgrwt>
</event>
<event>
 8    1  0.1273312E-005  0.1270333E+03  0.7546771E-02  0.1247057E+00
         -1   -1    0    0    0  501 -0.00000000000E+00  0.00000000000E+00  0.21103941667E+02  0.21103941667E+02  0.00000000000E+00 0.  1.
          1   -1    0    0  501    0  0.00000000000E+00 -0.00000000000E+00 -0.81128012430E+03  0.81128012430E+03  0.00000000000E+00 0. -1.
         23    2    1    2    0    0 -0.84635229320E+01  0.20952979245E+02 -0.12985389245E+03  0.15995341937E+03  0.90622317469E+02 0.  0.
         23    2    1    2    0    0  0.84635229320E+01 -0.20952979245E+02 -0.66032229019E+03  0.67243064660E+03  0.12500715585E+03 0.  0.
          5    1    4    4  502    0 -0.19068242901E+02 -0.52989939444E+02 -0.14919449743E+03  0.15953877157E+03  0.47000000000E+01 0. -1.
         -5    1    4    4    0  502  0.27531765833E+02  0.32036960199E+02 -0.51112779276E+03  0.51289187504E+03  0.47000000000E+01 0. -1.
        -11    1    3    3    0    0 -0.28423588203E+02 -0.28069496478E+02 -0.47608489131E+02  0.62147930264E+02  0.00000000000E+00 0. -1.
         11    1    3    3    0    0  0.19960065271E+02  0.49022475723E+02 -0.82245403318E+02  0.97805489102E+02  0.00000000000E+00 0.  1.
<mgrwt>
<rscale>  0 0.11763097E+03</rscale>
<asrwt>0</asrwt>
<pdfrwt beam="2">  1        1 0.12481234E+00 0.12703325E+03</pdfrwt>
<pdfrwt beam="1">  1       -1 0.32467599E-02 0.12703325E+03</pdfrwt>
<totfact> 0.72786916E+03</totfact>
</mgrwt>
</event>
<event>
 8    1  0.1273312E-005  0.1456851E+03  0.7546771E-02  0.1215546E+00
         -3   -1    0    0    0  501 -0.00000000000E+00  0.00000000000E+00  0.43276502856E+03  0.43276502856E+03  0.00000000000E+00 0.  1.
          3   -1    0    0  501    0  0.00000000000E+00 -0.00000000000E+00 -0.43120797753E+02  0.43120797753E+02  0.00000000000E+00 0. -1.
         23    2    1    2    0    0  0.72714684319E+02  0.17674719097E+02  0.23632886431E+03  0.26439170317E+03  0.91933778280E+02 0.  0.
         23    2    1    2    0    0 -0.72714684319E+02 -0.17674719097E+02  0.15331536649E+03  0.21149412314E+03  0.12499736600E+03 0.  0.
          5    1    4    4  502    0 -0.76458407915E+02  0.20910760228E+02  0.15307283085E+03  0.17244282988E+03  0.47000000000E+01 0. -1.
         -5    1    4    4    0  502  0.37437235962E+01 -0.38585479326E+02  0.24253564181E+00  0.39051293253E+02  0.47000000000E+01 0. -1.
        -11    1    3    3    0    0  0.18066663928E+02  0.46961170856E+02  0.65067585007E+02  0.82252942393E+02  0.00000000000E+00 0. -1.
         11    1    3    3    0    0  0.54648020391E+02 -0.29286451758E+02  0.17126127931E+03  0.18213876078E+03  0.00000000000E+00 0.  1.
<mgrwt>
<rscale>  0 0.13836535E+03</rscale>
<asrwt>0</asrwt>
<pdfrwt beam="2">  1        3 0.66339692E-02 0.14568515E+03</pdfrwt>
<pdfrwt beam="1">  1       -3 0.66579232E-01 0.14568515E+03</pdfrwt>
<totfact> 0.74856634E+02</totfact>
</mgrwt>
</event>
<event>
 8    1  0.1273312E-005  0.1909845E+03  0.7546771E-02  0.1161694E+00
          1   -1    0    0  501    0  0.00000000000E+00  0.00000000000E+00  0.68984380980E+02  0.68984380980E+02  0.00000000000E+00 0. -1.
         -1   -1    0    0    0  501 -0.00000000000E+00 -0.00000000000E+00 -0.49344083020E+03  0.49344083020E+03  0.00000000000E+00 0.  1.
         23    2    1    2    0    0  0.14439009263E+03  0.92622313155E+00 -0.24602463532E+03  0.30105763923E+03  0.96219666470E+02 0.  0.
         23    2    1    2    0    0 -0.14439009263E+03 -0.92622313155E+00 -0.17843181390E+03  0.26136757195E+03  0.12500295483E+03 0.  0.
          5    1    4    4  502    0 -0.13304825902E+03 -0.73848581927E+01 -0.67271443983E+02  0.14934494479E+03  0.47000000000E+01 0.  1.
         -5    1    4    4    0  502 -0.11341833612E+02  0.64586350611E+01 -0.11116036992E+03  0.11202262717E+03  0.47000000000E+01 0.  1.
        -11    1    3    3    0    0  0.93622097668E+02  0.47144403205E+02 -0.14555937537E+03  0.17937453466E+03  0.00000000000E+00 0.  1.
         11    1    3    3    0    0  0.50767994959E+02 -0.46218180073E+02 -0.10046525994E+03  0.12168310457E+03  0.00000000000E+00 0. -1.
<mgrwt>
<rscale>  0 0.18645891E+03</rscale>
<asrwt>0</asrwt>
<pdfrwt beam="1">  1        1 0.10612981E-01 0.19098454E+03</pdfrwt>
<pdfrwt beam="2">  1       -1 0.75913976E-01 0.19098454E+03</pdfrwt>
<totfact> 0.10684970E+03</totfact>
</mgrwt>
</event>
<event>
 8    1  0.1273312E-005  0.1328102E+03  0.7546771E-02  0.1225855E+00
          4   -1    0    0  501    0  0.00000000000E+00  0.00000000000E+00  0.10647849275E+03  0.10647849275E+03  0.00000000000E+00 0. -1.
         -4   -1    0    0    0  501 -0.00000000000E+00 -0.00000000000E+00 -0.16888247918E+03  0.16888247918E+03  0.00000000000E+00 0.  1.
         23    2    1    2    0    0  0.44754818221E+02 -0.44359676931E+01 -0.66457836679E+02  0.14248896079E+03  0.11774458938E+03 0.  0.
         23    2    1    2    0    0 -0.44754818221E+02  0.44359676931E+01  0.40538502589E+01  0.13287201114E+03  0.12496345897E+03 0.  0.
          5    1    4    4  502    0  0.43956243570E+00 -0.46467262221E+02  0.34587439483E+02  0.58118677234E+02  0.47000000000E+01 0.  1.
         -5    1    4    4    0  502 -0.45194380657E+02  0.50903229915E+02 -0.30533589224E+02  0.74753333903E+02  0.47000000000E+01 0.  1.
        -11    1    3    3    0    0 -0.11621062931E+02 -0.26643407181E+02  0.21164903163E+02  0.35956548440E+02  0.00000000000E+00 0. -1.
         11    1    3    3    0    0  0.56375881152E+02  0.22207439488E+02 -0.87622739842E+02  0.10653241235E+03  0.00000000000E+00 0.  1.
<mgrwt>
<rscale>  0 0.13108466E+03</rscale>
<asrwt>0</asrwt>
<pdfrwt beam="1">  1        4 0.16381306E-01 0.13281016E+03</pdfrwt>
<pdfrwt beam="2">  1       -4 0.25981920E-01 0.13281016E+03</pdfrwt>
<totfact> 0.74096874E+02</totfact>
</mgrwt>
</event>
<event>
 8    1  0.1273312E-005  0.2356484E+03  0.7546771E-02  0.1125625E+00
          2   -1    0    0  501    0  0.00000000000E+00  0.00000000000E+00  0.10694723726E+03  0.10694723726E+03  0.00000000000E+00 0. -1.
         -2   -1    0    0    0  501 -0.00000000000E+00 -0.00000000000E+00 -0.53373054624E+03  0.53373054624E+03  0.00000000000E+00 0.  1.
         23    2    1    2    0    0 -0.10993016841E+03 -0.16679442068E+03 -0.30434940609E+03  0.37512129471E+03  0.90456641896E+02 0.  0.
         23    2    1    2    0    0  0.10993016841E+03  0.16679442068E+03 -0.12243390289E+03  0.26555648879E+03  0.12500066985E+03 0.  0.
          5    1    4    4  502    0  0.13296652713E+03  0.16405612315E+03 -0.10336750980E+03  0.23516258410E+03  0.47000000000E+01 0.  1.
         -5    1    4    4    0  502 -0.23036358720E+02  0.27382975279E+01 -0.19066393094E+02  0.30393904685E+02  0.47000000000E+01 0.  1.
        -11    1    3    3    0    0 -0.49890124072E+02 -0.85638368268E+02 -0.74211578005E+02  0.12381564081E+03  0.00000000000E+00 0. -1.
         11    1    3    3    0    0 -0.60040044336E+02 -0.81156052411E+02 -0.23013782808E+03  0.25130565390E+03  0.00000000000E+00 0.  1.
<mgrwt>
<rscale>  0 0.23144743E+03</rscale>
<asrwt>0</asrwt>
<pdfrwt beam="1">  1        2 0.16453421E-01 0.23564844E+03</pdfrwt>
<pdfrwt beam="2">  1       -2 0.82112392E-01 0.23564844E+03</pdfrwt>
<totfact> 0.46931245E+02</totfact>
</mgrwt>
</event>
<event>
 8    1  0.1273312E-005  0.1278538E+03  0.7546771E-02  0.1245969E+00
         -1   -1    0    0    0  501 -0.00000000000E+00  0.00000000000E+00  0.11960462853E+02  0.11960462853E+02  0.00000000000E+00 0.  1.
          1   -1    0    0  501    0  0.00000000000E+00 -0.00000000000E+00 -0.12645525758E+04  0.12645525758E+04  0.00000000000E+00 0. -1.
         23    2    1    2    0    0  0.26160633110E+02 -0.59754110577E+01 -0.27297407675E+03  0.28858687704E+03  0.89707607056E+02 0.  0.
         23    2    1    2    0    0 -0.26160633110E+02  0.59754110577E+01 -0.97961803620E+03  0.98792616161E+03  0.12500607858E+03 0.  0.
          5    1    4    4  502    0 -0.21150171170E+02  0.31600364750E+02 -0.88800422269E+02  0.96713586367E+02  0.47000000000E+01 0. -1.
         -5    1    4    4    0  502 -0.50104619396E+01 -0.25624953692E+02 -0.89081761393E+03  0.89121257525E+03  0.47000000000E+01 0. -1.
        -11    1    3    3    0    0  0.43994487027E+02 -0.12224177856E+02 -0.26353908431E+03  0.26746550128E+03  0.00000000000E+00 0. -1.
         11    1    3    3    0    0 -0.17833853917E+02  0.62487667984E+01 -0.94349924356E+01  0.21121375767E+02  0.00000000000E+00 0.  1.
<mgrwt>
<rscale>  0 0.11827557E+03</rscale>
<asrwt>0</asrwt>
<pdfrwt beam="2">  1        1 0.19454651E+00 0.12785384E+03</pdfrwt>
<pdfrwt beam="1">  1       -1 0.18400716E-02 0.12785384E+03</pdfrwt>
<totfact> 0.77613701E+03</totfact>
</mgrwt>
</event>
<event>
 8    1  0.1273312E-005  0.1410732E+03  0.7546771E-02  0.1222738E+00
         -1   -1    0    0    0  501 -0.00000000000E+00  0.00000000000E+00  0.27514818019E+02  0.27514818019E+02  0.00000000000E+00 0.  1.
          1   -1    0    0  501    0  0.00000000000E+00 -0.00000000000E+00 -0.61475671864E+03  0.61475671864E+03  0.00000000000E+00 0. -1.
         23    2    1    2    0    0 -0.56345730135E+02  0.33197522362E+02 -0.18932969863E+03  0.22009176938E+03  0.91201619326E+02 0.  0.
         23    2    1    2    0    0  0.56345730135E+02 -0.33197522362E+02 -0.39791220199E+03  0.42217976728E+03  0.12499887446E+03 0.  0.
          5    1    4    4  502    0 -0.11841749265E+02  0.39208623717E+02 -0.10481596147E+03  0.11263222886E+03  0.47000000000E+01 0. -1.
         -5    1    4    4    0  502  0.68187479400E+02 -0.72406146078E+02 -0.29309624052E+03  0.30954753842E+03  0.47000000000E+01 0. -1.
        -11    1    3    3    0    0 -0.21501868267E+02 -0.31713697955E+02 -0.71706466292E+02  0.81301330156E+02  0.00000000000E+00 0. -1.
         11    1    3    3    0    0 -0.34843861869E+02  0.64911220317E+02 -0.11762323234E+03  0.13879043922E+03  0.00000000000E+00 0.  1.
<mgrwt>
<rscale>  0 0.13323139E+03</rscale>
<asrwt>0</asrwt>
<pdfrwt beam="2">  1        1 0.94577953E-01 0.14107316E+03</pdfrwt>
<pdfrwt beam="1">  1       -1 0.42330491E-02 0.14107316E+03</pdfrwt>
<totfact> 0.73951271E+03</totfact>
</mgrwt>
</event>
<event>
 8    1  0.1273312E-005  0.2273037E+03  0.7546771E-02  0.1131695E+00
          1   -1    0    0  501    0  0.00000000000E+00  0.00000000000E+00  0.10984733681E+04  0.10984733681E+04  0.00000000000E+00 0. -1.
         -1   -1    0    0    0  501 -0.00000000000E+00 -0.00000000000E+00 -0.47807789447E+02  0.47807789447E+02  0.00000000000E+00 0.  1.
         23    2    1    2    0    0  0.18981708153E+03  0.34593024859E+01  0.33706819853E+03  0.39735648050E+03  0.90745307992E+02 0.  0.
         23    2    1    2    0    0 -0.18981708153E+03 -0.34593024859E+01  0.71359738016E+03  0.74892467708E+03  0.12499783901E+03 0.  0.
          5    1    4    4  502    0  0.75678757598E+01  0.25532896758E+02  0.10600096109E+03  0.10939604797E+03  0.47000000000E+01 0.  1.
         -5    1    4    4    0  502 -0.19738495729E+03 -0.28992199244E+02  0.60759641907E+03  0.63952862911E+03  0.47000000000E+01 0.  1.
        -11    1    3    3    0    0  0.25352363477E+02 -0.16988078785E+02  0.12607595798E+02  0.33019518872E+02  0.00000000000E+00 0.  1.
         11    1    3    3    0    0  0.16446471805E+03  0.20447381271E+02  0.32446060273E+03  0.36433696163E+03  0.00000000000E+00 0. -1.
<mgrwt>
<rscale>  0 0.22296019E+03</rscale>
<asrwt>0</asrwt>
<pdfrwt beam="1">  1        1 0.16899588E+00 0.22730365E+03</pdfrwt>
<pdfrwt beam="2">  1       -1 0.73550454E-02 0.22730365E+03</pdfrwt>
<totfact> 0.13266728E+03</totfact>
</mgrwt>
</event>
<event>
 8    1  0.1273312E-005  0.1349022E+03  0.7546771E-02  0.1233477E+00
          1   -1    0    0  501    0  0.00000000000E+00  0.00000000000E+00  0.14231602612E+03  0.14231602612E+03  0.00000000000E+00 0. -1.
         -1   -1    0    0    0  501 -0.00000000000E+00 -0.00000000000E+00 -0.11230568229E+03  0.11230568229E+03  0.00000000000E+00 0.  1.
         23    2    1    2    0    0 -0.27022289495E+02 -0.42930084589E+02 -0.29910103258E+02  0.10701051231E+03  0.89350093316E+02 0.  0.
         23    2    1    2    0    0  0.27022289495E+02  0.42930084589E+02  0.59920447083E+02  0.14761119610E+03  0.12500163576E+03 0.  0.
          5    1    4    4  502    0  0.61982419115E+02  0.17754930134E+02 -0.99346255506E+01  0.65405233798E+02  0.47000000000E+01 0. -1.
         -5    1    4    4    0  502 -0.34960129619E+02  0.25175154454E+02  0.69855072634E+02  0.82205962299E+02  0.47000000000E+01 0. -1.
        -11    1    3    3    0    0  0.13154566633E+02 -0.56011146195E+02 -0.45118222014E+01  0.57711763627E+02  0.00000000000E+00 0. -1.
         11    1    3    3    0    0 -0.40176856128E+02  0.13081061606E+02 -0.25398281057E+02  0.49298748683E+02  0.00000000000E+00 0.  1.
<mgrwt>
<rscale>  0 0.12602450E+03</rscale>
<asrwt>0</asrwt>
<pdfrwt beam="1">  1        1 0.21894773E-01 0.13490221E+03</pdfrwt>
<pdfrwt beam="2">  1       -1 0.17277797E-01 0.13490221E+03</pdfrwt>
<totfact> 0.55362321E+03</totfact>
</mgrwt>
</event>
<event>
 8    1  0.1273312E-005  0.1459968E+03  0.7546771E-02  0.1215671E+00
         -2   -1    0    0    0  501 -0.00000000000E+00  0.00000000000E+00  0.60319452879E+02  0.60319452879E+02  0.00000000000E+00 0.  1.
          2   -1    0    0  501    0  0.00000000000E+00 -0.00000000000E+00 -0.53138337038E+03  0.53138337038E+03  0.00000000000E+00 0. -1.
         23    2    1    2    0    0 -0.71653740723E+02 -0.23562063859E+02 -0.22012663765E+02  0.11951420811E+03  0.90053646015E+02 0.  0.
         23    2    1    2    0    0  0.71653740723E+02  0.23562063859E+02 -0.44905125373E+03  0.47218861515E+03  0.12500252151E+03 0.  0.
          5    1    4    4  502    0  0.23172421488E+01  0.90349333648E+00  0.78476718987E+01  0.94795498635E+01  0.47000000000E+01 0. -1.
         -5    1    4    4    0  502  0.69336498574E+02  0.22658570522E+02 -0.45689892563E+03  0.46270906529E+03  0.47000000000E+01 0. -1.
        -11    1    3    3    0    0 -0.56564147524E+01 -0.13423025291E+02  0.31003538719E+02  0.34254810595E+02  0.00000000000E+00 0.  1.
         11    1    3    3    0    0 -0.65997325971E+02 -0.10139038568E+02 -0.53016202484E+02  0.85259397512E+02  0.00000000000E+00 0. -1.
<mgrwt>
<rscale>  0 0.13827344E+03</rscale>
<asrwt>0</asrwt>
<pdfrwt beam="2">  1        2 0.81751287E-01 0.14599678E+03</pdfrwt>
<pdfrwt beam="1">  1       -2 0.92799159E-02 0.14599678E+03</pdfrwt>
<totfact> 0.42187373E+03</totfact>
</mgrwt>
</event>
<event>
 8    1  0.1273312E-005  0.1342809E+03  0.7546771E-02  0.1234061E+00
         -2   -1    0    0    0  501 -0.00000000000E+00  0.00000000000E+00  0.76505104658E+02  0.76505104658E+02  0.00000000000E+00 0.  1.
          2   -1    0    0  501    0  0.00000000000E+00 -0.00000000000E+00 -0.20825185225E+03  0.20825185225E+03  0.00000000000E+00 0. -1.
         23    2    1    2    0    0  0.15480364400E+02  0.46650053941E+02 -0.98617422359E+01  0.10340838177E+03  0.90444293607E+02 0.  0.
         23    2    1    2    0    0 -0.15480364400E+02 -0.46650053941E+02 -0.12188500535E+03  0.18134857513E+03  0.12496192203E+03 0.  0.
          5    1    4    4  502    0 -0.41230028518E+02 -0.23359313566E+02  0.66878154020E+01  0.48087312846E+02  0.47000000000E+01 0.  1.
         -5    1    4    4    0  502  0.25749664118E+02 -0.23290740375E+02 -0.12857282075E+03  0.13326126229E+03  0.47000000000E+01 0.  1.
        -11    1    3    3    0    0  0.31368311842E+02 -0.63876994216E+01  0.22638355102E+02  0.39208019759E+02  0.00000000000E+00 0.  1.
         11    1    3    3    0    0 -0.15887947442E+02  0.53037753363E+02 -0.32500097338E+02  0.64200362013E+02  0.00000000000E+00 0. -1.
<mgrwt>
<rscale>  0 0.12564741E+03</rscale>
<asrwt>0</asrwt>
<pdfrwt beam="2">  1        2 0.32038746E-01 0.13428087E+03</pdfrwt>
<pdfrwt beam="1">  1       -2 0.11770016E-01 0.13428087E+03</pdfrwt>
<totfact> 0.78774866E+03</totfact>
</mgrwt>
</event>
<event>
 8    1  0.1273312E-005  0.1375800E+03  0.7546771E-02  0.1228843E+00
         -1   -1    0    0    0  501 -0.00000000000E+00  0.00000000000E+00  0.10408624801E+02  0.10408624801E+02  0.00000000000E+00 0.  1.
          1   -1    0    0  501    0  0.00000000000E+00 -0.00000000000E+00 -0.15550645072E+04  0.15550645072E+04  0.00000000000E+00 0. -1.
         23    2    1    2    0    0  0.51985763182E+02 -0.24467648782E+02 -0.46320317148E+03  0.47530423247E+03  0.89753829609E+02 0.  0.
         23    2    1    2    0    0 -0.51985763182E+02  0.24467648782E+02 -0.10814527110E+04  0.10901688996E+04  0.12500831224E+03 0.  0.
          5    1    4    4  502    0 -0.23226090723E+01 -0.68108298774E+01 -0.88595928384E+03  0.88600097321E+03  0.47000000000E+01 0.  1.
         -5    1    4    4    0  502 -0.49663154110E+02  0.31278478660E+02 -0.19549342712E+03  0.20416792635E+03  0.47000000000E+01 0.  1.
        -11    1    3    3    0    0 -0.47952479906E+00 -0.47727217199E+02 -0.17199306883E+03  0.17849294924E+03  0.00000000000E+00 0. -1.
         11    1    3    3    0    0  0.52465287981E+02  0.23259568417E+02 -0.29121010265E+03  0.29681128323E+03  0.00000000000E+00 0.  1.
<mgrwt>
<rscale>  0 0.12906967E+03</rscale>
<asrwt>0</asrwt>
<pdfrwt beam="2">  1        1 0.23924082E+00 0.13758003E+03</pdfrwt>
<pdfrwt beam="1">  1       -1 0.16013261E-02 0.13758003E+03</pdfrwt>
<totfact> 0.61281303E+03</totfact>
</mgrwt>
</event>
<event>
 8    1  0.1273312E-005  0.1796333E+03  0.7546771E-02  0.1173065E+00
         -1   -1    0    0    0  501 -0.00000000000E+00  0.00000000000E+00  0.75952259716E+03  0.75952259716E+03  0.00000000000E+00 0.  1.
          1   -1    0    0  501    0  0.00000000000E+00 -0.00000000000E+00 -0.44177275911E+02  0.44177275911E+02  0.00000000000E+00 0. -1.
         23    2    1    2    0    0 -0.10142616870E+03 -0.79692229669E+02  0.48926531189E+03  0.51494340921E+03  0.95645439523E+02 0.  0.
         23    2    1    2    0    0  0.10142616870E+03  0.79692229669E+02  0.22608000935E+03  0.28875646386E+03  0.12502002089E+03 0.  0.
          5    1    4    4  502    0 -0.10224868782E+02 -0.21916088219E+02  0.13831249693E+02  0.28253430455E+02  0.47000000000E+01 0. -1.
         -5    1    4    4    0  502  0.11165103748E+03  0.10160831789E+03  0.21224875966E+03  0.26050303340E+03  0.47000000000E+01 0. -1.
        -11    1    3    3    0    0 -0.98891254027E+02 -0.43061467000E+02  0.44266031504E+03  0.45561159399E+03  0.00000000000E+00 0.  1.
         11    1    3    3    0    0 -0.25349146722E+01 -0.36630762669E+02  0.46604996849E+02  0.59331815221E+02  0.00000000000E+00 0. -1.
<mgrwt>
<rscale>  0 0.17466806E+03</rscale>
<asrwt>0</asrwt>
<pdfrwt beam="2">  1        1 0.67965045E-02 0.17963331E+03</pdfrwt>
<pdfrwt beam="1">  1       -1 0.11684962E+00 0.17963331E+03</pdfrwt>
<totfact> 0.76174940E+02</totfact>
</mgrwt>
</event>
<event>
 8    1  0.1273312E-005  0.3099998E+03  0.7546771E-02  0.1081778E+00
         -1   -1    0    0    0  501 -0.00000000000E+00  0.00000000000E+00  0.34145117762E+03  0.34145117762E+03  0.00000000000E+00 0.  1.
          1   -1    0    0  501    0  0.00000000000E+00 -0.00000000000E+00 -0.43903035135E+03  0.43903035135E+03  0.00000000000E+00 0. -1.
         23    2    1    2    0    0  0.13364335392E+03  0.25022678016E+03  0.19324753428E+03  0.35541680538E+03  0.92209047739E+02 0.  0.
         23    2    1    2    0    0 -0.13364335392E+03 -0.25022678016E+03 -0.29082670800E+03  0.42506472359E+03  0.12500343034E+03 0.  0.
          5    1    4    4  502    0 -0.10655762439E+03 -0.20526197747E+03 -0.29178417516E+03  0.37235346324E+03  0.47000000000E+01 0. -1.
         -5    1    4    4    0  502 -0.27085729530E+02 -0.44964802687E+02  0.95746715411E+00  0.52711260355E+02  0.47000000000E+01 0. -1.
        -11    1    3    3    0    0  0.96864344490E+01  0.37915460465E+02  0.70490815173E+02  0.80624835990E+02  0.00000000000E+00 0.  1.
         11    1    3    3    0    0  0.12395691947E+03  0.21231131969E+03  0.12275671910E+03  0.27479196939E+03  0.00000000000E+00 0. -1.
<mgrwt>
<rscale>  0 0.30702972E+03</rscale>
<asrwt>0</asrwt>
<pdfrwt beam="2">  1        1 0.67543131E-01 0.30999975E+03</pdfrwt>
<pdfrwt beam="1">  1       -1 0.52530950E-01 0.30999975E+03</pdfrwt>
<totfact> 0.20201892E+02</totfact>
</mgrwt>
</event>
<event>
 8    1  0.1273312E-005  0.1276962E+03  0.7546771E-02  0.1232445E+00
         -2   -1    0    0    0  501 -0.00000000000E+00  0.00000000000E+00  0.20958056859E+02  0.20958056859E+02  0.00000000000E+00 0.  1.
          2   -1    0    0  501    0  0.00000000000E+00 -0.00000000000E+00 -0.80567074370E+03  0.80567074370E+03  0.00000000000E+00 0. -1.
         23    2    1    2    0    0 -0.17694762452E+02 -0.19170103177E+02 -0.28200708639E+03  0.30795816183E+03  0.12095302886E+03 0.  0.
         23    2    1    2    0    0  0.17694762452E+02  0.19170103177E+02 -0.50270560045E+03  0.51867063873E+03  0.12500285309E+03 0.  0.
          5    1    4    4  502    0 -0.22077100424E+02  0.63824297892E+02 -0.27059625071E+03  0.27893612219E+03  0.47000000000E+01 0.  1.
         -5    1    4    4    0  502  0.39771862876E+02 -0.44654194715E+02 -0.23210934974E+03  0.23973451653E+03  0.47000000000E+01 0.  1.
        -11    1    3    3    0    0  0.21932329453E+02 -0.55714811760E+02 -0.86826426273E+02  0.10547035424E+03  0.00000000000E+00 0.  1.
         11    1    3    3    0    0 -0.39627091905E+02  0.36544708584E+02 -0.19518066012E+03  0.20248780759E+03  0.00000000000E+00 0. -1.
<mgrwt>
<rscale>  0 0.12669402E+03</rscale>
<asrwt>0</asrwt>
<pdfrwt beam="2">  1        2 0.12394934E+00 0.12769617E+03</pdfrwt>
<pdfrwt beam="1">  1       -2 0.32243165E-02 0.12769617E+03</pdfrwt>
<totfact> 0.12726054E+04</totfact>
</mgrwt>
</event>
<event>
 8    1  0.1273312E-005  0.1447865E+03  0.7546771E-02  0.1216501E+00
         -1   -1    0    0    0  501 -0.00000000000E+00  0.00000000000E+00  0.64567474093E+02  0.64567474093E+02  0.00000000000E+00 0.  1.
          1   -1    0    0  501    0  0.00000000000E+00 -0.00000000000E+00 -0.26808551607E+03  0.26808551607E+03  0.00000000000E+00 0. -1.
         23    2    1    2    0    0 -0.72604217725E+02  0.84234884105E+01 -0.91276625857E+02  0.14945568587E+03  0.93076592241E+02 0.  0.
         23    2    1    2    0    0  0.72604217725E+02 -0.84234884105E+01 -0.11224141612E+03  0.18319730429E+03  0.12498315574E+03 0.  0.
          5    1    4    4  502    0  0.24652884892E+02  0.20615391425E+02  0.20925315202E+02  0.38635707751E+02  0.47000000000E+01 0. -1.
         -5    1    4    4    0  502  0.47951332833E+02 -0.29038879836E+02 -0.13316673132E+03  0.14456159654E+03  0.47000000000E+01 0. -1.
        -11    1    3    3    0    0 -0.63341276560E+01  0.40825128134E+02 -0.50230582029E+02  0.65037863059E+02  0.00000000000E+00 0. -1.
         11    1    3    3    0    0 -0.66270090069E+02 -0.32401639724E+02 -0.41046043828E+02  0.84417822813E+02  0.00000000000E+00 0.  1.
<mgrwt>
<rscale>  0 0.13766818E+03</rscale>
<asrwt>0</asrwt>
<pdfrwt beam="2">  1        1 0.41243925E-01 0.14478645E+03</pdfrwt>
<pdfrwt beam="1">  1       -1 0.99334576E-02 0.14478645E+03</pdfrwt>
<totfact> 0.59664412E+03</totfact>
</mgrwt>
</event>
<event>
 8    1  0.1273312E-005  0.1629176E+03  0.7546771E-02  0.1192882E+00
         -2   -1    0    0    0  501 -0.00000000000E+00  0.00000000000E+00  0.13384767577E+02  0.13384767577E+02  0.00000000000E+00 0. -1.
          2   -1    0    0  501    0  0.00000000000E+00 -0.00000000000E+00 -0.18781508278E+04  0.18781508278E+04  0.00000000000E+00 0.  1.
         23    2    1    2    0    0  0.62191396731E+02  0.83958068696E+02 -0.56762685323E+03  0.58420538819E+03  0.90437624706E+02 0.  0.
         23    2    1    2    0    0 -0.62191396731E+02 -0.83958068696E+02 -0.12971392070E+04  0.13073302072E+04  0.12500168464E+03 0.  0.
          5    1    4    4  502    0 -0.53287094125E+02  0.12445764876E+02 -0.26390683874E+03  0.26956134923E+03  0.47000000000E+01 0. -1.
         -5    1    4    4    0  502 -0.89043026060E+01 -0.96403833572E+02 -0.10332323683E+04  0.10377688580E+04  0.47000000000E+01 0. -1.
        -11    1    3    3    0    0 -0.18392121661E+02  0.43201931440E+02 -0.22749330399E+03  0.23228835610E+03  0.00000000000E+00 0.  1.
         11    1    3    3    0    0  0.80583518392E+02  0.40756137256E+02 -0.34013354924E+03  0.35191703210E+03  0.00000000000E+00 0. -1.
<mgrwt>
<rscale>  0 0.15634822E+03</rscale>
<asrwt>0</asrwt>
<pdfrwt beam="2">  1        2 0.28894607E+00 0.16291761E+03</pdfrwt>
<pdfrwt beam="1">  1       -2 0.20591965E-02 0.16291761E+03</pdfrwt>
<totfact> 0.63242327E+03</totfact>
</mgrwt>
</event>
<event>
 8    1  0.1273312E-005  0.2545418E+03  0.7546771E-02  0.1113074E+00
          2   -1    0    0  501    0  0.00000000000E+00  0.00000000000E+00  0.34090029313E+03  0.34090029313E+03  0.00000000000E+00 0.  1.
         -2   -1    0    0    0  501 -0.00000000000E+00 -0.00000000000E+00 -0.18175471070E+03  0.18175471070E+03  0.00000000000E+00 0. -1.
         23    2    1    2    0    0  0.22124180437E+03 -0.14778872800E+02  0.39880353839E+02  0.24155763339E+03  0.87139523440E+02 0.  0.
         23    2    1    2    0    0 -0.22124180437E+03  0.14778872800E+02  0.11926522860E+03  0.28109737044E+03  0.12500074334E+03 0.  0.
          5    1    4    4  502    0 -0.23171412351E+03  0.28085732191E+02  0.97186458991E+02  0.25287851075E+03  0.47000000000E+01 0. -1.
         -5    1    4    4    0  502  0.10472319142E+02 -0.13306859391E+02  0.22078769604E+02  0.28218859691E+02  0.47000000000E+01 0. -1.
        -11    1    3    3    0    0  0.13182819152E+03 -0.22530915078E+02  0.64517455452E+02  0.14848843817E+03  0.00000000000E+00 0.  1.
         11    1    3    3    0    0  0.89413612852E+02  0.77520422781E+01 -0.24637101613E+02  0.93069195219E+02  0.00000000000E+00 0. -1.
<mgrwt>
<rscale>  0 0.25036540E+03</rscale>
<asrwt>0</asrwt>
<pdfrwt beam="1">  1        2 0.52446199E-01 0.25454182E+03</pdfrwt>
<pdfrwt beam="2">  1       -2 0.27962263E-01 0.25454182E+03</pdfrwt>
<totfact> 0.11057641E+03</totfact>
</mgrwt>
</event>
<event>
 7    1  0.1273312E-005  0.1991674E+03  0.7546771E-02  0.1183871E+00
          2   -1    0    0  501    0  0.00000000000E+00  0.00000000000E+00  0.69882564544E+03  0.69882564544E+03  0.00000000000E+00 0. -1.
         -2   -1    0    0    0  501 -0.00000000000E+00 -0.00000000000E+00 -0.30809602745E+02  0.30809602745E+02  0.00000000000E+00 0.  1.
         23    2    1    2    0    0  0.12420132357E+02 -0.12354735907E+02  0.17411996110E+03  0.19709322322E+03  0.90670163777E+02 0.  0.
          5    1    1    2  502    0  0.29671289502E+02  0.63910575933E+02  0.44308089380E+03  0.44867328379E+03  0.47000000000E+01 0. -1.
         -5    1    1    2    0  502 -0.42091421859E+02 -0.51555840026E+02  0.50815187789E+02  0.83868741167E+02  0.47000000000E+01 0.  1.
        -11    1    3    3    0    0  0.20178193701E+02 -0.48024211222E+02  0.73750396025E+02  0.90291778576E+02  0.00000000000E+00 0. -1.
         11    1    3    3    0    0 -0.77580613435E+01  0.35669475315E+02  0.10036956508E+03  0.10680144465E+03  0.00000000000E+00 0.  1.
<mgrwt>
<rscale>  0 0.16434993E+03</rscale>
<asrwt>0</asrwt>
<pdfrwt beam="1">  1        2 0.10751163E+00 0.19916744E+03</pdfrwt>
<pdfrwt beam="2">  1       -2 0.47399394E-02 0.19916744E+03</pdfrwt>
<totfact> 0.87559170E+03</totfact>
</mgrwt>
</event>
<event>
 8    1  0.1273312E-005  0.1262454E+03  0.7546771E-02  0.1246925E+00
          2   -1    0    0  501    0  0.00000000000E+00  0.00000000000E+00  0.77766462352E+03  0.77766462352E+03  0.00000000000E+00 0. -1.
         -2   -1    0    0    0  501 -0.00000000000E+00 -0.00000000000E+00 -0.17274804812E+02  0.17274804812E+02  0.00000000000E+00 0.  1.
         23    2    1    2    0    0 -0.12408689703E+02  0.12619880168E+02  0.21651066777E+03  0.23660043315E+03  0.93753179952E+02 0.  0.
         23    2    1    2    0    0  0.12408689703E+02 -0.12619880168E+02  0.54387915093E+03  0.55833899518E+03  0.12499866305E+03 0.  0.
          5    1    4    4  502    0 -0.25361454962E+02 -0.53156058084E+02  0.16210235472E+03  0.17253415116E+03  0.47000000000E+01 0.  1.
         -5    1    4    4    0  502  0.37770144665E+02  0.40536177916E+02  0.38177679621E+03  0.38580484402E+03  0.47000000000E+01 0.  1.
        -11    1    3    3    0    0 -0.13914971821E+02  0.42414637894E+02  0.48315604888E+02  0.65780130922E+02  0.00000000000E+00 0.  1.
         11    1    3    3    0    0  0.15062821175E+01 -0.29794757726E+02  0.16819506289E+03  0.17082030223E+03  0.00000000000E+00 0. -1.
<mgrwt>
<rscale>  0 0.11770886E+03</rscale>
<asrwt>0</asrwt>
<pdfrwt beam="1">  1        2 0.11964068E+00 0.12624541E+03</pdfrwt>
<pdfrwt beam="2">  1       -2 0.26576629E-02 0.12624541E+03</pdfrwt>
<totfact> 0.17634395E+04</totfact>
</mgrwt>
</event>
<event>
 8    1  0.1273312E-005  0.2137758E+03  0.7546771E-02  0.1141921E+00
         -1   -1    0    0    0  501 -0.00000000000E+00  0.00000000000E+00  0.40640685493E+03  0.40640685493E+03  0.00000000000E+00 0.  1.
          1   -1    0    0  501    0  0.00000000000E+00 -0.00000000000E+00 -0.19695913476E+03  0.19695913476E+03  0.00000000000E+00 0. -1.
         23    2    1    2    0    0 -0.69004324973E+02 -0.15910151548E+03  0.30970138735E+03  0.36724967987E+03  0.94246957246E+02 0.  0.
         23    2    1    2    0    0  0.69004324973E+02  0.15910151548E+03 -0.10025366717E+03  0.23611630981E+03  0.12500089955E+03 0.  0.
          5    1    4    4  502    0  0.12466531867E+02  0.15624760801E+03 -0.69565946875E+02  0.17155244210E+03  0.47000000000E+01 0.  1.
         -5    1    4    4    0  502  0.56537793106E+02  0.28539074643E+01 -0.30687720297E+02  0.64563867713E+02  0.47000000000E+01 0.  1.
        -11    1    3    3    0    0 -0.32273425618E+02 -0.10019943667E+03  0.95685213378E+02  0.14225737650E+03  0.00000000000E+00 0.  1.
         11    1    3    3    0    0 -0.36730899355E+02 -0.58902078803E+02  0.21401617397E+03  0.22499230337E+03  0.00000000000E+00 0. -1.
<mgrwt>
<rscale>  0 0.20955243E+03</rscale>
<asrwt>0</asrwt>
<pdfrwt beam="2">  1        1 0.30301405E-01 0.21377585E+03</pdfrwt>
<pdfrwt beam="1">  1       -1 0.62524131E-01 0.21377585E+03</pdfrwt>
<totfact> 0.40385246E+02</totfact>
</mgrwt>
</event>
<event>
 8    1  0.1273312E-005  0.1342194E+03  0.7546771E-02  0.1234176E+00
          2   -1    0    0  501    0  0.00000000000E+00  0.00000000000E+00  0.11997576105E+04  0.11997576105E+04  0.00000000000E+00 0. -1.
         -2   -1    0    0    0  501 -0.00000000000E+00 -0.00000000000E+00 -0.15972595674E+02  0.15972595674E+02  0.00000000000E+00 0.  1.
         23    2    1    2    0    0 -0.76253811793E+01  0.48175656284E+02  0.22243388384E+03  0.24505475439E+03  0.90531539679E+02 0.  0.
         23    2    1    2    0    0  0.76253811793E+01 -0.48175656284E+02  0.96135113096E+03  0.97067545175E+03  0.12504317388E+03 0.  0.
          5    1    4    4  502    0  0.38503700133E+02 -0.12145484618E+02  0.82901164901E+03  0.83000750112E+03  0.47000000000E+01 0.  1.
         -5    1    4    4    0  502 -0.30878318954E+02 -0.36030171666E+02  0.13233948195E+03  0.14066795063E+03  0.47000000000E+01 0.  1.
        -11    1    3    3    0    0  0.21432535049E+02  0.30250599873E+02  0.20176745778E+03  0.20514521533E+03  0.00000000000E+00 0. -1.
         11    1    3    3    0    0 -0.29057916228E+02  0.17925056411E+02  0.20666426054E+02  0.39909539069E+02  0.00000000000E+00 0.  1.
<mgrwt>
<rscale>  0 0.12557304E+03</rscale>
<asrwt>0</asrwt>
<pdfrwt beam="1">  1        2 0.18457802E+00 0.13421936E+03</pdfrwt>
<pdfrwt beam="2">  1       -2 0.24573234E-02 0.13421936E+03</pdfrwt>
<totfact> 0.11016815E+04</totfact>
</mgrwt>
</event>
<event>
 8    1  0.1273312E-005  0.1333886E+03  0.7546771E-02  0.1235044E+00
         -2   -1    0    0    0  501 -0.00000000000E+00  0.00000000000E+00  0.40274034253E+02  0.40274034253E+02  0.00000000000E+00 0. -1.
          2   -1    0    0  501    0  0.00000000000E+00 -0.00000000000E+00 -0.36446954383E+03  0.36446954383E+03  0.00000000000E+00 0.  1.
         23    2    1    2    0    0  0.44340923593E+02  0.14162842877E+02 -0.18662598602E+03  0.21312444167E+03  0.91793601945E+02 0.  0.
         23    2    1    2    0    0 -0.44340923593E+02 -0.14162842877E+02 -0.13756952356E+03  0.19161913641E+03  0.12500326397E+03 0.  0.
          5    1    4    4  502    0 -0.57799709166E+02 -0.16907532574E+02 -0.76459261424E+01  0.60886954464E+02  0.47000000000E+01 0. -1.
         -5    1    4    4    0  502  0.13458785573E+02  0.27446896970E+01 -0.12992359742E+03  0.13073218195E+03  0.47000000000E+01 0. -1.
        -11    1    3    3    0    0 -0.17407875746E+02  0.15845263697E+02 -0.11992618693E+03  0.12221455246E+03  0.00000000000E+00 0.  1.
         11    1    3    3    0    0  0.61748799339E+02 -0.16824208204E+01 -0.66699799084E+02  0.90909889217E+02  0.00000000000E+00 0. -1.
<mgrwt>
<rscale>  0 0.12501589E+03</rscale>
<asrwt>0</asrwt>
<pdfrwt beam="2">  1        2 0.56072237E-01 0.13338860E+03</pdfrwt>
<pdfrwt beam="1">  1       -2 0.61960054E-02 0.13338860E+03</pdfrwt>
<totfact> 0.11756507E+04</totfact>
</mgrwt>
</event>
<event>
 8    1  0.1273312E-005  0.1765334E+03  0.7546771E-02  0.1177194E+00
          2   -1    0    0  501    0  0.00000000000E+00  0.00000000000E+00  0.62897114828E+03  0.62897114828E+03  0.00000000000E+00 0. -1.
         -2   -1    0    0    0  501 -0.00000000000E+00 -0.00000000000E+00 -0.44678836562E+02  0.44678836562E+02  0.00000000000E+00 0.  1.
         23    2    1    2    0    0  0.12460293579E+03 -0.35661336933E+01  0.21698014541E+03  0.26611806674E+03  0.90552929427E+02 0.  0.
         23    2    1    2    0    0 -0.12460293579E+03  0.35661336933E+01  0.36731216631E+03  0.40753191810E+03  0.12500171132E+03 0.  0.
          5    1    4    4  502    0  0.21753201776E+02 -0.58068731924E+01  0.19937193461E+02  0.30438515846E+02  0.47000000000E+01 0. -1.
         -5    1    4    4    0  502 -0.14635613757E+03  0.93730068857E+01  0.34737497285E+03  0.37709340225E+03  0.47000000000E+01 0. -1.
        -11    1    3    3    0    0  0.10359537040E+03  0.25560522204E+02  0.10990516710E+03  0.15318122215E+03  0.00000000000E+00 0.  1.
         11    1    3    3    0    0  0.21007565395E+02 -0.29126655897E+02  0.10707497831E+03  0.11293684459E+03  0.00000000000E+00 0. -1.
<mgrwt>
<rscale>  0 0.17062854E+03</rscale>
<asrwt>0</asrwt>
<pdfrwt beam="1">  1        2 0.96764786E-01 0.17653339E+03</pdfrwt>
<pdfrwt beam="2">  1       -2 0.68736676E-02 0.17653339E+03</pdfrwt>
<totfact> 0.55956299E+03</totfact>
</mgrwt>
</event>
<event>
 8    1  0.1273312E-005  0.2077694E+03  0.7546771E-02  0.1147473E+00
         -1   -1    0    0    0  501 -0.00000000000E+00  0.00000000000E+00  0.19757369561E+03  0.19757369561E+03  0.00000000000E+00 0.  1.
          1   -1    0    0  501    0  0.00000000000E+00 -0.00000000000E+00 -0.21939831701E+03  0.21939831701E+03  0.00000000000E+00 0. -1.
         23    2    1    2    0    0 -0.12828393985E+03  0.10527463093E+03  0.53918616634E+02  0.19582694078E+03  0.88890136548E+02 0.  0.
         23    2    1    2    0    0  0.12828393985E+03 -0.10527463093E+03 -0.75743238037E+02  0.22114507183E+03  0.12501434937E+03 0.  0.
          5    1    4    4  502    0  0.30695339825E+02 -0.61106109926E+02  0.26023513075E+02  0.73317622643E+02  0.47000000000E+01 0. -1.
         -5    1    4    4    0  502  0.97588600023E+02 -0.44168521008E+02 -0.10176675111E+03  0.14782744919E+03  0.47000000000E+01 0. -1.
        -11    1    3    3    0    0 -0.50312988473E+02  0.91356746243E+02  0.87797163999E+01  0.10466391600E+03  0.00000000000E+00 0. -1.
         11    1    3    3    0    0 -0.77970951375E+02  0.13917884691E+02  0.45138900234E+02  0.91163024779E+02  0.00000000000E+00 0.  1.
<mgrwt>
<rscale>  0 0.20270960E+03</rscale>
<asrwt>0</asrwt>
<pdfrwt beam="2">  1        1 0.33753587E-01 0.20776935E+03</pdfrwt>
<pdfrwt beam="1">  1       -1 0.30395953E-01 0.20776935E+03</pdfrwt>
<totfact> 0.12960235E+03</totfact>
</mgrwt>
</event>
<event>
 8    1  0.1273312E-005  0.1272024E+03  0.7546771E-02  0.1247015E+00
         -3   -1    0    0    0  501 -0.00000000000E+00  0.00000000000E+00  0.10668201222E+03  0.10668201222E+03  0.00000000000E+00 0.  1.
          3   -1    0    0  501    0  0.00000000000E+00 -0.00000000000E+00 -0.21394914633E+03  0.21394914633E+03  0.00000000000E+00 0. -1.
         23    2    1    2    0    0 -0.71339533769E+00 -0.23553033191E+02  0.59796831365E+02  0.11065300730E+03  0.90073151820E+02 0.  0.
         23    2    1    2    0    0  0.71339533769E+00  0.23553033191E+02 -0.16706396548E+03  0.20997815125E+03  0.12500080453E+03 0.  0.
          5    1    4    4  502    0  0.33896095735E+02  0.27048120624E+02 -0.17060878720E+03  0.17609654853E+03  0.47000000000E+01 0.  1.
         -5    1    4    4    0  502 -0.33182700398E+02 -0.34950874325E+01  0.35448217155E+01  0.33881602719E+02  0.47000000000E+01 0.  1.
        -11    1    3    3    0    0  0.51795786930E+01  0.28020380798E+02  0.50403976307E+02  0.57901041468E+02  0.00000000000E+00 0.  1.
         11    1    3    3    0    0 -0.58929740307E+01 -0.51573413990E+02  0.93928550584E+01  0.52751965837E+02  0.00000000000E+00 0. -1.
<mgrwt>
<rscale>  0 0.11765600E+03</rscale>
<asrwt>0</asrwt>
<pdfrwt beam="2">  1        3 0.32915253E-01 0.12720242E+03</pdfrwt>
<pdfrwt beam="1">  1       -3 0.16412618E-01 0.12720242E+03</pdfrwt>
<totfact> 0.65663972E+02</totfact>
</mgrwt>
</event>
<event>
 8    1  0.1273312E-005  0.1647958E+03  0.7546771E-02  0.1187700E+00
          2   -1    0    0  501    0  0.00000000000E+00  0.00000000000E+00  0.83397463830E+03  0.83397463830E+03  0.00000000000E+00 0. -1.
         -2   -1    0    0    0  501 -0.00000000000E+00 -0.00000000000E+00 -0.31975047843E+02  0.31975047843E+02  0.00000000000E+00 0.  1.
         23    2    1    2    0    0 -0.73338100707E+02  0.94455612511E+02  0.26653168735E+03  0.30569659627E+03  0.90060695424E+02 0.  0.
         23    2    1    2    0    0  0.73338100707E+02 -0.94455612511E+02  0.53546790311E+03  0.56025308987E+03  0.11339007762E+03 0.  0.
          5    1    4    4  502    0  0.81730350236E+02 -0.55892771311E+02  0.48972254983E+03  0.49965399813E+03  0.47000000000E+01 0. -1.
         -5    1    4    4    0  502 -0.83922495293E+01 -0.38562841200E+02  0.45745353279E+02  0.60599091744E+02  0.47000000000E+01 0.  1.
        -11    1    3    3    0    0 -0.52233780060E+02  0.10670168906E+03  0.17906578066E+03  0.21489107015E+03  0.00000000000E+00 0.  1.
         11    1    3    3    0    0 -0.21104320647E+02 -0.12246076549E+02  0.87465906690E+02  0.90805526120E+02  0.00000000000E+00 0. -1.
<mgrwt>
<rscale>  0 0.16088586E+03</rscale>
<asrwt>0</asrwt>
<pdfrwt beam="1">  1        2 0.12830377E+00 0.16479578E+03</pdfrwt>
<pdfrwt beam="2">  1       -2 0.49192388E-02 0.16479578E+03</pdfrwt>
<totfact> 0.65909015E+03</totfact>
</mgrwt>
</event>
<event>
 8    1  0.1273312E-005  0.1557546E+03  0.7546771E-02  0.1201587E+00
          2   -1    0    0  501    0  0.00000000000E+00  0.00000000000E+00  0.24693458955E+03  0.24693458955E+03  0.00000000000E+00 0. -1.
         -2   -1    0    0    0  501 -0.00000000000E+00 -0.00000000000E+00 -0.84433108101E+02  0.84433108101E+02  0.00000000000E+00 0.  1.
         23    2    1    2    0    0 -0.65235796942E+02  0.66117805834E+02  0.53720259455E+02  0.14138648052E+03  0.92070609572E+02 0.  0.
         23    2    1    2    0    0  0.65235796942E+02 -0.66117805834E+02  0.10878122200E+03  0.18998121713E+03  0.12502893726E+03 0.  0.
          5    1    4    4  502    0 -0.26865654883E+02 -0.46489116270E+02  0.69222799175E+02  0.87731905652E+02  0.47000000000E+01 0.  1.
         -5    1    4    4    0  502  0.92101451825E+02 -0.19628689565E+02  0.39558422823E+02  0.10224931148E+03  0.47000000000E+01 0.  1.
        -11    1    3    3    0    0 -0.11554119585E+02  0.70842126968E+02  0.49785457417E+02  0.87353857401E+02  0.00000000000E+00 0.  1.
         11    1    3    3    0    0 -0.53681677356E+02 -0.47243211334E+01  0.39348020379E+01  0.54032623118E+02  0.00000000000E+00 0. -1.
<mgrwt>
<rscale>  0 0.14909697E+03</rscale>
<asrwt>0</asrwt>
<pdfrwt beam="1">  1        2 0.37989936E-01 0.15575464E+03</pdfrwt>
<pdfrwt beam="2">  1       -2 0.12989709E-01 0.15575464E+03</pdfrwt>
<totfact> 0.56555566E+03</totfact>
</mgrwt>
</event>
<event>
 8    1  0.1273312E-005  0.1416600E+03  0.7546771E-02  0.1222011E+00
         -1   -1    0    0    0  501 -0.00000000000E+00  0.00000000000E+00  0.10026767128E+03  0.10026767128E+03  0.00000000000E+00 0.  1.
          1   -1    0    0  501    0  0.00000000000E+00 -0.00000000000E+00 -0.17940471388E+03  0.17940471388E+03  0.00000000000E+00 0. -1.
         23    2    1    2    0    0 -0.27465415374E+02 -0.60723203604E+02  0.88970808777E+01  0.11288640773E+03  0.90678147888E+02 0.  0.
         23    2    1    2    0    0  0.27465415374E+02  0.60723203604E+02 -0.88034123473E+02  0.16678597743E+03  0.12500359544E+03 0.  0.
          5    1    4    4  502    0 -0.79074843433E+01 -0.36645172461E+02 -0.27245987013E+02  0.46581442460E+02  0.47000000000E+01 0. -1.
         -5    1    4    4    0  502  0.35372899718E+02  0.97368376065E+02 -0.60788136460E+02  0.12020453497E+03  0.47000000000E+01 0. -1.
        -11    1    3    3    0    0  0.29113338037E+02 -0.45289584106E+02  0.25882283920E+01  0.53902057534E+02  0.00000000000E+00 0. -1.
         11    1    3    3    0    0 -0.56578753411E+02 -0.15433619498E+02  0.63088524857E+01  0.58984350196E+02  0.00000000000E+00 0.  1.
<mgrwt>
<rscale>  0 0.13373885E+03</rscale>
<asrwt>0</asrwt>
<pdfrwt beam="2">  1        1 0.27600725E-01 0.14166000E+03</pdfrwt>
<pdfrwt beam="1">  1       -1 0.15425796E-01 0.14166000E+03</pdfrwt>
<totfact> 0.49635133E+03</totfact>
</mgrwt>
</event>
<event>
 7    1  0.1273312E-005  0.1568198E+03  0.7546771E-02  0.1210340E+00
         -2   -1    0    0    0  501 -0.00000000000E+00  0.00000000000E+00  0.51115337641E+02  0.51115337641E+02  0.00000000000E+00 0.  1.
          2   -1    0    0  501    0  0.00000000000E+00 -0.00000000000E+00 -0.41928479790E+03  0.41928479790E+03  0.00000000000E+00 0. -1.
         23    2    1    2    0    0  0.40023295448E+02  0.40731394148E+02 -0.53624285226E+02  0.11893018773E+03  0.89486954024E+02 0.  0.
          5    1    1    2  502    0  0.16308730548E+02 -0.28908679123E+02 -0.28431673550E+03  0.28628618986E+03  0.47000000000E+01 0. -1.
         -5    1    1    2    0  502 -0.56332025996E+02 -0.11822715026E+02 -0.30228439535E+02  0.65183757947E+02  0.47000000000E+01 0.  1.
        -11    1    3    3    0    0  0.17214985825E+02 -0.16803658821E+01 -0.66801173505E+02  0.69004174860E+02  0.00000000000E+00 0. -1.
         11    1    3    3    0    0  0.22808309623E+02  0.42411760030E+02  0.13176888279E+02  0.49926012873E+02  0.00000000000E+00 0.  1.
<mgrwt>
<rscale>  0 0.14224452E+03</rscale>
<asrwt>0</asrwt>
<pdfrwt beam="2">  1        2 0.64505352E-01 0.15681982E+03</pdfrwt>
<pdfrwt beam="1">  1       -2 0.78638982E-02 0.15681982E+03</pdfrwt>
<totfact> 0.71000564E+03</totfact>
</mgrwt>
</event>
<event>
 8    1  0.1273312E-005  0.1341925E+03  0.7546771E-02  0.1233531E+00
          3   -1    0    0  501    0  0.00000000000E+00  0.00000000000E+00  0.10402872443E+03  0.10402872443E+03  0.00000000000E+00 0. -1.
         -3   -1    0    0    0  501 -0.00000000000E+00 -0.00000000000E+00 -0.16972593649E+03  0.16972593649E+03  0.00000000000E+00 0.  1.
         23    2    1    2    0    0  0.33430430467E+02  0.35565450254E+02 -0.89567273447E+02  0.13745573893E+03  0.92137336402E+02 0.  0.
         23    2    1    2    0    0 -0.33430430467E+02 -0.35565450254E+02  0.23870061388E+02  0.13629892200E+03  0.12500048549E+03 0.  0.
          5    1    4    4  502    0  0.24425725346E+02  0.27102939034E+02  0.34233611484E+02  0.50251522546E+02  0.47000000000E+01 0. -1.
         -5    1    4    4    0  502 -0.57856155813E+02 -0.62668389288E+02 -0.10363550097E+02  0.86047399449E+02  0.47000000000E+01 0. -1.
        -11    1    3    3    0    0 -0.11983722375E+02  0.50101908996E+02 -0.67502991965E+02  0.84914455844E+02  0.00000000000E+00 0.  1.
         11    1    3    3    0    0  0.45414152842E+02 -0.14536458742E+02 -0.22064281481E+02  0.52541283086E+02  0.00000000000E+00 0. -1.
<mgrwt>
<rscale>  0 0.12598931E+03</rscale>
<asrwt>0</asrwt>
<pdfrwt beam="1">  1        3 0.16004419E-01 0.13419246E+03</pdfrwt>
<pdfrwt beam="2">  1       -3 0.26111682E-01 0.13419246E+03</pdfrwt>
<totfact> 0.10592984E+03</totfact>
</mgrwt>
</event>
<event>
 7    1  0.1273312E-005  0.1311224E+03  0.7546771E-02  0.1241714E+00
         -2   -1    0    0    0  501 -0.00000000000E+00  0.00000000000E+00  0.12188407706E+03  0.12188407706E+03  0.00000000000E+00 0.  1.
          2   -1    0    0  501    0  0.00000000000E+00 -0.00000000000E+00 -0.17603104990E+03  0.17603104990E+03  0.00000000000E+00 0. -1.
         23    2    1    2    0    0  0.20320467371E+02  0.98049260743E+01  0.69742550202E+02  0.11752197840E+03  0.91860405667E+02 0.  0.
          5    1    1    2  502    0 -0.37270465628E+02  0.49660841993E+02 -0.90812775274E+02  0.11011056711E+03  0.47000000000E+01 0. -1.
         -5    1    1    2    0  502  0.16949998257E+02 -0.59465768067E+02 -0.33076747770E+02  0.70282581454E+02  0.47000000000E+01 0.  1.
        -11    1    3    3    0    0 -0.35047316276E+02  0.76408705996E+01  0.42996288271E+02  0.55994446927E+02  0.00000000000E+00 0. -1.
         11    1    3    3    0    0  0.55367783647E+02  0.21640554747E+01  0.26746261932E+02  0.61527531475E+02  0.00000000000E+00 0.  1.
<mgrwt>
<rscale>  0 0.12084248E+03</rscale>
<asrwt>0</asrwt>
<pdfrwt beam="2">  1        2 0.27081700E-01 0.13112236E+03</pdfrwt>
<pdfrwt beam="1">  1       -2 0.18751397E-01 0.13112236E+03</pdfrwt>
<totfact> 0.44125651E+03</totfact>
</mgrwt>
</event>
<event>
 8    1  0.1273312E-005  0.3564901E+03  0.7546771E-02  0.1060889E+00
         -1   -1    0    0    0  501 -0.00000000000E+00  0.00000000000E+00  0.60658435297E+02  0.60658435297E+02  0.00000000000E+00 0.  1.
          1   -1    0    0  501    0  0.00000000000E+00 -0.00000000000E+00 -0.20876313376E+04  0.20876313376E+04  0.00000000000E+00 0. -1.
         23    2    1    2    0    0  0.18104749761E+03  0.28050398834E+03 -0.84380659160E+03  0.91258443363E+03  0.96644195954E+02 0.  0.
         23    2    1    2    0    0 -0.18104749761E+03 -0.28050398834E+03 -0.11831663107E+04  0.12357053392E+04  0.12499793132E+03 0.  0.
          5    1    4    4  502    0 -0.20310780124E+02 -0.10618592669E+03 -0.24154811276E+03  0.26468010804E+03  0.47000000000E+01 0.  1.
         -5    1    4    4    0  502 -0.16073671748E+03 -0.17431806165E+03 -0.94161819790E+03  0.97102523118E+03  0.47000000000E+01 0.  1.
        -11    1    3    3    0    0  0.10150508571E+03  0.19406521887E+03 -0.65057658251E+03  0.68645064011E+03  0.00000000000E+00 0. -1.
         11    1    3    3    0    0  0.79542411899E+02  0.86438769470E+02 -0.19323000910E+03  0.22613379352E+03  0.00000000000E+00 0.  1.
<mgrwt>
<rscale>  0 0.35423730E+03</rscale>
<asrwt>0</asrwt>
<pdfrwt beam="2">  1        1 0.32117407E+00 0.35649007E+03</pdfrwt>
<pdfrwt beam="1">  1       -1 0.93320665E-02 0.35649007E+03</pdfrwt>
<totfact> 0.19776778E+02</totfact>
</mgrwt>
</event>
<event>
 7    1  0.2531708E-005  0.1308727E+03  0.7546771E-02  0.1259117E+00
          2   -1    0    0  501    0  0.00000000000E+00  0.00000000000E+00  0.23426295186E+04  0.23426295186E+04  0.00000000000E+00 0. -1.
         -2   -1    0    0    0  501 -0.00000000000E+00 -0.00000000000E+00 -0.66038868769E+01  0.66038868769E+01  0.00000000000E+00 0.  1.
         23    2    1    2    0    0 -0.75503386052E+01  0.64338852014E+02  0.20929431984E+04  0.20970309734E+04  0.11371532880E+03 0.  0.
          5    1    3    3  502    0 -0.46616980338E+01  0.62782860995E+02  0.20892688464E+04  0.20902224335E+04  0.47000000000E+01 0. -1.
         -5    1    3    3    0  502 -0.28886405714E+01  0.15559910186E+01  0.36743520516E+01  0.68085398875E+01  0.47000000000E+01 0.  1.
        -11    1    1    2    0    0  0.86480376415E+01 -0.21901043410E+02  0.65109565134E+02  0.69236549087E+02  0.00000000000E+00 0. -1.
         11    1    1    2    0    0 -0.10976990364E+01 -0.42437808603E+02  0.17797286820E+03  0.18296588304E+03  0.00000000000E+00 0.  1.
<mgrwt>
<rscale>  0 0.11078810E+03</rscale>
<asrwt>0</asrwt>
<pdfrwt beam="1">  1        2 0.36040388E+00 0.13087273E+03</pdfrwt>
<pdfrwt beam="2">  1       -2 0.10159845E-02 0.13087273E+03</pdfrwt>
<totfact> 0.10038446E+04</totfact>
</mgrwt>
</event>
<event>
 8    1  0.1273312E-005  0.1574292E+03  0.7546771E-02  0.1199551E+00
          4   -1    0    0  501    0  0.00000000000E+00  0.00000000000E+00  0.97191594912E+02  0.97191594912E+02  0.00000000000E+00 0. -1.
         -4   -1    0    0    0  501 -0.00000000000E+00 -0.00000000000E+00 -0.33942282885E+03  0.33942282885E+03  0.00000000000E+00 0.  1.
         23    2    1    2    0    0 -0.93537842043E+01  0.95250993653E+02 -0.24576216899E+03  0.27914563420E+03  0.91449419433E+02 0.  0.
         23    2    1    2    0    0  0.93537842043E+01 -0.95250993653E+02  0.35309350546E+01  0.15746878956E+03  0.12499482834E+03 0.  0.
          5    1    4    4  502    0 -0.45670844019E+01 -0.10756215921E+03  0.41066870986E+02  0.11532152552E+03  0.47000000000E+01 0. -1.
         -5    1    4    4    0  502  0.13920868606E+02  0.12311165561E+02 -0.37535935931E+02  0.42147264045E+02  0.47000000000E+01 0. -1.
        -11    1    3    3    0    0 -0.49201707235E+02  0.36262812522E+02 -0.10908000225E+03  0.12503698036E+03  0.00000000000E+00 0.  1.
         11    1    3    3    0    0  0.39847923031E+02  0.58988181131E+02 -0.13668216674E+03  0.15410865384E+03  0.00000000000E+00 0. -1.
<mgrwt>
<rscale>  0 0.15075293E+03</rscale>
<asrwt>0</asrwt>
<pdfrwt beam="1">  1        4 0.14952553E-01 0.15742920E+03</pdfrwt>
<pdfrwt beam="2">  1       -4 0.52218897E-01 0.15742920E+03</pdfrwt>
<totfact> 0.23013783E+02</totfact>
</mgrwt>
</event>
<event>
 8    1  0.1273312E-005  0.1379334E+03  0.7546771E-02  0.1226863E+00
          2   -1    0    0  501    0  0.00000000000E+00  0.00000000000E+00  0.42895036467E+03  0.42895036467E+03  0.00000000000E+00 0.  1.
         -2   -1    0    0    0  501 -0.00000000000E+00 -0.00000000000E+00 -0.48500176653E+02  0.48500176653E+02  0.00000000000E+00 0. -1.
         23    2    1    2    0    0 -0.35726225392E+02 -0.46088741811E+02  0.53267106266E+02  0.12238099435E+03  0.93483623518E+02 0.  0.
         23    2    1    2    0    0  0.35726225392E+02  0.46088741811E+02  0.32718308175E+03  0.35506954697E+03  0.12500031560E+03 0.  0.
          5    1    4    4  502    0 -0.10458022552E+02  0.42989500117E+02  0.29538102311E+03  0.29871308335E+03  0.47000000000E+01 0.  1.
         -5    1    4    4    0  502  0.46184247944E+02  0.30992416948E+01  0.31802058643E+02  0.56356463615E+02  0.47000000000E+01 0.  1.
        -11    1    3    3    0    0 -0.65573784582E+01  0.26311490528E+02  0.31053672513E+02  0.41226500247E+02  0.00000000000E+00 0.  1.
         11    1    3    3    0    0 -0.29168846934E+02 -0.72400232340E+02  0.22213433753E+02  0.81154494105E+02  0.00000000000E+00 0. -1.
<mgrwt>
<rscale>  0 0.13040015E+03</rscale>
<asrwt>0</asrwt>
<pdfrwt beam="1">  1        2 0.65992361E-01 0.13793337E+03</pdfrwt>
<pdfrwt beam="2">  1       -2 0.74615659E-02 0.13793337E+03</pdfrwt>
<totfact> 0.74536188E+03</totfact>
</mgrwt>
</event>
<event>
 8    1  0.1273312E-005  0.1884918E+03  0.7546771E-02  0.1164838E+00
          2   -1    0    0  501    0  0.00000000000E+00  0.00000000000E+00  0.12758225339E+04  0.12758225339E+04  0.00000000000E+00 0. -1.
         -2   -1    0    0    0  501 -0.00000000000E+00 -0.00000000000E+00 -0.26966876386E+02  0.26966876386E+02  0.00000000000E+00 0.  1.
         23    2    1    2    0    0 -0.71330613081E+02  0.12171865159E+03  0.41001446604E+03  0.44303148358E+03  0.90893050175E+02 0.  0.
         23    2    1    2    0    0  0.71330613081E+02 -0.12171865159E+03  0.83884119144E+03  0.85975792668E+03  0.12500264606E+03 0.  0.
          5    1    4    4  502    0 -0.13474808586E+02 -0.94148700353E+02  0.52004350098E+03  0.52868977781E+03  0.47000000000E+01 0. -1.
         -5    1    4    4    0  502  0.84805421667E+02 -0.27569951232E+02  0.31879769046E+03  0.33106814887E+03  0.47000000000E+01 0. -1.
        -11    1    3    3    0    0 -0.62692950162E+02  0.38190402367E+02  0.26966759841E+03  0.27948081592E+03  0.00000000000E+00 0. -1.
         11    1    3    3    0    0 -0.86376629187E+01  0.83528249218E+02  0.14034686764E+03  0.16355066766E+03  0.00000000000E+00 0.  1.
<mgrwt>
<rscale>  0 0.18309778E+03</rscale>
<asrwt>0</asrwt>
<pdfrwt beam="1">  1        2 0.19628034E+00 0.18849177E+03</pdfrwt>
<pdfrwt beam="2">  1       -2 0.41487512E-02 0.18849177E+03</pdfrwt>
<totfact> 0.46684271E+03</totfact>
</mgrwt>
</event>
<event>
 8    1  0.1273312E-005  0.1492647E+03  0.7546771E-02  0.1210397E+00
          1   -1    0    0  501    0  0.00000000000E+00  0.00000000000E+00  0.19062283633E+03  0.19062283633E+03  0.00000000000E+00 0. -1.
         -1   -1    0    0    0  501 -0.00000000000E+00 -0.00000000000E+00 -0.98991088341E+02  0.98991088341E+02  0.00000000000E+00 0.  1.
         23    2    1    2    0    0 -0.79781276052E+02 -0.17006349432E+02  0.60935501095E+02  0.13722552468E+03  0.91996964081E+02 0.  0.
         23    2    1    2    0    0  0.79781276052E+02  0.17006349432E+02  0.30696246893E+02  0.15238839999E+03  0.12500278777E+03 0.  0.
          5    1    4    4  502    0 -0.32984520522E+02  0.14041130460E+02  0.10904536570E+02  0.37764147766E+02  0.47000000000E+01 0. -1.
         -5    1    4    4    0  502  0.11276579657E+03  0.29652189720E+01  0.19791710322E+02  0.11462425223E+03  0.47000000000E+01 0. -1.
        -11    1    3    3    0    0  0.17052123899E+02  0.83713639589E+01  0.23809804478E+02  0.30459176832E+02  0.00000000000E+00 0. -1.
         11    1    3    3    0    0 -0.96833399952E+02 -0.25377713391E+02  0.37125696617E+02  0.10676634785E+03  0.00000000000E+00 0.  1.
<mgrwt>
<rscale>  0 0.14220134E+03</rscale>
<asrwt>0</asrwt>
<pdfrwt beam="1">  1        1 0.29326590E-01 0.14926475E+03</pdfrwt>
<pdfrwt beam="2">  1       -1 0.15229398E-01 0.14926475E+03</pdfrwt>
<totfact> 0.47093405E+03</totfact>
</mgrwt>
</event>
<event>
 8    1  0.1273312E-005  0.1263886E+03  0.7546771E-02  0.1247178E+00
          1   -1    0    0  501    0  0.00000000000E+00  0.00000000000E+00  0.13232386755E+04  0.13232386755E+04  0.00000000000E+00 0. -1.
         -1   -1    0    0    0  501 -0.00000000000E+00 -0.00000000000E+00 -0.19895245502E+02  0.19895245502E+02  0.00000000000E+00 0.  1.
         23    2    1    2    0    0  0.18468830256E+02  0.29138100554E+01  0.11879744131E+03  0.15186430869E+03  0.92738062369E+02 0.  0.
         23    2    1    2    0    0 -0.18468830256E+02 -0.29138100554E+01  0.11845459886E+04  0.11912696123E+04  0.12499800766E+03 0.  0.
          5    1    4    4  502    0  0.16126531365E+02  0.10668480772E+02  0.29311623149E+02  0.35427993840E+02  0.47000000000E+01 0.  1.
         -5    1    4    4    0  502 -0.34595361621E+02 -0.13582290828E+02  0.11552343655E+04  0.11558416184E+04  0.47000000000E+01 0.  1.
        -11    1    3    3    0    0  0.24554710514E+02 -0.35501796602E+02  0.23980473961E+02  0.49379899776E+02  0.00000000000E+00 0.  1.
         11    1    3    3    0    0 -0.60858802585E+01  0.38415606658E+02  0.94816967346E+02  0.10248440891E+03  0.00000000000E+00 0. -1.
<mgrwt>
<rscale>  0 0.11755972E+03</rscale>
<asrwt>0</asrwt>
<pdfrwt beam="1">  1        1 0.20357511E+00 0.12638865E+03</pdfrwt>
<pdfrwt beam="2">  1       -1 0.30608080E-02 0.12638865E+03</pdfrwt>
<totfact> 0.33971635E+03</totfact>
</mgrwt>
</event>
<event>
 8    1  0.1273312E-005  0.1735681E+03  0.7546771E-02  0.1180749E+00
          1   -1    0    0  501    0  0.00000000000E+00  0.00000000000E+00  0.13800704270E+04  0.13800704270E+04  0.00000000000E+00 0. -1.
         -1   -1    0    0    0  501 -0.00000000000E+00 -0.00000000000E+00 -0.25381675653E+02  0.25381675653E+02  0.00000000000E+00 0.  1.
         23    2    1    2    0    0  0.90427123433E+02 -0.79575299891E+02  0.28617862744E+03  0.32293662652E+03  0.88772546095E+02 0.  0.
         23    2    1    2    0    0 -0.90427123433E+02  0.79575299891E+02  0.10685101239E+04  0.10825154761E+04  0.12496630814E+03 0.  0.
          5    1    4    4  502    0 -0.71929149546E+02 -0.17244378765E+02  0.40860376167E+03  0.41527135130E+03  0.47000000000E+01 0.  1.
         -5    1    4    4    0  502 -0.18497973887E+02  0.96819678656E+02  0.65990636220E+03  0.66724412480E+03  0.47000000000E+01 0.  1.
        -11    1    3    3    0    0  0.19875691688E+02 -0.24979126110E+02  0.11168234428E+02  0.33819067425E+02  0.00000000000E+00 0.  1.
         11    1    3    3    0    0  0.70551431745E+02 -0.54596173782E+02  0.27501039301E+03  0.28911755910E+03  0.00000000000E+00 0. -1.
<mgrwt>
<rscale>  0 0.16724717E+03</rscale>
<asrwt>0</asrwt>
<pdfrwt beam="1">  1        1 0.21231847E+00 0.17356806E+03</pdfrwt>
<pdfrwt beam="2">  1       -1 0.39048743E-02 0.17356806E+03</pdfrwt>
<totfact> 0.21904865E+03</totfact>
</mgrwt>
</event>
<event>
 8    1  0.1273312E-005  0.1268531E+03  0.7546771E-02  0.1247889E+00
         -2   -1    0    0    0  501 -0.00000000000E+00  0.00000000000E+00  0.54378509230E+03  0.54378509230E+03  0.00000000000E+00 0.  1.
          2   -1    0    0  501    0  0.00000000000E+00 -0.00000000000E+00 -0.22408570885E+02  0.22408570885E+02  0.00000000000E+00 0. -1.
         23    2    1    2    0    0 -0.82318974802E+01 -0.19975513129E+02  0.18571508181E+03  0.20736179936E+03  0.89677416105E+02 0.  0.
         23    2    1    2    0    0  0.82318974802E+01  0.19975513129E+02  0.33566143960E+03  0.35883186383E+03  0.12499967680E+03 0.  0.
          5    1    4    4  502    0 -0.17150193919E+02 -0.49023735759E+02  0.16212065715E+03  0.17030165382E+03  0.47000000000E+01 0.  1.
         -5    1    4    4    0  502  0.25382091400E+02  0.68999248888E+02  0.17354078245E+03  0.18853021000E+03  0.47000000000E+01 0.  1.
        -11    1    3    3    0    0 -0.42370805042E+01 -0.51229743807E+02  0.66491745225E+02  0.84045176451E+02  0.00000000000E+00 0. -1.
         11    1    3    3    0    0 -0.39948169759E+01  0.31254230678E+02  0.11922333659E+03  0.12331662291E+03  0.00000000000E+00 0.  1.
<mgrwt>
<rscale>  0 0.11714114E+03</rscale>
<asrwt>0</asrwt>
<pdfrwt beam="2">  1        2 0.34474728E-02 0.12685308E+03</pdfrwt>
<pdfrwt beam="1">  1       -2 0.83659235E-01 0.12685308E+03</pdfrwt>
<totfact> 0.31683299E+03</totfact>
</mgrwt>
</event>
<event>
 8    1  0.1273312E-005  0.1259362E+03  0.7546771E-02  0.1248955E+00
         -2   -1    0    0    0  501 -0.00000000000E+00  0.00000000000E+00  0.30019611652E+02  0.30019611652E+02  0.00000000000E+00 0.  1.
          2   -1    0    0  501    0  0.00000000000E+00 -0.00000000000E+00 -0.40687034519E+03  0.40687034519E+03  0.00000000000E+00 0. -1.
         23    2    1    2    0    0 -0.15258520071E+02 -0.10016379620E+01 -0.12574556786E+03  0.15597406335E+03  0.91006235434E+02 0.  0.
         23    2    1    2    0    0  0.15258520071E+02  0.10016379620E+01 -0.25110516568E+03  0.28091589349E+03  0.12500443701E+03 0.  0.
          5    1    4    4  502    0  0.66417023996E+02  0.10242331244E+02 -0.18369887197E+03  0.19566167737E+03  0.47000000000E+01 0. -1.
         -5    1    4    4    0  502 -0.51158503925E+02 -0.92406932822E+01 -0.67406293703E+02  0.85254216124E+02  0.47000000000E+01 0. -1.
        -11    1    3    3    0    0 -0.45696605536E+02 -0.22792717146E+02 -0.49923784321E+02  0.71414788058E+02  0.00000000000E+00 0.  1.
         11    1    3    3    0    0  0.30438085465E+02  0.21791079184E+02 -0.75821783539E+02  0.84559275292E+02  0.00000000000E+00 0. -1.
<mgrwt>
<rscale>  0 0.11651779E+03</rscale>
<asrwt>0</asrwt>
<pdfrwt beam="2">  1        2 0.62595435E-01 0.12593623E+03</pdfrwt>
<pdfrwt beam="1">  1       -2 0.46184020E-02 0.12593623E+03</pdfrwt>
<totfact> 0.16196455E+04</totfact>
</mgrwt>
</event>
<event>
 8    1  0.1273312E-005  0.1467669E+03  0.7546771E-02  0.1214672E+00
          4   -1    0    0  501    0  0.00000000000E+00  0.00000000000E+00  0.20370013514E+03  0.20370013514E+03  0.00000000000E+00 0. -1.
         -4   -1    0    0    0  501 -0.00000000000E+00 -0.00000000000E+00 -0.94272123003E+02  0.94272123003E+02  0.00000000000E+00 0.  1.
         23    2    1    2    0    0  0.46443141878E+02  0.61309775180E+02  0.56780867436E+01  0.11823752525E+03  0.89621525029E+02 0.  0.
         23    2    1    2    0    0 -0.46443141878E+02 -0.61309775180E+02  0.10374992539E+03  0.17973473289E+03  0.12499869291E+03 0.  0.
          5    1    4    4  502    0  0.13753325110E+02 -0.80753689124E+02  0.70156691882E+02  0.10795537816E+03  0.47000000000E+01 0.  1.
         -5    1    4    4    0  502 -0.60196466989E+02  0.19443913944E+02  0.33593233512E+02  0.71779354728E+02  0.47000000000E+01 0.  1.
        -11    1    3    3    0    0  0.66285263327E+02  0.22571670128E+02 -0.12392538040E+02  0.71111120268E+02  0.00000000000E+00 0.  1.
         11    1    3    3    0    0 -0.19842121449E+02  0.38738105053E+02  0.18070624784E+02  0.47126404984E+02  0.00000000000E+00 0. -1.
<mgrwt>
<rscale>  0 0.13900634E+03</rscale>
<asrwt>0</asrwt>
<pdfrwt beam="1">  1        4 0.31338482E-01 0.14676691E+03</pdfrwt>
<pdfrwt beam="2">  1       -4 0.14503404E-01 0.14676691E+03</pdfrwt>
<totfact> 0.65772393E+02</totfact>
</mgrwt>
</event>
<event>
 7    1  0.1273312E-005  0.2341846E+03  0.7546771E-02  0.1131273E+00
         -1   -1    0    0    0  501 -0.00000000000E+00  0.00000000000E+00  0.78473321127E+02  0.78473321127E+02  0.00000000000E+00 0.  1.
          1   -1    0    0  501    0  0.00000000000E+00 -0.00000000000E+00 -0.91354778398E+03  0.91354778398E+03  0.00000000000E+00 0. -1.
         23    2    1    2    0    0 -0.99809584390E+02  0.13957408157E+03 -0.96179358257E+02  0.21690278403E+03  0.91397327004E+02 0.  0.
          5    1    1    2  502    0  0.92504701951E+02 -0.17350073268E+03 -0.66252355190E+03  0.69109997174E+03  0.47000000000E+01 0. -1.
         -5    1    1    2    0  502  0.73048824385E+01  0.33926651105E+02 -0.76371552699E+02  0.84018349331E+02  0.47000000000E+01 0.  1.
        -11    1    3    3    0    0 -0.11587676646E+03  0.12469516908E+03 -0.73617444892E+02  0.18546115062E+03  0.00000000000E+00 0.  1.
         11    1    3    3    0    0  0.16067182075E+02  0.14878912494E+02 -0.22561913364E+02  0.31441633410E+02  0.00000000000E+00 0. -1.
<mgrwt>
<rscale>  0 0.22353730E+03</rscale>
<asrwt>0</asrwt>
<pdfrwt beam="2">  1        1 0.14054581E+00 0.23418462E+03</pdfrwt>
<pdfrwt beam="1">  1       -1 0.12072819E-01 0.23418462E+03</pdfrwt>
<totfact> 0.84882036E+02</totfact>
</mgrwt>
</event>
<event>
 7    1  0.1273312E-005  0.3434659E+03  0.7546771E-02  0.1065329E+00
          2   -1    0    0  501    0  0.00000000000E+00  0.00000000000E+00  0.17945913464E+03  0.17945913464E+03  0.00000000000E+00 0. -1.
         -2   -1    0    0    0  501 -0.00000000000E+00 -0.00000000000E+00 -0.16433936028E+03  0.16433936028E+03  0.00000000000E+00 0.  1.
         23    2    1    2    0    0 -0.54104370782E+02  0.12877059652E+02 -0.42742256228E+02  0.12349405584E+03  0.10164044351E+03 0.  0.
          5    1    1    2  502    0  0.77658446774E+02  0.30487727072E+01  0.12498690275E+03  0.14725469510E+03  0.47000000000E+01 0. -1.
         -5    1    1    2    0  502 -0.23554075991E+02 -0.15925832360E+02 -0.67124872163E+02  0.73049743977E+02  0.47000000000E+01 0.  1.
        -11    1    3    3    0    0  0.10947868605E+02 -0.22271861743E+02 -0.42890787492E+02  0.49553115988E+02  0.00000000000E+00 0.  1.
         11    1    3    3    0    0 -0.65052239387E+02  0.35148921395E+02  0.14853126418E+00  0.73940939851E+02  0.00000000000E+00 0. -1.
<mgrwt>
<rscale>  0 0.34346586E+03</rscale>
<asrwt>0</asrwt>
<pdfrwt beam="1">  1        2 0.27609098E-01 0.34346586E+03</pdfrwt>
<pdfrwt beam="2">  1       -2 0.25282978E-01 0.34346586E+03</pdfrwt>
<totfact> 0.26900941E+03</totfact>
</mgrwt>
</event>
<event>
 8    1  0.1273312E-005  0.1266634E+03  0.7546771E-02  0.1247232E+00
         -1   -1    0    0    0  501 -0.00000000000E+00  0.00000000000E+00  0.19057036795E+02  0.19057036795E+02  0.00000000000E+00 0.  1.
          1   -1    0    0  501    0  0.00000000000E+00 -0.00000000000E+00 -0.64990270098E+03  0.64990270098E+03  0.00000000000E+00 0. -1.
         23    2    1    2    0    0  0.13159160151E+02  0.15675839582E+02 -0.22486106558E+03  0.24367499747E+03  0.91630290503E+02 0.  0.
         23    2    1    2    0    0 -0.13159160151E+02 -0.15675839582E+02 -0.40598459861E+03  0.42528474031E+03  0.12499888234E+03 0.  0.
          5    1    4    4  502    0  0.64806595638E+01 -0.31139079000E+02 -0.39701506406E+03  0.39831481554E+03  0.47000000000E+01 0.  1.
         -5    1    4    4    0  502 -0.19639819715E+02  0.15463239419E+02 -0.89695345495E+01  0.26969924764E+02  0.47000000000E+01 0.  1.
        -11    1    3    3    0    0 -0.33877273731E+02  0.18906937638E+02 -0.54420117682E+02  0.66833308872E+02  0.00000000000E+00 0.  1.
         11    1    3    3    0    0  0.47036433883E+02 -0.32310980558E+01 -0.17044094790E+03  0.17684168860E+03  0.00000000000E+00 0. -1.
<mgrwt>
<rscale>  0 0.11752795E+03</rscale>
<asrwt>0</asrwt>
<pdfrwt beam="2">  1        1 0.99985021E-01 0.12666340E+03</pdfrwt>
<pdfrwt beam="1">  1       -1 0.29318521E-02 0.12666340E+03</pdfrwt>
<totfact> 0.11635780E+04</totfact>
</mgrwt>
</event>
<event>
 8    1  0.1273312E-005  0.1789800E+03  0.7546771E-02  0.1174949E+00
         -2   -1    0    0    0  501 -0.00000000000E+00  0.00000000000E+00  0.17113083827E+03  0.17113083827E+03  0.00000000000E+00 0.  1.
          2   -1    0    0  501    0  0.00000000000E+00 -0.00000000000E+00 -0.20163435116E+03  0.20163435116E+03  0.00000000000E+00 0. -1.
         23    2    1    2    0    0 -0.93136781634E+02 -0.87945020302E+02  0.66525223145E+02  0.16917634860E+03  0.88239701507E+02 0.  0.
         23    2    1    2    0    0  0.93136781634E+02  0.87945020302E+02 -0.97028736035E+02  0.20358884083E+03  0.12500021522E+03 0.  0.
          5    1    4    4  502    0  0.68447254789E+02  0.31354245923E+02  0.13752488975E+02  0.76676830780E+02  0.47000000000E+01 0. -1.
         -5    1    4    4    0  502  0.24689526845E+02  0.56590774379E+02 -0.11078122501E+03  0.12691201005E+03  0.47000000000E+01 0. -1.
        -11    1    3    3    0    0 -0.36850362268E+02 -0.15783165176E+02  0.66511682160E+02  0.77658620680E+02  0.00000000000E+00 0.  1.
         11    1    3    3    0    0 -0.56286419366E+02 -0.72161855125E+02  0.13540985143E-01  0.91517727919E+02  0.00000000000E+00 0. -1.
<mgrwt>
<rscale>  0 0.17281011E+03</rscale>
<asrwt>0</asrwt>
<pdfrwt beam="2">  1        2 0.31020670E-01 0.17898000E+03</pdfrwt>
<pdfrwt beam="1">  1       -2 0.26327821E-01 0.17898000E+03</pdfrwt>
<totfact> 0.21530500E+03</totfact>
</mgrwt>
</event>
<event>
 8    1  0.1273312E-005  0.1638209E+03  0.7546771E-02  0.1191788E+00
          1   -1    0    0  501    0  0.00000000000E+00  0.00000000000E+00  0.19897644878E+04  0.19897644878E+04  0.00000000000E+00 0. -1.
         -1   -1    0    0    0  501 -0.00000000000E+00 -0.00000000000E+00 -0.12778197024E+02  0.12778197024E+02  0.00000000000E+00 0.  1.
         23    2    1    2    0    0  0.50605063994E+02  0.93024522192E+02  0.60516118961E+03  0.62097061519E+03  0.90388081547E+02 0.  0.
         23    2    1    2    0    0 -0.50605063994E+02 -0.93024522192E+02  0.13718251012E+04  0.13815720697E+04  0.12499136441E+03 0.  0.
          5    1    4    4  502    0 -0.26818251671E+01 -0.10249437819E+03  0.11399112693E+04  0.11445226435E+04  0.47000000000E+01 0.  1.
         -5    1    4    4    0  502 -0.47923238826E+02  0.94698559950E+01  0.23191383193E+03  0.23704942614E+03  0.47000000000E+01 0.  1.
        -11    1    3    3    0    0  0.14889602883E+02  0.10140867827E+03  0.45256657634E+03  0.46402793701E+03  0.00000000000E+00 0.  1.
         11    1    3    3    0    0  0.35715461110E+02 -0.83841560804E+01  0.15259461327E+03  0.15694267818E+03  0.00000000000E+00 0. -1.
<mgrwt>
<rscale>  0 0.15729270E+03</rscale>
<asrwt>0</asrwt>
<pdfrwt beam="1">  1        1 0.30611737E+00 0.16382086E+03</pdfrwt>
<pdfrwt beam="2">  1       -1 0.19658780E-02 0.16382086E+03</pdfrwt>
<totfact> 0.24096566E+03</totfact>
</mgrwt>
</event>
<event>
 8    1  0.1273312E-005  0.1388594E+03  0.7546771E-02  0.1230901E+00
          2   -1    0    0  501    0  0.00000000000E+00  0.00000000000E+00  0.11273528959E+04  0.11273528959E+04  0.00000000000E+00 0. -1.
         -2   -1    0    0    0  501 -0.00000000000E+00 -0.00000000000E+00 -0.30108244256E+02  0.30108244256E+02  0.00000000000E+00 0.  1.
         23    2    1    2    0    0  0.56711704479E+02 -0.21021745135E+02  0.71582013994E+02  0.12244144439E+03  0.78802229560E+02 0.  0.
         23    2    1    2    0    0 -0.56711704479E+02  0.21021745135E+02  0.10256626377E+04  0.10350196958E+04  0.12499517253E+03 0.  0.
          5    1    4    4  502    0 -0.84826110533E+02  0.16827815045E+02  0.95187100947E+03  0.95580288399E+03  0.47000000000E+01 0.  1.
         -5    1    4    4    0  502  0.28114406054E+02  0.41939300898E+01  0.73791628191E+02  0.79216811779E+02  0.47000000000E+01 0.  1.
        -11    1    3    3    0    0  0.46222048799E+02  0.23029712534E+02  0.24642781441E+02  0.57219857845E+02  0.00000000000E+00 0.  1.
         11    1    3    3    0    0  0.10489655680E+02 -0.44051457669E+02  0.46939232552E+02  0.65221586546E+02  0.00000000000E+00 0. -1.
<mgrwt>
<rscale>  0 0.12770550E+03</rscale>
<asrwt>0</asrwt>
<pdfrwt beam="1">  1        2 0.17343887E+00 0.13885937E+03</pdfrwt>
<pdfrwt beam="2">  1       -2 0.46320384E-02 0.13885937E+03</pdfrwt>
<totfact> 0.47492692E+03</totfact>
</mgrwt>
</event>
<event>
 8    1  0.1273312E-005  0.1301202E+03  0.7546771E-02  0.1238189E+00
          1   -1    0    0  501    0  0.00000000000E+00  0.00000000000E+00  0.18482456869E+03  0.18482456869E+03  0.00000000000E+00 0. -1.
         -1   -1    0    0    0  501 -0.00000000000E+00 -0.00000000000E+00 -0.83433811080E+02  0.83433811080E+02  0.00000000000E+00 0.  1.
         23    2    1    2    0    0  0.25407805664E+02 -0.25728491143E+02  0.11149708896E+01  0.10398271865E+03  0.97486669721E+02 0.  0.
         23    2    1    2    0    0 -0.25407805664E+02  0.25728491143E+02  0.10027578672E+03  0.16427566111E+03  0.12499499025E+03 0.  0.
          5    1    4    4  502    0 -0.17875480295E+02  0.34294619034E+02 -0.19707865342E+02  0.43659405021E+02  0.47000000000E+01 0.  1.
         -5    1    4    4    0  502 -0.75323253688E+01 -0.85661278906E+01  0.11998365206E+03  0.12061625609E+03  0.47000000000E+01 0.  1.
        -11    1    3    3    0    0  0.10992304104E+02  0.13241295154E+02 -0.41217463220E+02  0.44665892146E+02  0.00000000000E+00 0.  1.
         11    1    3    3    0    0  0.14415501560E+02 -0.38969786297E+02  0.42332434109E+02  0.59316826507E+02  0.00000000000E+00 0. -1.
<mgrwt>
<rscale>  0 0.12302476E+03</rscale>
<asrwt>0</asrwt>
<pdfrwt beam="1">  1        1 0.28434549E-01 0.13012017E+03</pdfrwt>
<pdfrwt beam="2">  1       -1 0.12835971E-01 0.13012017E+03</pdfrwt>
<totfact> 0.63364042E+03</totfact>
</mgrwt>
</event>
<event>
 8    1  0.1273312E-005  0.1335263E+03  0.7546771E-02  0.1235800E+00
         -2   -1    0    0    0  501 -0.00000000000E+00  0.00000000000E+00  0.62686401304E+02  0.62686401304E+02  0.00000000000E+00 0.  1.
          2   -1    0    0  501    0  0.00000000000E+00 -0.00000000000E+00 -0.23470372636E+03  0.23470372636E+03  0.00000000000E+00 0. -1.
         23    2    1    2    0    0  0.34298173626E+02  0.32049001152E+02 -0.37253312501E+02  0.10767821269E+03  0.89461080961E+02 0.  0.
         23    2    1    2    0    0 -0.34298173626E+02 -0.32049001152E+02 -0.13476401255E+03  0.18971191497E+03  0.12500307362E+03 0.  0.
          5    1    4    4  502    0  0.16856639203E+02  0.26237350297E+02  0.28650854360E+01  0.31667705164E+02  0.47000000000E+01 0. -1.
         -5    1    4    4    0  502 -0.51154812829E+02 -0.58286351449E+02 -0.13762909799E+03  0.15804420981E+03  0.47000000000E+01 0. -1.
        -11    1    3    3    0    0  0.30772484234E+02  0.59813809377E+02 -0.89231701508E+01  0.67854701706E+02  0.00000000000E+00 0.  1.
         11    1    3    3    0    0  0.35256893917E+01 -0.27764808224E+02 -0.28330142350E+02  0.39823510983E+02  0.00000000000E+00 0. -1.
<mgrwt>
<rscale>  0 0.12453351E+03</rscale>
<asrwt>0</asrwt>
<pdfrwt beam="2">  1        2 0.36108266E-01 0.13352630E+03</pdfrwt>
<pdfrwt beam="1">  1       -2 0.96440616E-02 0.13352630E+03</pdfrwt>
<totfact> 0.94873153E+03</totfact>
</mgrwt>
</event>
<event>
 8    1  0.1273312E-005  0.1486839E+03  0.7546771E-02  0.1211749E+00
          4   -1    0    0  501    0  0.00000000000E+00  0.00000000000E+00  0.38837889500E+03  0.38837889500E+03  0.00000000000E+00 0. -1.
         -4   -1    0    0    0  501 -0.00000000000E+00 -0.00000000000E+00 -0.47038861983E+02  0.47038861983E+02  0.00000000000E+00 0.  1.
         23    2    1    2    0    0 -0.78875901533E+02 -0.16172758075E+02  0.13678694845E+03  0.18253660822E+03  0.90144207391E+02 0.  0.
         23    2    1    2    0    0  0.78875901533E+02  0.16172758075E+02  0.20455308456E+03  0.25288114876E+03  0.12499578013E+03 0.  0.
          5    1    4    4  502    0  0.11124277369E+03  0.17267608869E+00  0.14129210605E+03  0.17989033812E+03  0.47000000000E+01 0. -1.
         -5    1    4    4    0  502 -0.32366872156E+02  0.16000081986E+02  0.63260978512E+02  0.72990810648E+02  0.47000000000E+01 0. -1.
        -11    1    3    3    0    0 -0.69015140853E+02  0.21732563977E+02  0.51886068396E+02  0.89036835622E+02  0.00000000000E+00 0.  1.
         11    1    3    3    0    0 -0.98607606801E+01 -0.37905322052E+02  0.84900880058E+02  0.93499772597E+02  0.00000000000E+00 0. -1.
<mgrwt>
<rscale>  0 0.14118071E+03</rscale>
<asrwt>0</asrwt>
<pdfrwt beam="1">  1        4 0.59750597E-01 0.14868393E+03</pdfrwt>
<pdfrwt beam="2">  1       -4 0.72367483E-02 0.14868393E+03</pdfrwt>
<totfact> 0.58931365E+02</totfact>
</mgrwt>
</event>
<event>
 8    1  0.1273312E-005  0.1361987E+03  0.7546771E-02  0.1230431E+00
          2   -1    0    0  501    0  0.00000000000E+00  0.00000000000E+00  0.73420803704E+03  0.73420803704E+03  0.00000000000E+00 0. -1.
         -2   -1    0    0    0  501 -0.00000000000E+00 -0.00000000000E+00 -0.22756417894E+02  0.22756417894E+02  0.00000000000E+00 0.  1.
         23    2    1    2    0    0  0.16990091436E+02 -0.51329982289E+02  0.18684440941E+03  0.21496554463E+03  0.91520062067E+02 0.  0.
         23    2    1    2    0    0 -0.16990091436E+02  0.51329982289E+02  0.52460720973E+03  0.54199891030E+03  0.12500665573E+03 0.  0.
          5    1    4    4  502    0 -0.52841568381E+02  0.24749817145E+02  0.45774262970E+03  0.46147068146E+03  0.47000000000E+01 0. -1.
         -5    1    4    4    0  502  0.35851476945E+02  0.26580165145E+02  0.66864580030E+02  0.80528228845E+02  0.47000000000E+01 0. -1.
        -11    1    3    3    0    0  0.95402634312E+01 -0.77016943469E+02  0.15528565390E+03  0.17359798534E+03  0.00000000000E+00 0.  1.
         11    1    3    3    0    0  0.74498280045E+01  0.25686961180E+02  0.31558755512E+02  0.41367559287E+02  0.00000000000E+00 0. -1.
<mgrwt>
<rscale>  0 0.12801518E+03</rscale>
<asrwt>0</asrwt>
<pdfrwt beam="1">  1        2 0.11295506E+00 0.13619873E+03</pdfrwt>
<pdfrwt beam="2">  1       -2 0.35009879E-02 0.13619873E+03</pdfrwt>
<totfact> 0.12684304E+04</totfact>
</mgrwt>
</event>
<event>
 8    1  0.1273312E-005  0.1550141E+03  0.7546771E-02  0.1201327E+00
          2   -1    0    0  501    0  0.00000000000E+00  0.00000000000E+00  0.49594798637E+03  0.49594798637E+03  0.00000000000E+00 0. -1.
         -2   -1    0    0    0  501 -0.00000000000E+00 -0.00000000000E+00 -0.44160683129E+02  0.44160683129E+02  0.00000000000E+00 0.  1.
         23    2    1    2    0    0  0.78285828875E+02 -0.47710917997E+02  0.14937586741E+03  0.20028218510E+03  0.96926782707E+02 0.  0.
         23    2    1    2    0    0 -0.78285828875E+02  0.47710917997E+02  0.30241143584E+03  0.33982648440E+03  0.12499744108E+03 0.  0.
          5    1    4    4  502    0 -0.74511841770E+02  0.58149878922E+02  0.31096503428E+03  0.32504578989E+03  0.47000000000E+01 0.  1.
         -5    1    4    4    0  502 -0.37739871053E+01 -0.10438960925E+02 -0.85535984430E+01  0.14780694510E+02  0.47000000000E+01 0.  1.
        -11    1    3    3    0    0  0.58534874046E+02 -0.55058799016E+02  0.15819652343E+03  0.17743715184E+03  0.00000000000E+00 0. -1.
         11    1    3    3    0    0  0.19750954829E+02  0.73478810198E+01 -0.88206560172E+01  0.22845033262E+02  0.00000000000E+00 0.  1.
<mgrwt>
<rscale>  0 0.14930703E+03</rscale>
<asrwt>0</asrwt>
<pdfrwt beam="1">  1        2 0.76299686E-01 0.15501407E+03</pdfrwt>
<pdfrwt beam="2">  1       -2 0.67939516E-02 0.15501407E+03</pdfrwt>
<totfact> 0.74016453E+03</totfact>
</mgrwt>
</event>
<event>
 8    1  0.1273312E-005  0.1362299E+03  0.7546771E-02  0.1230028E+00
          2   -1    0    0  501    0  0.00000000000E+00  0.00000000000E+00  0.11463441667E+04  0.11463441667E+04  0.00000000000E+00 0. -1.
         -2   -1    0    0    0  501 -0.00000000000E+00 -0.00000000000E+00 -0.13901326278E+02  0.13901326278E+02  0.00000000000E+00 0.  1.
         23    2    1    2    0    0  0.27706734253E+02  0.46539752190E+02  0.34970464496E+03  0.36574082559E+03  0.92408880200E+02 0.  0.
         23    2    1    2    0    0 -0.27706734253E+02 -0.46539752190E+02  0.78273819545E+03  0.79450466738E+03  0.12499988884E+03 0.  0.
          5    1    4    4  502    0 -0.61600762421E+01  0.75154889895E+01  0.64261985096E+03  0.64271050401E+03  0.47000000000E+01 0. -1.
         -5    1    4    4    0  502 -0.21546658010E+02 -0.54055241180E+02  0.14011834449E+03  0.15179416337E+03  0.47000000000E+01 0. -1.
        -11    1    3    3    0    0 -0.32086513665E+02  0.14230605134E+02  0.75838830456E+02  0.83567832847E+02  0.00000000000E+00 0.  1.
         11    1    3    3    0    0  0.59793247918E+02  0.32309147056E+02  0.27386581451E+03  0.28217299275E+03  0.00000000000E+00 0. -1.
<mgrwt>
<rscale>  0 0.12828149E+03</rscale>
<asrwt>0</asrwt>
<pdfrwt beam="1">  1        2 0.17636057E+00 0.13622989E+03</pdfrwt>
<pdfrwt beam="2">  1       -2 0.21386665E-02 0.13622989E+03</pdfrwt>
<totfact> 0.14458350E+04</totfact>
</mgrwt>
</event>
<event>
 8    1  0.1273312E-005  0.1403777E+03  0.7546771E-02  0.1224512E+00
         -2   -1    0    0    0  501 -0.00000000000E+00  0.00000000000E+00  0.20528264071E+03  0.20528264071E+03  0.00000000000E+00 0.  1.
          2   -1    0    0  501    0  0.00000000000E+00 -0.00000000000E+00 -0.85813784300E+02  0.85813784300E+02  0.00000000000E+00 0. -1.
         23    2    1    2    0    0  0.42287322680E+02 -0.47802728459E+02  0.10163226697E+03  0.14959012240E+03  0.89301559456E+02 0.  0.
         23    2    1    2    0    0 -0.42287322680E+02  0.47802728459E+02  0.17836589439E+02  0.14150630261E+03  0.12503028133E+03 0.  0.
          5    1    4    4  502    0 -0.72876690774E+02  0.27783428303E+02 -0.27720080964E+02  0.82906114582E+02  0.47000000000E+01 0. -1.
         -5    1    4    4    0  502  0.30589368094E+02  0.20019300156E+02  0.45556670403E+02  0.58600188032E+02  0.47000000000E+01 0. -1.
        -11    1    3    3    0    0 -0.55288780248E+01 -0.30206347968E+02 -0.52789187801E+01  0.31158609297E+02  0.00000000000E+00 0. -1.
         11    1    3    3    0    0  0.47816200705E+02 -0.17596380491E+02  0.10691118575E+03  0.11843151310E+03  0.00000000000E+00 0.  1.
<mgrwt>
<rscale>  0 0.13200436E+03</rscale>
<asrwt>0</asrwt>
<pdfrwt beam="2">  1        2 0.13202121E-01 0.14037767E+03</pdfrwt>
<pdfrwt beam="1">  1       -2 0.31581945E-01 0.14037767E+03</pdfrwt>
<totfact> 0.40522023E+03</totfact>
</mgrwt>
</event>
<event>
 7    1  0.1273312E-005  0.1490942E+03  0.7546771E-02  0.1216924E+00
          2   -1    0    0  501    0  0.00000000000E+00  0.00000000000E+00  0.19729032045E+03  0.19729032045E+03  0.00000000000E+00 0. -1.
         -2   -1    0    0    0  501 -0.00000000000E+00 -0.00000000000E+00 -0.83564983212E+02  0.83564983212E+02  0.00000000000E+00 0.  1.
         23    2    1    2    0    0  0.37814133155E+02 -0.44913953709E+02  0.41079762751E+02  0.11500459010E+03  0.89951858970E+02 0.  0.
          5    1    1    2  502    0 -0.40660740559E+02  0.34473809812E+02  0.11234267389E+03  0.12443755769E+03  0.47000000000E+01 0. -1.
         -5    1    1    2    0  502  0.28466074044E+01  0.10440143897E+02 -0.39697099406E+02  0.41413155875E+02  0.47000000000E+01 0.  1.
        -11    1    3    3    0    0  0.51638991310E+02  0.82401688957E+01  0.16509082446E+02  0.54836444178E+02  0.00000000000E+00 0.  1.
         11    1    3    3    0    0 -0.13824858155E+02 -0.53154122605E+02  0.24570680305E+02  0.60168145921E+02  0.00000000000E+00 0. -1.
<mgrwt>
<rscale>  0 0.13736126E+03</rscale>
<asrwt>0</asrwt>
<pdfrwt beam="1">  1        2 0.30352357E-01 0.14909420E+03</pdfrwt>
<pdfrwt beam="2">  1       -2 0.12856151E-01 0.14909420E+03</pdfrwt>
<totfact> 0.73031240E+03</totfact>
</mgrwt>
</event>
<event>
 8    1  0.1273312E-005  0.2477997E+03  0.7546771E-02  0.1117240E+00
          2   -1    0    0  501    0  0.00000000000E+00  0.00000000000E+00  0.19084263015E+03  0.19084263015E+03  0.00000000000E+00 0. -1.
         -2   -1    0    0    0  501 -0.00000000000E+00 -0.00000000000E+00 -0.53402101496E+03  0.53402101496E+03  0.00000000000E+00 0.  1.
         23    2    1    2    0    0 -0.16024455931E+03 -0.14178277717E+03 -0.40724307475E+03  0.46891638494E+03  0.90856917432E+02 0.  0.
         23    2    1    2    0    0  0.16024455931E+03  0.14178277717E+03  0.64064689937E+02  0.25594726016E+03  0.12499616313E+03 0.  0.
          5    1    4    4  502    0  0.16218533251E+03  0.11460430896E+03  0.14478689586E+02  0.19917317130E+03  0.47000000000E+01 0. -1.
         -5    1    4    4    0  502 -0.19407732062E+01  0.27178468217E+02  0.49586000352E+02  0.56774088862E+02  0.47000000000E+01 0. -1.
        -11    1    3    3    0    0 -0.13970574466E+03 -0.94636022467E+02 -0.36589072903E+03  0.40292641689E+03  0.00000000000E+00 0.  1.
         11    1    3    3    0    0 -0.20538814647E+02 -0.47146754708E+02 -0.41352345713E+02  0.65989968045E+02  0.00000000000E+00 0. -1.
<mgrwt>
<rscale>  0 0.24387130E+03</rscale>
<asrwt>0</asrwt>
<pdfrwt beam="1">  1        2 0.29360405E-01 0.24779975E+03</pdfrwt>
<pdfrwt beam="2">  1       -2 0.82157077E-01 0.24779975E+03</pdfrwt>
<totfact> 0.24256054E+02</totfact>
</mgrwt>
</event>
<event>
 8    1  0.1273312E-005  0.1291238E+03  0.7546771E-02  0.1242727E+00
         -1   -1    0    0    0  501 -0.00000000000E+00  0.00000000000E+00  0.48800833179E+02  0.48800833179E+02  0.00000000000E+00 0.  1.
          1   -1    0    0  501    0  0.00000000000E+00 -0.00000000000E+00 -0.28224336822E+03  0.28224336822E+03  0.00000000000E+00 0. -1.
         23    2    1    2    0    0  0.28734161724E+02  0.14908176949E+02 -0.57477842247E+02  0.11278625552E+03  0.91482956303E+02 0.  0.
         23    2    1    2    0    0 -0.28734161724E+02 -0.14908176949E+02 -0.17596469279E+03  0.21825794588E+03  0.12500020817E+03 0.  0.
          5    1    4    4  502    0 -0.50073408909E+02 -0.19789558839E+02 -0.18602136900E+03  0.19371373891E+03  0.47000000000E+01 0.  1.
         -5    1    4    4    0  502  0.21339247185E+02  0.48813818900E+01  0.10056676206E+02  0.24544206972E+02  0.47000000000E+01 0.  1.
        -11    1    3    3    0    0  0.45064813265E+02  0.43861488269E+02 -0.30083185287E+02  0.69711301701E+02  0.00000000000E+00 0.  1.
         11    1    3    3    0    0 -0.16330651541E+02 -0.28953311321E+02 -0.27394656960E+02  0.43074953815E+02  0.00000000000E+00 0. -1.
<mgrwt>
<rscale>  0 0.12022479E+03</rscale>
<asrwt>0</asrwt>
<pdfrwt beam="2">  1        1 0.43422057E-01 0.12912381E+03</pdfrwt>
<pdfrwt beam="1">  1       -1 0.75078204E-02 0.12912381E+03</pdfrwt>
<totfact> 0.84907852E+03</totfact>
</mgrwt>
</event>
<event>
 7    1  0.1273312E-005  0.1780752E+03  0.7546771E-02  0.1185133E+00
         -2   -1    0    0    0  501 -0.00000000000E+00  0.00000000000E+00  0.50004671821E+02  0.50004671821E+02  0.00000000000E+00 0.  1.
          2   -1    0    0  501    0  0.00000000000E+00 -0.00000000000E+00 -0.10598355724E+04  0.10598355724E+04  0.00000000000E+00 0. -1.
         23    2    1    2    0    0  0.85283692717E+02  0.17751932050E+02 -0.52598971199E+02  0.13618539779E+03  0.90506195730E+02 0.  0.
          5    1    1    2  502    0 -0.30057417284E+02  0.10205453828E+02 -0.84328467289E+03  0.84389497520E+03  0.47000000000E+01 0. -1.
         -5    1    1    2    0  502 -0.55226275433E+02 -0.27957385877E+02 -0.11394725652E+03  0.12975987127E+03  0.47000000000E+01 0.  1.
        -11    1    3    3    0    0  0.72050422680E+02  0.50257351709E+02 -0.24423015533E+02  0.91178662509E+02  0.00000000000E+00 0.  1.
         11    1    3    3    0    0  0.13233270037E+02 -0.32505419659E+02 -0.28175955666E+02  0.45006735283E+02  0.00000000000E+00 0. -1.
<mgrwt>
<rscale>  0 0.16319821E+03</rscale>
<asrwt>0</asrwt>
<pdfrwt beam="2">  1        2 0.16305162E+00 0.17807525E+03</pdfrwt>
<pdfrwt beam="1">  1       -2 0.76930267E-02 0.17807525E+03</pdfrwt>
<totfact> 0.24140040E+03</totfact>
</mgrwt>
</event>
<event>
 8    1  0.1273312E-005  0.1293595E+03  0.7546771E-02  0.1240803E+00
          4   -1    0    0  501    0  0.00000000000E+00  0.00000000000E+00  0.33591535069E+02  0.33591535069E+02  0.00000000000E+00 0. -1.
         -4   -1    0    0    0  501 -0.00000000000E+00 -0.00000000000E+00 -0.39701505702E+03  0.39701505702E+03  0.00000000000E+00 0.  1.
         23    2    1    2    0    0 -0.11425109637E+02  0.28686694738E+02 -0.18129918010E+03  0.20721643068E+03  0.95476682258E+02 0.  0.
         23    2    1    2    0    0  0.11425109637E+02 -0.28686694738E+02 -0.18212434186E+03  0.22339016141E+03  0.12562017646E+03 0.  0.
          5    1    4    4  502    0 -0.58263008921E+01 -0.74152586224E+02 -0.14118630864E+03  0.15965029149E+03  0.47000000000E+01 0. -1.
         -5    1    4    4    0  502  0.17251410529E+02  0.45465891485E+02 -0.40938033215E+02  0.63739869919E+02  0.47000000000E+01 0.  1.
        -11    1    3    3    0    0 -0.23041853394E+02  0.58418577086E+02 -0.84433586961E+02  0.10522683956E+03  0.00000000000E+00 0.  1.
         11    1    3    3    0    0  0.11616743756E+02 -0.29731882348E+02 -0.96865593140E+02  0.10198959112E+03  0.00000000000E+00 0. -1.
<mgrwt>
<rscale>  0 0.12140135E+03</rscale>
<asrwt>0</asrwt>
<pdfrwt beam="1">  1        4 0.51679285E-02 0.12935953E+03</pdfrwt>
<pdfrwt beam="2">  1       -4 0.61079239E-01 0.12935953E+03</pdfrwt>
<totfact> 0.94668272E+02</totfact>
</mgrwt>
</event>
<event>
 8    1  0.1273312E-005  0.2229094E+03  0.7546771E-02  0.1134765E+00
          2   -1    0    0  501    0  0.00000000000E+00  0.00000000000E+00  0.32380968835E+03  0.32380968835E+03  0.00000000000E+00 0. -1.
         -2   -1    0    0    0  501 -0.00000000000E+00 -0.00000000000E+00 -0.16827927232E+03  0.16827927232E+03  0.00000000000E+00 0.  1.
         23    2    1    2    0    0  0.29685947446E+02  0.18215574059E+03 -0.20559464306E+02  0.20801814646E+03  0.93738403975E+02 0.  0.
         23    2    1    2    0    0 -0.29685947446E+02 -0.18215574059E+03  0.17608988034E+03  0.28407081421E+03  0.12500644873E+03 0.  0.
          5    1    4    4  502    0 -0.12902495545E+02 -0.13640096313E+03  0.18895430534E+03  0.23344703177E+03  0.47000000000E+01 0. -1.
         -5    1    4    4    0  502 -0.16783451901E+02 -0.45754777465E+02 -0.12864425002E+02  0.50623782446E+02  0.47000000000E+01 0. -1.
        -11    1    3    3    0    0 -0.25488598567E+02  0.32652646189E+02 -0.25390810854E+02  0.48585566127E+02  0.00000000000E+00 0.  1.
         11    1    3    3    0    0  0.55174546013E+02  0.14950309440E+03  0.48313465478E+01  0.15943258034E+03  0.00000000000E+00 0. -1.
<mgrwt>
<rscale>  0 0.21882081E+03</rscale>
<asrwt>0</asrwt>
<pdfrwt beam="1">  1        2 0.49816875E-01 0.22290936E+03</pdfrwt>
<pdfrwt beam="2">  1       -2 0.25889119E-01 0.22290936E+03</pdfrwt>
<totfact> 0.13387079E+03</totfact>
</mgrwt>
</event>
<event>
 8    1  0.1273312E-005  0.1909488E+03  0.7546771E-02  0.1162456E+00
         -2   -1    0    0    0  501 -0.00000000000E+00  0.00000000000E+00  0.77756492134E+02  0.77756492134E+02  0.00000000000E+00 0.  1.
          2   -1    0    0  501    0  0.00000000000E+00 -0.00000000000E+00 -0.56186912534E+03  0.56186912534E+03  0.00000000000E+00 0. -1.
         23    2    1    2    0    0  0.79739049293E+02  0.12033151608E+03 -0.71464952726E+02  0.18493940849E+03  0.90869992852E+02 0.  0.
         23    2    1    2    0    0 -0.79739049293E+02 -0.12033151608E+03 -0.41264768048E+03  0.45468620899E+03  0.12499380262E+03 0.  0.
          5    1    4    4  502    0  0.15872638165E+00 -0.10931180818E+03 -0.21729470660E+03  0.24328620207E+03  0.47000000000E+01 0.  1.
         -5    1    4    4    0  502 -0.79897775674E+02 -0.11019707897E+02 -0.19535297388E+03  0.21140000692E+03  0.47000000000E+01 0.  1.
        -11    1    3    3    0    0  0.30231550497E+02  0.94558339656E+01  0.15810165435E+02  0.35402270725E+02  0.00000000000E+00 0.  1.
         11    1    3    3    0    0  0.49507498796E+02  0.11087568211E+03 -0.87275118161E+02  0.14953713776E+03  0.00000000000E+00 0. -1.
<mgrwt>
<rscale>  0 0.18563746E+03</rscale>
<asrwt>0</asrwt>
<pdfrwt beam="2">  1        2 0.86441407E-01 0.19094879E+03</pdfrwt>
<pdfrwt beam="1">  1       -2 0.11962537E-01 0.19094879E+03</pdfrwt>
<totfact> 0.26748584E+03</totfact>
</mgrwt>
</event>
<event>
 8    1  0.1273312E-005  0.1298735E+03  0.7546771E-02  0.1241796E+00
         -1   -1    0    0    0  501 -0.00000000000E+00  0.00000000000E+00  0.11279333394E+02  0.11279333394E+02  0.00000000000E+00 0.  1.
          1   -1    0    0  501    0  0.00000000000E+00 -0.00000000000E+00 -0.14826355172E+04  0.14826355172E+04  0.00000000000E+00 0. -1.
         23    2    1    2    0    0  0.20584580922E+02  0.28598948907E+02 -0.29924756075E+03  0.31463296880E+03  0.90571395011E+02 0.  0.
         23    2    1    2    0    0 -0.20584580922E+02 -0.28598948907E+02 -0.11721086230E+04  0.11792818817E+04  0.12500203047E+03 0.  0.
          5    1    4    4  502    0 -0.57729498444E+02 -0.20587375537E+02 -0.29492300595E+03  0.30126102380E+03  0.47000000000E+01 0. -1.
         -5    1    4    4    0  502  0.37144917522E+02 -0.80115733700E+01 -0.87718561707E+03  0.87802085795E+03  0.47000000000E+01 0. -1.
        -11    1    3    3    0    0  0.17923515654E+02 -0.31813104496E+02 -0.12256895909E+03  0.12789243826E+03  0.00000000000E+00 0.  1.
         11    1    3    3    0    0  0.26610652679E+01  0.60412053403E+02 -0.17667860166E+03  0.18674053055E+03  0.00000000000E+00 0. -1.
<mgrwt>
<rscale>  0 0.12079239E+03</rscale>
<asrwt>0</asrwt>
<pdfrwt beam="2">  1        1 0.22809769E+00 0.12987352E+03</pdfrwt>
<pdfrwt beam="1">  1       -1 0.17352827E-02 0.12987352E+03</pdfrwt>
<totfact> 0.60693952E+03</totfact>
</mgrwt>
</event>
<event>
 7    1  0.1273312E-005  0.1509351E+03  0.7546771E-02  0.1218213E+00
         -1   -1    0    0    0  501 -0.00000000000E+00  0.00000000000E+00  0.74504356378E+02  0.74504356378E+02  0.00000000000E+00 0.  1.
          1   -1    0    0  501    0  0.00000000000E+00 -0.00000000000E+00 -0.47332032392E+03  0.47332032392E+03  0.00000000000E+00 0. -1.
         23    2    1    2    0    0 -0.29718140883E+02 -0.29241451962E+02  0.19926039373E+02  0.10271089308E+03  0.91729221631E+02 0.  0.
          5    1    1    2  502    0  0.11648364337E+02  0.81751329950E+02 -0.33093154630E+03  0.34111104157E+03  0.47000000000E+01 0. -1.
         -5    1    1    2    0  502  0.18069776546E+02 -0.52509877988E+02 -0.87810460614E+02  0.10400274566E+03  0.47000000000E+01 0.  1.
        -11    1    3    3    0    0 -0.44855765213E+02  0.54607762663E+01 -0.18444582369E+02  0.48806376315E+02  0.00000000000E+00 0.  1.
         11    1    3    3    0    0  0.15137624329E+02 -0.34702228228E+02  0.38370621743E+02  0.53904516761E+02  0.00000000000E+00 0. -1.
<mgrwt>
<rscale>  0 0.13643138E+03</rscale>
<asrwt>0</asrwt>
<pdfrwt beam="2">  1        1 0.72818511E-01 0.15093514E+03</pdfrwt>
<pdfrwt beam="1">  1       -1 0.11462209E-01 0.15093514E+03</pdfrwt>
<totfact> 0.23487698E+03</totfact>
</mgrwt>
</event>
<event>
 8    1  0.1273312E-005  0.1770762E+03  0.7546771E-02  0.1176439E+00
         -1   -1    0    0    0  501 -0.00000000000E+00  0.00000000000E+00  0.19446342213E+02  0.19446342213E+02  0.00000000000E+00 0.  1.
          1   -1    0    0  501    0  0.00000000000E+00 -0.00000000000E+00 -0.16635709010E+04  0.16635709010E+04  0.00000000000E+00 0. -1.
         23    2    1    2    0    0  0.36606133721E+02 -0.11996722160E+03 -0.45474236279E+03  0.48052567370E+03  0.91554154889E+02 0.  0.
         23    2    1    2    0    0 -0.36606133721E+02  0.11996722160E+03 -0.11893821960E+04  0.12024915695E+04  0.12499529323E+03 0.  0.
          5    1    4    4  502    0 -0.34434338714E+02  0.53720967383E+02 -0.99520486383E+03  0.99725948329E+03  0.47000000000E+01 0.  1.
         -5    1    4    4    0  502 -0.21717950069E+01  0.66246254215E+02 -0.19417733216E+03  0.20523208622E+03  0.47000000000E+01 0.  1.
        -11    1    3    3    0    0  0.57944000850E+01 -0.92361493365E+02 -0.40683794318E+03  0.41723055082E+03  0.00000000000E+00 0. -1.
         11    1    3    3    0    0  0.30811733636E+02 -0.27605728234E+02 -0.47904419613E+02  0.63295122873E+02  0.00000000000E+00 0.  1.
<mgrwt>
<rscale>  0 0.17135801E+03</rscale>
<asrwt>0</asrwt>
<pdfrwt beam="2">  1        1 0.25593400E+00 0.17707616E+03</pdfrwt>
<pdfrwt beam="1">  1       -1 0.29917448E-02 0.17707616E+03</pdfrwt>
<totfact> 0.21158005E+03</totfact>
</mgrwt>
</event>
<event>
 8    1  0.1273312E-005  0.1310923E+03  0.7546771E-02  0.1239676E+00
         -2   -1    0    0    0  501 -0.00000000000E+00  0.00000000000E+00  0.10279673296E+03  0.10279673296E+03  0.00000000000E+00 0.  1.
          2   -1    0    0  501    0  0.00000000000E+00 -0.00000000000E+00 -0.20086741689E+03  0.20086741689E+03  0.00000000000E+00 0. -1.
         23    2    1    2    0    0  0.37958516532E+02  0.11017580030E+02  0.46025563846E+02  0.10885934670E+03  0.90386773313E+02 0.  0.
         23    2    1    2    0    0 -0.37958516532E+02 -0.11017580030E+02 -0.14409624778E+03  0.19480480315E+03  0.12499178637E+03 0.  0.
          5    1    4    4  502    0 -0.58437785421E+02 -0.54738665220E+02 -0.71242655453E+02  0.10727955160E+03  0.47000000000E+01 0. -1.
         -5    1    4    4    0  502  0.20479268889E+02  0.43721085190E+02 -0.72853592326E+02  0.87525251552E+02  0.47000000000E+01 0. -1.
        -11    1    3    3    0    0 -0.22799801946E+02  0.26105611589E+02  0.78634370359E+01  0.35541068740E+02  0.00000000000E+00 0. -1.
         11    1    3    3    0    0  0.60758318477E+02 -0.15088031559E+02  0.38162126810E+02  0.73318277961E+02  0.00000000000E+00 0.  1.
<mgrwt>
<rscale>  0 0.12209787E+03</rscale>
<asrwt>0</asrwt>
<pdfrwt beam="2">  1        2 0.30902680E-01 0.13109227E+03</pdfrwt>
<pdfrwt beam="1">  1       -2 0.15814882E-01 0.13109227E+03</pdfrwt>
<totfact> 0.50717639E+03</totfact>
</mgrwt>
</event>
<event>
 8    1  0.1273312E-005  0.1504612E+03  0.7546771E-02  0.1204290E+00
         -1   -1    0    0    0  501 -0.00000000000E+00  0.00000000000E+00  0.40872495102E+02  0.40872495102E+02  0.00000000000E+00 0.  1.
          1   -1    0    0  501    0  0.00000000000E+00 -0.00000000000E+00 -0.53387540345E+03  0.53387540345E+03  0.00000000000E+00 0. -1.
         23    2    1    2    0    0  0.90537185381E+01  0.83311193827E+02 -0.16857308174E+03  0.21712620337E+03  0.10818585612E+03 0.  0.
         23    2    1    2    0    0 -0.90537185381E+01 -0.83311193827E+02 -0.32442982661E+03  0.35762169518E+03  0.12496335318E+03 0.  0.
          5    1    4    4  502    0  0.17647366824E+02 -0.39185299363E+02 -0.29480480520E+03  0.29795785006E+03  0.47000000000E+01 0.  1.
         -5    1    4    4    0  502 -0.26701085362E+02 -0.44125894464E+02 -0.29625021407E+02  0.59663845125E+02  0.47000000000E+01 0.  1.
        -11    1    3    3    0    0  0.40714578456E+02  0.68591091995E+02 -0.51471423600E+02  0.94930091369E+02  0.00000000000E+00 0. -1.
         11    1    3    3    0    0 -0.31660859918E+02  0.14720101832E+02 -0.11710165814E+03  0.12219611200E+03  0.00000000000E+00 0.  1.
<mgrwt>
<rscale>  0 0.14693545E+03</rscale>
<asrwt>0</asrwt>
<pdfrwt beam="2">  1        1 0.82134678E-01 0.15046117E+03</pdfrwt>
<pdfrwt beam="1">  1       -1 0.62880761E-02 0.15046117E+03</pdfrwt>
<totfact> 0.49892583E+03</totfact>
</mgrwt>
</event>
<event>
 8    1  0.1273312E-005  0.1347192E+03  0.7546771E-02  0.1234162E+00
          2   -1    0    0  501    0  0.00000000000E+00  0.00000000000E+00  0.10887899553E+03  0.10887899553E+03  0.00000000000E+00 0. -1.
         -2   -1    0    0    0  501 -0.00000000000E+00 -0.00000000000E+00 -0.12910197328E+03  0.12910197328E+03  0.00000000000E+00 0.  1.
         23    2    1    2    0    0 -0.47313890657E+02 -0.16901532993E+02  0.18852419581E+00  0.10172426850E+03  0.88450693570E+02 0.  0.
         23    2    1    2    0    0  0.47313890657E+02  0.16901532993E+02 -0.20411501946E+02  0.13625670031E+03  0.12499997161E+03 0.  0.
          5    1    4    4  502    0  0.10071863272E+02  0.58435296793E+02  0.24652975201E+02  0.64389327744E+02  0.47000000000E+01 0. -1.
         -5    1    4    4    0  502  0.37242027385E+02 -0.41533763801E+02 -0.45064477147E+02  0.71867372567E+02  0.47000000000E+01 0. -1.
        -11    1    3    3    0    0 -0.37853331791E+02 -0.44307604126E+02  0.25145593841E+02  0.63469200410E+02  0.00000000000E+00 0. -1.
         11    1    3    3    0    0 -0.94605588662E+01  0.27406071133E+02 -0.24957069645E+02  0.38255068086E+02  0.00000000000E+00 0.  1.
<mgrwt>
<rscale>  0 0.12558219E+03</rscale>
<asrwt>0</asrwt>
<pdfrwt beam="1">  1        2 0.16750615E-01 0.13471919E+03</pdfrwt>
<pdfrwt beam="2">  1       -2 0.19861842E-01 0.13471919E+03</pdfrwt>
<totfact> 0.68805777E+03</totfact>
</mgrwt>
</event>
<event>
 8    1  0.1273312E-005  0.1311522E+03  0.7546771E-02  0.1238509E+00
         -1   -1    0    0    0  501 -0.00000000000E+00  0.00000000000E+00  0.93204196519E+02  0.93204196519E+02  0.00000000000E+00 0.  1.
          1   -1    0    0  501    0  0.00000000000E+00 -0.00000000000E+00 -0.15006769841E+03  0.15006769841E+03  0.00000000000E+00 0. -1.
         23    2    1    2    0    0  0.22938145420E+02 -0.32370954081E+02 -0.14432471193E+01  0.10089105085E+03  0.92751733118E+02 0.  0.
         23    2    1    2    0    0 -0.22938145420E+02  0.32370954081E+02 -0.55420254774E+02  0.14238084408E+03  0.12500745153E+03 0.  0.
          5    1    4    4  502    0 -0.32201734231E+02  0.77635633802E+02 -0.41777732372E+02  0.93977190028E+02  0.47000000000E+01 0. -1.
         -5    1    4    4    0  502  0.92635888113E+01 -0.45264679721E+02 -0.13642522402E+02  0.48403654050E+02  0.47000000000E+01 0. -1.
        -11    1    3    3    0    0  0.32949311745E+02 -0.61621689558E+02 -0.29273388471E+01  0.69938966829E+02  0.00000000000E+00 0. -1.
         11    1    3    3    0    0 -0.10011166325E+02  0.29250735477E+02  0.14840917279E+01  0.30952084023E+02  0.00000000000E+00 0.  1.
<mgrwt>
<rscale>  0 0.12282414E+03</rscale>
<asrwt>0</asrwt>
<pdfrwt beam="2">  1        1 0.23087338E-01 0.13115220E+03</pdfrwt>
<pdfrwt beam="1">  1       -1 0.14339107E-01 0.13115220E+03</pdfrwt>
<totfact> 0.69281391E+03</totfact>
</mgrwt>
</event>
<event>
 8    1  0.1273312E-005  0.1324043E+03  0.7546771E-02  0.1237011E+00
         -2   -1    0    0    0  501 -0.00000000000E+00  0.00000000000E+00  0.31930897041E+02  0.31930897041E+02  0.00000000000E+00 0.  1.
          2   -1    0    0  501    0  0.00000000000E+00 -0.00000000000E+00 -0.46382930030E+03  0.46382930030E+03  0.00000000000E+00 0. -1.
         23    2    1    2    0    0  0.39148914184E+02  0.19301880587E+02 -0.11988409249E+03  0.15681502155E+03  0.91178699685E+02 0.  0.
         23    2    1    2    0    0 -0.39148914184E+02 -0.19301880587E+02 -0.31201431076E+03  0.33894517578E+03  0.12500280793E+03 0.  0.
          5    1    4    4  502    0 -0.61253760262E+02 -0.51569476440E+02 -0.26860622684E+03  0.28032629050E+03  0.47000000000E+01 0. -1.
         -5    1    4    4    0  502  0.22104846078E+02  0.32267595853E+02 -0.43408083924E+02  0.58618885286E+02  0.47000000000E+01 0. -1.
        -11    1    3    3    0    0  0.43678041712E+02 -0.88053039344E+01 -0.13307734226E+02  0.46501618202E+02  0.00000000000E+00 0.  1.
         11    1    3    3    0    0 -0.45291275280E+01  0.28107184521E+02 -0.10657635827E+03  0.11031340335E+03  0.00000000000E+00 0. -1.
<mgrwt>
<rscale>  0 0.12376600E+03</rscale>
<asrwt>0</asrwt>
<pdfrwt beam="2">  1        2 0.71358352E-01 0.13240431E+03</pdfrwt>
<pdfrwt beam="1">  1       -2 0.49124458E-02 0.13240431E+03</pdfrwt>
<totfact> 0.12879821E+04</totfact>
</mgrwt>
</event>
<event>
 8    1  0.1273312E-005  0.1364386E+03  0.7546771E-02  0.1231577E+00
         -2   -1    0    0    0  501 -0.00000000000E+00  0.00000000000E+00  0.24014036016E+02  0.24014036016E+02  0.00000000000E+00 0.  1.
          2   -1    0    0  501    0  0.00000000000E+00 -0.00000000000E+00 -0.75815467008E+03  0.75815467008E+03  0.00000000000E+00 0. -1.
         23    2    1    2    0    0  0.38721569379E+02  0.38612522713E+02 -0.14871784856E+03  0.18105696640E+03  0.87603309059E+02 0.  0.
         23    2    1    2    0    0 -0.38721569379E+02 -0.38612522713E+02 -0.58542278551E+03  0.60111173969E+03  0.12500079584E+03 0.  0.
          5    1    4    4  502    0  0.69003561596E+01 -0.26600021789E+02 -0.21518819613E+02  0.35218257649E+02  0.47000000000E+01 0.  1.
         -5    1    4    4    0  502 -0.45621925538E+02 -0.12012500924E+02 -0.56390396589E+03  0.56589348204E+03  0.47000000000E+01 0.  1.
        -11    1    3    3    0    0  0.63231175641E+02  0.39252890636E+02 -0.86085320701E+02  0.11379654404E+03  0.00000000000E+00 0.  1.
         11    1    3    3    0    0 -0.24509606262E+02 -0.64036792349E+00 -0.62632527855E+02  0.67260422358E+02  0.00000000000E+00 0. -1.
<mgrwt>
<rscale>  0 0.12726122E+03</rscale>
<asrwt>0</asrwt>
<pdfrwt beam="2">  1        2 0.11663918E+00 0.13643858E+03</pdfrwt>
<pdfrwt beam="1">  1       -2 0.36944671E-02 0.13643858E+03</pdfrwt>
<totfact> 0.11268014E+04</totfact>
</mgrwt>
</event>
<event>
 8    1  0.1273312E-005  0.1498100E+03  0.7546771E-02  0.1209936E+00
          1   -1    0    0  501    0  0.00000000000E+00  0.00000000000E+00  0.86590438859E+03  0.86590438859E+03  0.00000000000E+00 0. -1.
         -1   -1    0    0    0  501 -0.00000000000E+00 -0.00000000000E+00 -0.33822178686E+02  0.33822178686E+02  0.00000000000E+00 0.  1.
         23    2    1    2    0    0 -0.81088746090E+02  0.15595240350E+02  0.11877461821E+03  0.17085706052E+03  0.90918254127E+02 0.  0.
         23    2    1    2    0    0  0.81088746090E+02 -0.15595240350E+02  0.71330759170E+03  0.72886950676E+03  0.12499776499E+03 0.  0.
          5    1    4    4  502    0 -0.32901318895E+02 -0.16176556855E-01  0.12146428222E+03  0.12592918210E+03  0.47000000000E+01 0. -1.
         -5    1    4    4    0  502  0.11399006498E+03 -0.15579063793E+02  0.59184330947E+03  0.60294032467E+03  0.47000000000E+01 0. -1.
        -11    1    3    3    0    0  0.13053365924E+02  0.80712178356E+01 -0.40960255028E+01  0.15884342738E+02  0.00000000000E+00 0.  1.
         11    1    3    3    0    0 -0.94142112014E+02  0.75240225145E+01  0.12287064371E+03  0.15497271778E+03  0.00000000000E+00 0. -1.
<mgrwt>
<rscale>  0 0.14255183E+03</rscale>
<asrwt>0</asrwt>
<pdfrwt beam="1">  1        1 0.13321604E+00 0.14981000E+03</pdfrwt>
<pdfrwt beam="2">  1       -1 0.52034128E-02 0.14981000E+03</pdfrwt>
<totfact> 0.33139254E+03</totfact>
</mgrwt>
</event>
<event>
 8    1  0.1273312E-005  0.2196155E+03  0.7546771E-02  0.1137654E+00
          2   -1    0    0  501    0  0.00000000000E+00  0.00000000000E+00  0.29342975751E+03  0.29342975751E+03  0.00000000000E+00 0. -1.
         -2   -1    0    0    0  501 -0.00000000000E+00 -0.00000000000E+00 -0.21938598064E+03  0.21938598064E+03  0.00000000000E+00 0.  1.
         23    2    1    2    0    0  0.44547757740E+02 -0.17498608625E+03 -0.10681389268E+03  0.22831535146E+03  0.90078071389E+02 0.  0.
         23    2    1    2    0    0 -0.44547757740E+02  0.17498608625E+03  0.18085766955E+03  0.28450038668E+03  0.12500536103E+03 0.  0.
          5    1    4    4  502    0 -0.80729103388E+02  0.16077956079E+03  0.14098274458E+03  0.22861644641E+03  0.47000000000E+01 0. -1.
         -5    1    4    4    0  502  0.36181345647E+02  0.14206525460E+02  0.39874924970E+02  0.55883940268E+02  0.47000000000E+01 0. -1.
        -11    1    3    3    0    0  0.16862002174E+02 -0.47533598125E+02 -0.80910699359E+02  0.95343124234E+02  0.00000000000E+00 0.  1.
         11    1    3    3    0    0  0.27685755566E+02 -0.12745248813E+03 -0.25903193316E+02  0.13297222723E+03  0.00000000000E+00 0. -1.
<mgrwt>
<rscale>  0 0.21501635E+03</rscale>
<asrwt>0</asrwt>
<pdfrwt beam="1">  1        2 0.45143040E-01 0.21961551E+03</pdfrwt>
<pdfrwt beam="2">  1       -2 0.33751689E-01 0.21961551E+03</pdfrwt>
<totfact> 0.92021452E+02</totfact>
</mgrwt>
</event>
<event>
 7    1  0.1273312E-005  0.2334812E+03  0.7546771E-02  0.1145277E+00
          1   -1    0    0  501    0  0.00000000000E+00  0.00000000000E+00  0.74937890824E+03  0.74937890824E+03  0.00000000000E+00 0. -1.
         -1   -1    0    0    0  501 -0.00000000000E+00 -0.00000000000E+00 -0.46844318894E+02  0.46844318894E+02  0.00000000000E+00 0.  1.
         23    2    1    2    0    0  0.10539441855E+03 -0.91984142729E+01  0.22994110044E+03  0.26910078294E+03  0.91376842898E+02 0.  0.
          5    1    1    2  502    0  0.26197516827E+02 -0.32884223861E+02  0.31358375041E+03  0.31642462071E+03  0.47000000000E+01 0. -1.
         -5    1    1    2    0  502 -0.13159193538E+03  0.42082638134E+02  0.15900973849E+03  0.21069782349E+03  0.47000000000E+01 0.  1.
        -11    1    3    3    0    0  0.11322165713E+01  0.22747734844E+02  0.12824493196E+02  0.26138266596E+02  0.00000000000E+00 0.  1.
         11    1    3    3    0    0  0.10426220198E+03 -0.31946149117E+02  0.21711660725E+03  0.24296251634E+03  0.00000000000E+00 0. -1.
<mgrwt>
<rscale>  0 0.20538132E+03</rscale>
<asrwt>0</asrwt>
<pdfrwt beam="1">  1        1 0.11528905E+00 0.23348119E+03</pdfrwt>
<pdfrwt beam="2">  1       -1 0.72068188E-02 0.23348119E+03</pdfrwt>
<totfact> 0.25620727E+03</totfact>
</mgrwt>
</event>
<event>
 8    1  0.1273312E-005  0.1253842E+03  0.7546771E-02  0.1249907E+00
         -2   -1    0    0    0  501 -0.00000000000E+00  0.00000000000E+00  0.21811058066E+02  0.21811058066E+02  0.00000000000E+00 0.  1.
          2   -1    0    0  501    0  0.00000000000E+00 -0.00000000000E+00 -0.63218664917E+03  0.63218664917E+03  0.00000000000E+00 0. -1.
         23    2    1    2    0    0  0.97443223277E+01 -0.51145874315E+00 -0.14143089649E+03  0.16858003005E+03  0.91221240080E+02 0.  0.
         23    2    1    2    0    0 -0.97443223277E+01  0.51145874315E+00 -0.46894469462E+03  0.48541767719E+03  0.12500392518E+03 0.  0.
          5    1    4    4  502    0 -0.43711421683E+02 -0.46364296164E+02 -0.30121805190E+03  0.30792002392E+03  0.47000000000E+01 0.  1.
         -5    1    4    4    0  502  0.33967099356E+02  0.46875754907E+02 -0.16772664273E+03  0.17749765327E+03  0.47000000000E+01 0.  1.
        -11    1    3    3    0    0 -0.27117486205E+02  0.11027079163E+02 -0.89922244344E+01  0.30623759293E+02  0.00000000000E+00 0.  1.
         11    1    3    3    0    0  0.36861808533E+02 -0.11538537906E+02 -0.13243867205E+03  0.13795627075E+03  0.00000000000E+00 0. -1.
<mgrwt>
<rscale>  0 0.11596414E+03</rscale>
<asrwt>0</asrwt>
<pdfrwt beam="2">  1        2 0.97259491E-01 0.12538419E+03</pdfrwt>
<pdfrwt beam="1">  1       -2 0.33555472E-02 0.12538419E+03</pdfrwt>
<totfact> 0.16003537E+04</totfact>
</mgrwt>
</event>
<event>
 8    1  0.1273312E-005  0.2393667E+03  0.7546771E-02  0.1123058E+00
          2   -1    0    0  501    0  0.00000000000E+00  0.00000000000E+00  0.14020733524E+04  0.14020733524E+04  0.00000000000E+00 0. -1.
         -2   -1    0    0    0  501 -0.00000000000E+00 -0.00000000000E+00 -0.56041493535E+02  0.56041493535E+02  0.00000000000E+00 0.  1.
         23    2    1    2    0    0  0.16902802727E+02  0.20343343132E+03  0.24466270822E+03  0.33103436829E+03  0.89738767966E+02 0.  0.
         23    2    1    2    0    0 -0.16902802727E+02 -0.20343343132E+03  0.11013691506E+04  0.11270804776E+04  0.12500212550E+03 0.  0.
          5    1    4    4  502    0 -0.40557507915E+02 -0.17550316345E+03  0.10398179381E+04  0.10553149796E+04  0.47000000000E+01 0. -1.
         -5    1    4    4    0  502  0.23654705188E+02 -0.27930267865E+02  0.61551212563E+02  0.71765498037E+02  0.47000000000E+01 0. -1.
        -11    1    3    3    0    0  0.40439343859E+02  0.15710852634E+03  0.22044940329E+03  0.27370854753E+03  0.00000000000E+00 0.  1.
         11    1    3    3    0    0 -0.23536541132E+02  0.46324904981E+02  0.24213304930E+02  0.57325820758E+02  0.00000000000E+00 0. -1.
<mgrwt>
<rscale>  0 0.23516268E+03</rscale>
<asrwt>0</asrwt>
<pdfrwt beam="1">  1        2 0.21570357E+00 0.23936666E+03</pdfrwt>
<pdfrwt beam="2">  1       -2 0.86217693E-02 0.23936666E+03</pdfrwt>
<totfact> 0.12987389E+03</totfact>
</mgrwt>
</event>
<event>
 7    1  0.1273312E-005  0.2932510E+03  0.7546771E-02  0.1124403E+00
          2   -1    0    0  501    0  0.00000000000E+00  0.00000000000E+00  0.53462379223E+03  0.53462379223E+03  0.00000000000E+00 0. -1.
         -2   -1    0    0    0  501 -0.00000000000E+00 -0.00000000000E+00 -0.82035692621E+02  0.82035692621E+02  0.00000000000E+00 0.  1.
         23    2    1    2    0    0 -0.50805496358E+02 -0.56070676575E+02  0.77645292178E+02  0.14065712513E+03  0.89613147595E+02 0.  0.
          5    1    1    2  502    0 -0.44293020235E+02  0.47615914414E+02  0.37478368651E+03  0.38041299744E+03  0.47000000000E+01 0. -1.
         -5    1    1    2    0  502  0.95098516593E+02  0.84547621607E+01  0.15912092227E+00  0.95589362279E+02  0.47000000000E+01 0.  1.
        -11    1    3    3    0    0  0.16475698770E+02 -0.40957945925E+02  0.49088653508E+02  0.66020435379E+02  0.00000000000E+00 0.  1.
         11    1    3    3    0    0 -0.67281195128E+02 -0.15112730649E+02  0.28556638670E+02  0.74636689755E+02  0.00000000000E+00 0. -1.
<mgrwt>
<rscale>  0 0.23320598E+03</rscale>
<asrwt>0</asrwt>
<pdfrwt beam="1">  1        2 0.82249812E-01 0.29325098E+03</pdfrwt>
<pdfrwt beam="2">  1       -2 0.12620876E-01 0.29325098E+03</pdfrwt>
<totfact> 0.26234400E+03</totfact>
</mgrwt>
</event>
<event>
 8    1  0.1273312E-005  0.1313946E+03  0.7546771E-02  0.1241357E+00
          2   -1    0    0  501    0  0.00000000000E+00  0.00000000000E+00  0.69717032472E+03  0.69717032472E+03  0.00000000000E+00 0. -1.
         -2   -1    0    0    0  501 -0.00000000000E+00 -0.00000000000E+00 -0.25555937989E+02  0.25555937989E+02  0.00000000000E+00 0.  1.
         23    2    1    2    0    0 -0.25759973251E+02 -0.31229189370E+02  0.10635324914E+03  0.14239472792E+03  0.85594429992E+02 0.  0.
         23    2    1    2    0    0  0.25759973251E+02  0.31229189370E+02  0.56526113759E+03  0.58033153479E+03  0.12500279241E+03 0.  0.
          5    1    4    4  502    0  0.65028223866E+02 -0.18393376526E+02  0.27595448630E+03  0.28414776914E+03  0.47000000000E+01 0.  1.
         -5    1    4    4    0  502 -0.39268250615E+02  0.49622565896E+02  0.28930665129E+03  0.29618376565E+03  0.47000000000E+01 0.  1.
        -11    1    3    3    0    0 -0.48901300720E+02 -0.93781298652E+01  0.97306949476E+02  0.10930658236E+03  0.00000000000E+00 0. -1.
         11    1    3    3    0    0  0.23141327469E+02 -0.21851059505E+02  0.90462996604E+01  0.33088145551E+02  0.00000000000E+00 0.  1.
<mgrwt>
<rscale>  0 0.12106075E+03</rscale>
<asrwt>0</asrwt>
<pdfrwt beam="1">  1        2 0.10725696E+00 0.13139458E+03</pdfrwt>
<pdfrwt beam="2">  1       -2 0.39316833E-02 0.13139458E+03</pdfrwt>
<totfact> 0.11335976E+04</totfact>
</mgrwt>
</event>
<event>
 8    1  0.1273312E-005  0.1170032E+03  0.7546771E-02  0.1258164E+00
         -1   -1    0    0    0  501 -0.00000000000E+00  0.00000000000E+00  0.21659855029E+03  0.21659855029E+03  0.00000000000E+00 0.  1.
          1   -1    0    0  501    0  0.00000000000E+00 -0.00000000000E+00 -0.10435947630E+03  0.10435947630E+03  0.00000000000E+00 0. -1.
         23    2    1    2    0    0  0.12937799273E+01  0.26448081401E+02  0.16640122429E+03  0.19202670248E+03  0.92107068909E+02 0.  0.
         23    2    1    2    0    0 -0.12937799273E+01 -0.26448081401E+02 -0.54162150301E+02  0.12893132410E+03  0.11396742049E+03 0.  0.
          5    1    4    4  502    0 -0.18022151138E+02  0.72128944637E+00 -0.83365300581E+02  0.85423542019E+02  0.47000000000E+01 0. -1.
         -5    1    4    4    0  502  0.16728371211E+02 -0.27169370847E+02  0.29203150279E+02  0.43507782084E+02  0.47000000000E+01 0.  1.
        -11    1    3    3    0    0  0.11424792453E+02  0.58139291062E+02  0.80876275719E+02  0.10025804218E+03  0.00000000000E+00 0.  1.
         11    1    3    3    0    0 -0.10131012526E+02 -0.31691209661E+02  0.85524948574E+02  0.91768660299E+02  0.00000000000E+00 0. -1.
<mgrwt>
<rscale>  0 0.11130957E+03</rscale>
<asrwt>0</asrwt>
<pdfrwt beam="2">  1        1 0.16055304E-01 0.11700320E+03</pdfrwt>
<pdfrwt beam="1">  1       -1 0.33322854E-01 0.11700320E+03</pdfrwt>
<totfact> 0.27843483E+03</totfact>
</mgrwt>
</event>
<event>
 8    1  0.1281595E-005  0.1523561E+03  0.7546771E-02  0.1204432E+00
          2   -1    0    0  501    0  0.00000000000E+00  0.00000000000E+00  0.23249606136E+03  0.23249606136E+03  0.00000000000E+00 0.  1.
         -2   -1    0    0    0  501 -0.00000000000E+00 -0.00000000000E+00 -0.86961264562E+02  0.86961264562E+02  0.00000000000E+00 0. -1.
         23    2    1    2    0    0 -0.61084171638E+02  0.62091951515E+02  0.56859213591E+02  0.14317419059E+03  0.98382885770E+02 0.  0.
         23    2    1    2    0    0  0.61084171638E+02 -0.62091951515E+02  0.88675583203E+02  0.17628313533E+03  0.12500279308E+03 0.  0.
          5    1    4    4  502    0  0.15855148214E+02  0.37396868756E+02  0.11717486589E+02  0.42535879085E+02  0.47000000000E+01 0.  1.
         -5    1    4    4    0  502  0.45229023424E+02 -0.99488820270E+02  0.76958096614E+02  0.13374725625E+03  0.47000000000E+01 0.  1.
        -11    1    3    3    0    0 -0.59432382672E+02  0.10735526516E+02 -0.74571402140E+01  0.60852843646E+02  0.00000000000E+00 0. -1.
         11    1    3    3    0    0 -0.16517889663E+01  0.51356424999E+02  0.64316353805E+02  0.82321346941E+02  0.00000000000E+00 0.  1.
<mgrwt>
<rscale>  0 0.14682280E+03</rscale>
<asrwt>0</asrwt>
<pdfrwt beam="1">  1        2 0.35768624E-01 0.15235611E+03</pdfrwt>
<pdfrwt beam="2">  1       -2 0.13378656E-01 0.15235611E+03</pdfrwt>
<totfact> 0.57442688E+03</totfact>
</mgrwt>
</event>
<event>
 8    1  0.1273312E-005  0.1270050E+03  0.7546771E-02  0.1247665E+00
         -2   -1    0    0    0  501 -0.00000000000E+00  0.00000000000E+00  0.18804530656E+03  0.18804530656E+03  0.00000000000E+00 0.  1.
          2   -1    0    0  501    0  0.00000000000E+00 -0.00000000000E+00 -0.65861678593E+02  0.65861678593E+02  0.00000000000E+00 0. -1.
         23    2    1    2    0    0  0.22233292607E+02  0.31387519909E+01  0.73042891031E+02  0.11772664671E+03  0.89555169321E+02 0.  0.
         23    2    1    2    0    0 -0.22233292607E+02 -0.31387519909E+01  0.49140736941E+02  0.13618033844E+03  0.12500440587E+03 0.  0.
          5    1    4    4  502    0  0.42344628934E+02  0.30591351350E+02  0.31098802704E+02  0.60976420907E+02  0.47000000000E+01 0.  1.
         -5    1    4    4    0  502 -0.64577921541E+02 -0.33730103341E+02  0.18041934237E+02  0.75203917538E+02  0.47000000000E+01 0.  1.
        -11    1    3    3    0    0  0.45176860961E+02 -0.28368955140E+02  0.42834632978E+02  0.68414561055E+02  0.00000000000E+00 0.  1.
         11    1    3    3    0    0 -0.22943568353E+02  0.31507707131E+02  0.30208258053E+02  0.49312085659E+02  0.00000000000E+00 0. -1.
<mgrwt>
<rscale>  0 0.11727298E+03</rscale>
<asrwt>0</asrwt>
<pdfrwt beam="2">  1        2 0.10132566E-01 0.12700501E+03</pdfrwt>
<pdfrwt beam="1">  1       -2 0.28930047E-01 0.12700501E+03</pdfrwt>
<totfact> 0.64844078E+03</totfact>
</mgrwt>
</event>
<event>
 8    1  0.1273312E-005  0.1611375E+03  0.7546771E-02  0.1194585E+00
         -2   -1    0    0    0  501 -0.00000000000E+00  0.00000000000E+00  0.36983121516E+02  0.36983121516E+02  0.00000000000E+00 0.  1.
          2   -1    0    0  501    0  0.00000000000E+00 -0.00000000000E+00 -0.83297800960E+03  0.83297800960E+03  0.00000000000E+00 0. -1.
         23    2    1    2    0    0  0.61251989590E+02 -0.81186521682E+02 -0.14731345001E+03  0.20156536009E+03  0.92651412850E+02 0.  0.
         23    2    1    2    0    0 -0.61251989590E+02  0.81186521682E+02 -0.64868143807E+03  0.66839577102E+03  0.12498896388E+03 0.  0.
          5    1    4    4  502    0 -0.25336443483E+02 -0.21089610051E+02 -0.50744278118E+02  0.60694141250E+02  0.47000000000E+01 0.  1.
         -5    1    4    4    0  502 -0.35915546108E+02  0.10227613173E+03 -0.59793715995E+03  0.60770162977E+03  0.47000000000E+01 0.  1.
        -11    1    3    3    0    0  0.24664574735E+02 -0.25021720411E+02 -0.12663334247E+03  0.13141701246E+03  0.00000000000E+00 0. -1.
         11    1    3    3    0    0  0.36587414856E+02 -0.56164801271E+02 -0.20680107544E+02  0.70148347633E+02  0.00000000000E+00 0.  1.
<mgrwt>
<rscale>  0 0.15489368E+03</rscale>
<asrwt>0</asrwt>
<pdfrwt beam="2">  1        2 0.12815046E+00 0.16113751E+03</pdfrwt>
<pdfrwt beam="1">  1       -2 0.56897110E-02 0.16113751E+03</pdfrwt>
<totfact> 0.52918976E+03</totfact>
</mgrwt>
</event>
<event>
 7    1  0.1273312E-005  0.5399314E+03  0.7546771E-02  0.1003852E+00
          2   -1    0    0  501    0  0.00000000000E+00  0.00000000000E+00  0.25259079949E+03  0.25259079949E+03  0.00000000000E+00 0. -1.
         -2   -1    0    0    0  501 -0.00000000000E+00 -0.00000000000E+00 -0.28853578786E+03  0.28853578786E+03  0.00000000000E+00 0.  1.
         23    2    1    2    0    0  0.70075113601E+02  0.58474594079E+02  0.94625755553E+02  0.18139011629E+03  0.12497416123E+03 0.  0.
          5    1    3    3  502    0  0.70996266331E+02  0.94552707112E+02  0.70989252217E+02  0.13799365270E+03  0.47000000000E+01 0. -1.
         -5    1    3    3    0  502 -0.92115272947E+00 -0.36078113033E+02  0.23636503337E+02  0.43396463593E+02  0.47000000000E+01 0. -1.
        -11    1    1    2    0    0 -0.64920495158E+02  0.83369468490E+02 -0.18059962725E+03  0.20923996829E+03  0.00000000000E+00 0.  1.
         11    1    1    2    0    0 -0.51546184433E+01 -0.14184406257E+03  0.50028883323E+02  0.15049650276E+03  0.00000000000E+00 0. -1.
<mgrwt>
<rscale>  0 0.53993142E+03</rscale>
<asrwt>0</asrwt>
<pdfrwt beam="1">  1        2 0.38860123E-01 0.53993142E+03</pdfrwt>
<pdfrwt beam="2">  1       -2 0.44390121E-01 0.53993142E+03</pdfrwt>
<totfact> 0.64432059E+02</totfact>
</mgrwt>
</event>
<event>
 8    1  0.1273312E-005  0.1280688E+03  0.7546771E-02  0.1244726E+00
          2   -1    0    0  501    0  0.00000000000E+00  0.00000000000E+00  0.43046326995E+03  0.43046326995E+03  0.00000000000E+00 0. -1.
         -2   -1    0    0    0  501 -0.00000000000E+00 -0.00000000000E+00 -0.45318906314E+02  0.45318906314E+02  0.00000000000E+00 0.  1.
         23    2    1    2    0    0  0.47539915200E+01  0.27443450009E+02  0.32986776570E+02  0.10106015272E+03  0.91374414669E+02 0.  0.
         23    2    1    2    0    0 -0.47539915200E+01 -0.27443450009E+02  0.35215758706E+03  0.37472202354E+03  0.12500354161E+03 0.  0.
          5    1    4    4  502    0  0.58268012008E+02 -0.21078513629E+02  0.13804373452E+03  0.15138569153E+03  0.47000000000E+01 0. -1.
         -5    1    4    4    0  502 -0.63022003528E+02 -0.63649363796E+01  0.21411385255E+03  0.22333633201E+03  0.47000000000E+01 0. -1.
        -11    1    3    3    0    0 -0.24943707668E+02 -0.21072212834E+02  0.29605697116E+02  0.44076342948E+02  0.00000000000E+00 0.  1.
         11    1    3    3    0    0  0.29697699188E+02  0.48515662843E+02  0.33810794538E+01  0.56983809774E+02  0.00000000000E+00 0. -1.
<mgrwt>
<rscale>  0 0.11901779E+03</rscale>
<asrwt>0</asrwt>
<pdfrwt beam="1">  1        2 0.66225116E-01 0.12806884E+03</pdfrwt>
<pdfrwt beam="2">  1       -2 0.69721397E-02 0.12806884E+03</pdfrwt>
<totfact> 0.81994525E+03</totfact>
</mgrwt>
</event>
<event>
 8    1  0.1273312E-005  0.1674461E+03  0.7546771E-02  0.1187017E+00
          3   -1    0    0  501    0  0.00000000000E+00  0.00000000000E+00  0.10758310410E+03  0.10758310410E+03  0.00000000000E+00 0.  1.
         -3   -1    0    0    0  501 -0.00000000000E+00 -0.00000000000E+00 -0.24167124399E+03  0.24167124399E+03  0.00000000000E+00 0. -1.
         23    2    1    2    0    0  0.10151869089E+03 -0.45907932709E+02 -0.19133770262E+02  0.14614675394E+03  0.92623915031E+02 0.  0.
         23    2    1    2    0    0 -0.10151869089E+03  0.45907932709E+02 -0.11495436963E+03  0.20310759416E+03  0.12499841928E+03 0.  0.
          5    1    4    4  502    0 -0.13080763744E+03  0.41059096392E+02 -0.98090927261E+02  0.16864283981E+03  0.47000000000E+01 0. -1.
         -5    1    4    4    0  502  0.29288946549E+02  0.48488363171E+01 -0.16863442366E+02  0.34464754344E+02  0.47000000000E+01 0. -1.
        -11    1    3    3    0    0  0.10151465708E+02 -0.42982001625E+02  0.17715472973E+02  0.47585110091E+02  0.00000000000E+00 0.  1.
         11    1    3    3    0    0  0.91367225182E+02 -0.29259310839E+01 -0.36849243235E+02  0.98561643844E+02  0.00000000000E+00 0. -1.
<mgrwt>
<rscale>  0 0.16149718E+03</rscale>
<asrwt>0</asrwt>
<pdfrwt beam="1">  1        3 0.16551247E-01 0.16744607E+03</pdfrwt>
<pdfrwt beam="2">  1       -3 0.37180191E-01 0.16744607E+03</pdfrwt>
<totfact> 0.53430984E+02</totfact>
</mgrwt>
</event>
<event>
 8    1  0.1273312E-005  0.1284195E+03  0.7546771E-02  0.1246781E+00
         -2   -1    0    0    0  501 -0.00000000000E+00  0.00000000000E+00  0.84776827801E+02  0.84776827801E+02  0.00000000000E+00 0.  1.
          2   -1    0    0  501    0  0.00000000000E+00 -0.00000000000E+00 -0.14390994079E+03  0.14390994079E+03  0.00000000000E+00 0. -1.
         23    2    1    2    0    0  0.79745325448E+01 -0.28340073573E+02 -0.11122969984E+02  0.91586307568E+02  0.86009175867E+02 0.  0.
         23    2    1    2    0    0 -0.79745325448E+01  0.28340073573E+02 -0.48010143002E+02  0.13710046102E+03  0.12499923856E+03 0.  0.
          5    1    4    4  502    0 -0.13743152569E+02 -0.38541931257E+01  0.40193421797E+02  0.42910723636E+02  0.47000000000E+01 0.  1.
         -5    1    4    4    0  502  0.57686200246E+01  0.32194266698E+02 -0.88203564799E+02  0.94189737385E+02  0.47000000000E+01 0.  1.
        -11    1    3    3    0    0 -0.89835736644E+01 -0.18310504175E+02  0.35516553057E+02  0.40956131409E+02  0.00000000000E+00 0.  1.
         11    1    3    3    0    0  0.16958106209E+02 -0.10029569398E+02 -0.46639523041E+02  0.50630176160E+02  0.00000000000E+00 0. -1.
<mgrwt>
<rscale>  0 0.11779426E+03</rscale>
<asrwt>0</asrwt>
<pdfrwt beam="2">  1        2 0.22139991E-01 0.12841948E+03</pdfrwt>
<pdfrwt beam="1">  1       -2 0.13042589E-01 0.12841948E+03</pdfrwt>
<totfact> 0.99839934E+03</totfact>
</mgrwt>
</event>
<event>
 8    1  0.1273312E-005  0.1278238E+03  0.7546771E-02  0.1240680E+00
          3   -1    0    0  501    0  0.00000000000E+00  0.00000000000E+00  0.84821144842E+02  0.84821144842E+02  0.00000000000E+00 0. -1.
         -3   -1    0    0    0  501 -0.00000000000E+00 -0.00000000000E+00 -0.18136385042E+03  0.18136385042E+03  0.00000000000E+00 0.  1.
         23    2    1    2    0    0  0.25030128130E+02 -0.93936118968E+01 -0.90752710971E+02  0.13823011930E+03  0.10078077234E+03 0.  0.
         23    2    1    2    0    0 -0.25030128130E+02  0.93936118968E+01 -0.57899946021E+01  0.12795487596E+03  0.12499671590E+03 0.  0.
          5    1    4    4  502    0 -0.53366654132E+02 -0.18935714242E+02  0.38043980385E+02  0.68381251017E+02  0.47000000000E+01 0.  1.
         -5    1    4    4    0  502  0.28336526003E+02  0.28329326138E+02 -0.43833974987E+02  0.59573624940E+02  0.47000000000E+01 0.  1.
        -11    1    3    3    0    0  0.52745592118E+02  0.20848728766E+02 -0.75577393008E+02  0.94491847865E+02  0.00000000000E+00 0.  1.
         11    1    3    3    0    0 -0.27715463988E+02 -0.30242340663E+02 -0.15175317963E+02  0.43738271435E+02  0.00000000000E+00 0. -1.
<mgrwt>
<rscale>  0 0.12147728E+03</rscale>
<asrwt>0</asrwt>
<pdfrwt beam="1">  1        3 0.13049407E-01 0.12782381E+03</pdfrwt>
<pdfrwt beam="2">  1       -3 0.27902131E-01 0.12782381E+03</pdfrwt>
<totfact> 0.13182958E+03</totfact>
</mgrwt>
</event>
<event>
 8    1  0.1273312E-005  0.1354675E+03  0.7546771E-02  0.1226850E+00
         -1   -1    0    0    0  501 -0.00000000000E+00  0.00000000000E+00  0.30769974866E+02  0.30769974866E+02  0.00000000000E+00 0.  1.
          1   -1    0    0  501    0  0.00000000000E+00 -0.00000000000E+00 -0.14820195977E+04  0.14820195977E+04  0.00000000000E+00 0. -1.
         23    2    1    2    0    0 -0.54911211497E+02  0.46809710347E+02 -0.96130398301E+02  0.15091603100E+03  0.91258998484E+02 0.  0.
         23    2    1    2    0    0  0.54911211497E+02 -0.46809710347E+02 -0.13551192245E+04  0.13618735416E+04  0.11465182244E+03 0.  0.
          5    1    4    4  502    0 -0.41870227654E+01 -0.70616459350E+02 -0.78073256508E+03  0.78394492388E+03  0.47000000000E+01 0. -1.
         -5    1    4    4    0  502  0.59098234263E+02  0.23806749003E+02 -0.57438665944E+03  0.57792861768E+03  0.47000000000E+01 0.  1.
        -11    1    3    3    0    0 -0.42101599908E+02 -0.15506470245E+02 -0.13943844045E+02  0.46983253624E+02  0.00000000000E+00 0.  1.
         11    1    3    3    0    0 -0.12809611589E+02  0.62316180592E+02 -0.82186554255E+02  0.10393277738E+03  0.00000000000E+00 0. -1.
<mgrwt>
<rscale>  0 0.13040879E+03</rscale>
<asrwt>0</asrwt>
<pdfrwt beam="2">  1        1 0.22800302E+00 0.13546745E+03</pdfrwt>
<pdfrwt beam="1">  1       -1 0.47338422E-02 0.13546745E+03</pdfrwt>
<totfact> 0.14121931E+03</totfact>
</mgrwt>
</event>
<event>
 7    1  0.1273312E-005  0.3397607E+03  0.7546771E-02  0.1066898E+00
          1   -1    0    0  501    0  0.00000000000E+00  0.00000000000E+00  0.11892547349E+04  0.11892547349E+04  0.00000000000E+00 0. -1.
         -1   -1    0    0    0  501 -0.00000000000E+00 -0.00000000000E+00 -0.24266743931E+02  0.24266743931E+02  0.00000000000E+00 0.  1.
         23    2    1    2    0    0 -0.26140639073E+02  0.44885526572E+02  0.22702109904E+03  0.24966116862E+03  0.89967083991E+02 0.  0.
          5    1    1    2  502    0  0.36984036615E+02 -0.12378208642E+03  0.72513327690E+03  0.73656648250E+03  0.47000000000E+01 0. -1.
         -5    1    1    2    0  502 -0.10843397542E+02  0.78896559847E+02  0.21283361504E+03  0.22729382771E+03  0.47000000000E+01 0.  1.
        -11    1    3    3    0    0 -0.39115492675E+02 -0.13470620331E+02  0.65923628442E+02  0.77829327161E+02  0.00000000000E+00 0.  1.
         11    1    3    3    0    0  0.12974853602E+02  0.58356146903E+02  0.16109747060E+03  0.17183184146E+03  0.00000000000E+00 0. -1.
<mgrwt>
<rscale>  0 0.33976074E+03</rscale>
<asrwt>0</asrwt>
<pdfrwt beam="1">  1        1 0.18296222E+00 0.33976074E+03</pdfrwt>
<pdfrwt beam="2">  1       -1 0.37333461E-02 0.33976074E+03</pdfrwt>
<totfact> 0.31827660E+03</totfact>
</mgrwt>
</event>
<event>
 7    1  0.1273312E-005  0.2328072E+03  0.7546771E-02  0.1157399E+00
         -2   -1    0    0    0  501 -0.00000000000E+00  0.00000000000E+00  0.67628497096E+02  0.67628497096E+02  0.00000000000E+00 0.  1.
          2   -1    0    0  501    0  0.00000000000E+00 -0.00000000000E+00 -0.53598641408E+03  0.53598641408E+03  0.00000000000E+00 0. -1.
         23    2    1    2    0    0  0.43713863016E+02  0.28608975356E+02 -0.34703031029E+02  0.11142006405E+03  0.92091014873E+02 0.  0.
          5    1    1    2  502    0  0.91862977288E+02 -0.31119301657E+02 -0.17763397798E+03  0.20244292446E+03  0.47000000000E+01 0. -1.
         -5    1    1    2    0  502 -0.13557684030E+03  0.25103263008E+01 -0.25602090798E+03  0.28975192267E+03  0.47000000000E+01 0.  1.
        -11    1    3    3    0    0  0.65735769241E+02  0.43217883959E+02 -0.31724305358E+02  0.84825753177E+02  0.00000000000E+00 0.  1.
         11    1    3    3    0    0 -0.22021906225E+02 -0.14608908603E+02 -0.29787256711E+01  0.26594310876E+02  0.00000000000E+00 0. -1.
<mgrwt>
<rscale>  0 0.19118274E+03</rscale>
<asrwt>0</asrwt>
<pdfrwt beam="2">  1        2 0.82459451E-01 0.23280723E+03</pdfrwt>
<pdfrwt beam="1">  1       -2 0.10404384E-01 0.23280723E+03</pdfrwt>
<totfact> 0.35503833E+03</totfact>
</mgrwt>
</event>
<event>
 8    1  0.1273312E-005  0.1544533E+03  0.7546771E-02  0.1203329E+00
          1   -1    0    0  501    0  0.00000000000E+00  0.00000000000E+00  0.19854772147E+03  0.19854772147E+03  0.00000000000E+00 0. -1.
         -1   -1    0    0    0  501 -0.00000000000E+00 -0.00000000000E+00 -0.10143377643E+03  0.10143377643E+03  0.00000000000E+00 0.  1.
         23    2    1    2    0    0  0.13499146555E+02 -0.89714524201E+02  0.38421498375E+02  0.13475245248E+03  0.91929805300E+02 0.  0.
         23    2    1    2    0    0 -0.13499146555E+02  0.89714524201E+02  0.58692446660E+02  0.16522904541E+03  0.12499964537E+03 0.  0.
          5    1    4    4  502    0  0.20222234624E+01 -0.30081684885E+02  0.25763703044E+02  0.39935642574E+02  0.47000000000E+01 0. -1.
         -5    1    4    4    0  502 -0.15521370017E+02  0.11979620909E+03  0.32928743615E+02  0.12529340284E+03  0.47000000000E+01 0. -1.
        -11    1    3    3    0    0 -0.14423842706E+02 -0.42092450180E+02 -0.24704022018E+02  0.50893126298E+02  0.00000000000E+00 0.  1.
         11    1    3    3    0    0  0.27922989261E+02 -0.47622074022E+02  0.63125520393E+02  0.83859326185E+02  0.00000000000E+00 0. -1.
<mgrwt>
<rscale>  0 0.14769950E+03</rscale>
<asrwt>0</asrwt>
<pdfrwt beam="1">  1        1 0.30545803E-01 0.15445334E+03</pdfrwt>
<pdfrwt beam="2">  1       -1 0.15605196E-01 0.15445334E+03</pdfrwt>
<totfact> 0.43156018E+03</totfact>
</mgrwt>
</event>
<event>
 8    1  0.1273312E-005  0.1389803E+03  0.7546771E-02  0.1226908E+00
          2   -1    0    0  501    0  0.00000000000E+00  0.00000000000E+00  0.79373249681E+03  0.79373249681E+03  0.00000000000E+00 0. -1.
         -2   -1    0    0    0  501 -0.00000000000E+00 -0.00000000000E+00 -0.42672367380E+02  0.42672367380E+02  0.00000000000E+00 0.  1.
         23    2    1    2    0    0  0.55752068292E+02  0.14644365044E+02  0.44736584317E+02  0.11653788850E+03  0.90867854233E+02 0.  0.
         23    2    1    2    0    0 -0.55752068292E+02 -0.14644365044E+02  0.70632354512E+03  0.71986697570E+03  0.12646249154E+03 0.  0.
          5    1    4    4  502    0 -0.85240854367E+02 -0.37855648165E+02  0.59524351275E+03  0.60252467404E+03  0.47000000000E+01 0. -1.
         -5    1    4    4    0  502  0.29488786075E+02  0.23211283121E+02  0.11108003237E+03  0.11734230166E+03  0.47000000000E+01 0.  1.
        -11    1    3    3    0    0  0.30035197805E+02  0.31828913726E+02 -0.17426605722E+02  0.47104983209E+02  0.00000000000E+00 0.  1.
         11    1    3    3    0    0  0.25716870487E+02 -0.17184548682E+02  0.62163190039E+02  0.69432905289E+02  0.00000000000E+00 0. -1.
<mgrwt>
<rscale>  0 0.13036982E+03</rscale>
<asrwt>0</asrwt>
<pdfrwt beam="1">  1        2 0.12211268E+00 0.13898026E+03</pdfrwt>
<pdfrwt beam="2">  1       -2 0.65649802E-02 0.13898026E+03</pdfrwt>
<totfact> 0.44959352E+03</totfact>
</mgrwt>
</event>
<event>
 8    1  0.1273312E-005  0.1302911E+03  0.7546771E-02  0.1240231E+00
         -3   -1    0    0    0  501 -0.00000000000E+00  0.00000000000E+00  0.19558648331E+03  0.19558648331E+03  0.00000000000E+00 0.  1.
          3   -1    0    0  501    0  0.00000000000E+00 -0.00000000000E+00 -0.86562085990E+02  0.86562085990E+02  0.00000000000E+00 0. -1.
         23    2    1    2    0    0 -0.59133891448E+01 -0.36286500262E+02  0.11468268728E+03  0.15173463508E+03  0.92301692560E+02 0.  0.
         23    2    1    2    0    0  0.59133891448E+01  0.36286500262E+02 -0.56582899540E+01  0.13041393422E+03  0.12499639883E+03 0.  0.
          5    1    4    4  502    0  0.56474006573E+02  0.30663560667E+02 -0.33082151467E+02  0.72429870336E+02  0.47000000000E+01 0.  1.
         -5    1    4    4    0  502 -0.50560617429E+02  0.56229395952E+01  0.27423861513E+02  0.57984063886E+02  0.47000000000E+01 0.  1.
        -11    1    3    3    0    0 -0.20629905712E+02 -0.37419293435E+02  0.12605593227E+03  0.13310106908E+03  0.00000000000E+00 0.  1.
         11    1    3    3    0    0  0.14716516567E+02  0.11327931728E+01 -0.11373244990E+02  0.18633565999E+02  0.00000000000E+00 0. -1.
<mgrwt>
<rscale>  0 0.12175388E+03</rscale>
<asrwt>0</asrwt>
<pdfrwt beam="2">  1        3 0.13317244E-01 0.13029113E+03</pdfrwt>
<pdfrwt beam="1">  1       -3 0.30090228E-01 0.13029113E+03</pdfrwt>
<totfact> 0.11122898E+03</totfact>
</mgrwt>
</event>
<event>
 8    1  0.1273312E-005  0.1310002E+03  0.7546771E-02  0.1240520E+00
         -1   -1    0    0    0  501 -0.00000000000E+00  0.00000000000E+00  0.50653252036E+02  0.50653252036E+02  0.00000000000E+00 0.  1.
          1   -1    0    0  501    0  0.00000000000E+00 -0.00000000000E+00 -0.27691795478E+03  0.27691795478E+03  0.00000000000E+00 0. -1.
         23    2    1    2    0    0 -0.35285904859E+02  0.16883904472E+02 -0.54061062947E+02  0.11120313199E+03  0.88957162308E+02 0.  0.
         23    2    1    2    0    0  0.35285904859E+02 -0.16883904472E+02 -0.17220363980E+03  0.21636807482E+03  0.12502355351E+03 0.  0.
          5    1    4    4  502    0 -0.41042340691E+02  0.93600676531E+01 -0.97438053585E+02  0.10624664175E+03  0.47000000000E+01 0.  1.
         -5    1    4    4    0  502  0.76328245549E+02 -0.26243972125E+02 -0.74765586214E+02  0.11012143308E+03  0.47000000000E+01 0.  1.
        -11    1    3    3    0    0 -0.17518814194E+02 -0.31279704039E+02 -0.47407825250E+02  0.59437619657E+02  0.00000000000E+00 0. -1.
         11    1    3    3    0    0 -0.17767090665E+02  0.48163608511E+02 -0.66532376974E+01  0.51765512335E+02  0.00000000000E+00 0.  1.
<mgrwt>
<rscale>  0 0.12157542E+03</rscale>
<asrwt>0</asrwt>
<pdfrwt beam="2">  1        1 0.42602763E-01 0.13100019E+03</pdfrwt>
<pdfrwt beam="1">  1       -1 0.77928079E-02 0.13100019E+03</pdfrwt>
<totfact> 0.82279298E+03</totfact>
</mgrwt>
</event>
<event>
 8    1  0.1273312E-005  0.1600692E+03  0.7546771E-02  0.1195901E+00
         -2   -1    0    0    0  501 -0.00000000000E+00  0.00000000000E+00  0.18611454802E+02  0.18611454802E+02  0.00000000000E+00 0.  1.
          2   -1    0    0  501    0  0.00000000000E+00 -0.00000000000E+00 -0.11825843713E+04  0.11825843713E+04  0.00000000000E+00 0. -1.
         23    2    1    2    0    0  0.86336753312E+02 -0.50427253758E+02 -0.50950681203E+03  0.52743916346E+03  0.92725059955E+02 0.  0.
         23    2    1    2    0    0 -0.86336753312E+02  0.50427253758E+02 -0.65446610448E+03  0.67375666267E+03  0.12500086270E+03 0.  0.
          5    1    4    4  502    0 -0.47882384836E+02  0.83509192811E+02 -0.53904451463E+03  0.54759253722E+03  0.47000000000E+01 0.  1.
         -5    1    4    4    0  502 -0.38454368476E+02 -0.33081939053E+02 -0.11542158985E+03  0.12616412545E+03  0.47000000000E+01 0.  1.
        -11    1    3    3    0    0  0.13095223359E+02  0.26705004270E+02 -0.12518711644E+03  0.12867189378E+03  0.00000000000E+00 0.  1.
         11    1    3    3    0    0  0.73241529954E+02 -0.77132258028E+02 -0.38431969560E+03  0.39876726967E+03  0.00000000000E+00 0. -1.
<mgrwt>
<rscale>  0 0.15378184E+03</rscale>
<asrwt>0</asrwt>
<pdfrwt beam="2">  1        2 0.18193607E+00 0.16006923E+03</pdfrwt>
<pdfrwt beam="1">  1       -2 0.28633005E-02 0.16006923E+03</pdfrwt>
<totfact> 0.90770129E+03</totfact>
</mgrwt>
</event>
<event>
 8    1  0.1273312E-005  0.1661677E+03  0.7546771E-02  0.1188558E+00
          2   -1    0    0  501    0  0.00000000000E+00  0.00000000000E+00  0.31805025693E+03  0.31805025693E+03  0.00000000000E+00 0. -1.
         -2   -1    0    0    0  501 -0.00000000000E+00 -0.00000000000E+00 -0.75284730293E+02  0.75284730293E+02  0.00000000000E+00 0.  1.
         23    2    1    2    0    0 -0.10271658016E+03  0.37902174865E+02  0.10952125597E+03  0.18034266085E+03  0.92419149074E+02 0.  0.
         23    2    1    2    0    0  0.10271658016E+03 -0.37902174865E+02  0.13324427067E+03  0.21299232636E+03  0.12499769888E+03 0.  0.
          5    1    4    4  502    0  0.43638329353E+02  0.44005790941E+02  0.31972914892E+02  0.69893996250E+02  0.47000000000E+01 0.  1.
         -5    1    4    4    0  502  0.59078250810E+02 -0.81907965806E+02  0.10127135577E+03  0.14309833011E+03  0.47000000000E+01 0.  1.
        -11    1    3    3    0    0 -0.97517051268E+02  0.63865005371E+02  0.85160729809E+02  0.14436295959E+03  0.00000000000E+00 0. -1.
         11    1    3    3    0    0 -0.51995288947E+01 -0.25962830506E+02  0.24360526159E+02  0.35979701268E+02  0.00000000000E+00 0.  1.
<mgrwt>
<rscale>  0 0.16012338E+03</rscale>
<asrwt>0</asrwt>
<pdfrwt beam="1">  1        2 0.48930808E-01 0.16616767E+03</pdfrwt>
<pdfrwt beam="2">  1       -2 0.11582266E-01 0.16616767E+03</pdfrwt>
<totfact> 0.52095918E+03</totfact>
</mgrwt>
</event>
<event>
 8    1  0.1273312E-005  0.1256835E+03  0.7546771E-02  0.1246263E+00
          2   -1    0    0  501    0  0.00000000000E+00  0.00000000000E+00  0.51280121522E+03  0.51280121522E+03  0.00000000000E+00 0. -1.
         -2   -1    0    0    0  501 -0.00000000000E+00 -0.00000000000E+00 -0.24533754777E+02  0.24533754777E+02  0.00000000000E+00 0.  1.
         23    2    1    2    0    0 -0.12846530662E+01 -0.13073723788E+02  0.19371936890E+03  0.21709301694E+03  0.97106186867E+02 0.  0.
         23    2    1    2    0    0  0.12846530662E+01  0.13073723788E+02  0.29454809154E+03  0.32024195306E+03  0.12499503063E+03 0.  0.
          5    1    4    4  502    0 -0.27318747582E+02  0.61842703739E+02  0.13828953554E+03  0.15400298573E+03  0.47000000000E+01 0.  1.
         -5    1    4    4    0  502  0.28603400648E+02 -0.48768979951E+02  0.15625855600E+03  0.16623896732E+03  0.47000000000E+01 0.  1.
        -11    1    3    3    0    0 -0.39043676453E+02  0.21866622157E+02  0.69725240719E+02  0.82850268732E+02  0.00000000000E+00 0.  1.
         11    1    3    3    0    0  0.37759023387E+02 -0.34940345946E+02  0.12399412818E+03  0.13424274821E+03  0.00000000000E+00 0. -1.
<mgrwt>
<rscale>  0 0.11810134E+03</rscale>
<asrwt>0</asrwt>
<pdfrwt beam="1">  1        2 0.78892487E-01 0.12568345E+03</pdfrwt>
<pdfrwt beam="2">  1       -2 0.37744242E-02 0.12568345E+03</pdfrwt>
<totfact> 0.17017084E+04</totfact>
</mgrwt>
</event>
<event>
 8    1  0.1273312E-005  0.1254957E+03  0.7546771E-02  0.1250054E+00
          1   -1    0    0  501    0  0.00000000000E+00  0.00000000000E+00  0.11041346866E+03  0.11041346866E+03  0.00000000000E+00 0. -1.
         -1   -1    0    0    0  501 -0.00000000000E+00 -0.00000000000E+00 -0.12359659481E+03  0.12359659481E+03  0.00000000000E+00 0.  1.
         23    2    1    2    0    0 -0.45868682662E+01 -0.10162768944E+02 -0.48929852382E+02  0.10352247446E+03  0.90545298227E+02 0.  0.
         23    2    1    2    0    0  0.45868682662E+01  0.10162768944E+02  0.35746726231E+02  0.13048758901E+03  0.12499944486E+03 0.  0.
          5    1    4    4  502    0 -0.16909377119E+02  0.62722545401E+02  0.39854545303E+01  0.65253494803E+02  0.47000000000E+01 0. -1.
         -5    1    4    4    0  502  0.21496245385E+02 -0.52559776457E+02  0.31761271701E+02  0.65234094206E+02  0.47000000000E+01 0. -1.
        -11    1    3    3    0    0 -0.15665532345E+02 -0.48209184107E+02 -0.20155258793E+02  0.54550607631E+02  0.00000000000E+00 0. -1.
         11    1    3    3    0    0  0.11078664078E+02  0.38046415163E+02 -0.28774593588E+02  0.48971866829E+02  0.00000000000E+00 0.  1.
<mgrwt>
<rscale>  0 0.11587914E+03</rscale>
<asrwt>0</asrwt>
<pdfrwt beam="1">  1        1 0.16986688E-01 0.12549575E+03</pdfrwt>
<pdfrwt beam="2">  1       -1 0.19014861E-01 0.12549575E+03</pdfrwt>
<totfact> 0.65340962E+03</totfact>
</mgrwt>
</event>
<event>
 8    1  0.1273312E-005  0.1186532E+03  0.7546771E-02  0.1253668E+00
          2   -1    0    0  501    0  0.00000000000E+00  0.00000000000E+00  0.75222224355E+02  0.75222224355E+02  0.00000000000E+00 0. -1.
         -2   -1    0    0    0  501 -0.00000000000E+00 -0.00000000000E+00 -0.16235326682E+03  0.16235326682E+03  0.00000000000E+00 0.  1.
         23    2    1    2    0    0 -0.12068784328E+02  0.87963049139E+01 -0.55592717830E+02  0.11480231010E+03  0.99327687951E+02 0.  0.
         23    2    1    2    0    0  0.12068784328E+02 -0.87963049139E+01 -0.31538324634E+02  0.12277318107E+03  0.11770963229E+03 0.  0.
          5    1    4    4  502    0  0.51882992620E+01 -0.50710390409E+02  0.20755532257E+02  0.55238974139E+02  0.47000000000E+01 0. -1.
         -5    1    4    4    0  502  0.68804850657E+01  0.41914085495E+02 -0.52293856891E+02  0.67534206934E+02  0.47000000000E+01 0.  1.
        -11    1    3    3    0    0 -0.17086126537E+02 -0.40163715477E+02 -0.48214120478E+02  0.65035845305E+02  0.00000000000E+00 0. -1.
         11    1    3    3    0    0  0.50173422095E+01  0.48960020391E+02 -0.73785973512E+01  0.49766464797E+02  0.00000000000E+00 0.  1.
<mgrwt>
<rscale>  0 0.11381272E+03</rscale>
<asrwt>0</asrwt>
<pdfrwt beam="1">  1        2 0.11572650E-01 0.11865323E+03</pdfrwt>
<pdfrwt beam="2">  1       -2 0.24977426E-01 0.11865323E+03</pdfrwt>
<totfact> 0.71119714E+03</totfact>
</mgrwt>
</event>
<event>
 8    1  0.3563566E-005  0.2008033E+03  0.7546771E-02  0.1153273E+00
         -2   -1    0    0    0  501 -0.00000000000E+00  0.00000000000E+00  0.46114880310E+02  0.46114880310E+02  0.00000000000E+00 0.  1.
          2   -1    0    0  501    0  0.00000000000E+00 -0.00000000000E+00 -0.89388218568E+03  0.89388218568E+03  0.00000000000E+00 0. -1.
         23    2    1    2    0    0  0.83666822862E+02 -0.13302955547E+03 -0.24783496230E+03  0.30735120505E+03  0.91354227197E+02 0.  0.
         23    2    1    2    0    0 -0.83666822862E+02  0.13302955547E+03 -0.59993234306E+03  0.63264586094E+03  0.12499987695E+03 0.  0.
          5    1    4    4  502    0  0.17952200123E+02 -0.12545903286E+02 -0.87024719443E+02  0.89861409807E+02  0.47000000000E+01 0. -1.
         -5    1    4    4    0  502 -0.10161902299E+03  0.14557545876E+03 -0.51290762362E+03  0.54278445114E+03  0.47000000000E+01 0. -1.
        -11    1    3    3    0    0  0.20654815594E+02 -0.40789526433E+02 -0.15654628296E+03  0.16308631329E+03  0.00000000000E+00 0. -1.
         11    1    3    3    0    0  0.63012007268E+02 -0.92240029036E+02 -0.91288679339E+02  0.14426489175E+03  0.00000000000E+00 0.  1.
<mgrwt>
<rscale>  0 0.19586752E+03</rscale>
<asrwt>0</asrwt>
<pdfrwt beam="2">  1        2 0.13752033E+00 0.20080331E+03</pdfrwt>
<pdfrwt beam="1">  1       -2 0.70945972E-02 0.20080331E+03</pdfrwt>
<totfact> 0.34678856E+03</totfact>
</mgrwt>
</event>
<event>
 8    1  0.1273312E-005  0.1417781E+03  0.7546771E-02  0.1223189E+00
         -2   -1    0    0    0  501 -0.00000000000E+00  0.00000000000E+00  0.18875357077E+02  0.18875357077E+02  0.00000000000E+00 0.  1.
          2   -1    0    0  501    0  0.00000000000E+00 -0.00000000000E+00 -0.89956722368E+03  0.89956722368E+03  0.00000000000E+00 0. -1.
         23    2    1    2    0    0 -0.65488665924E+02  0.13698407830E+02 -0.26708099664E+03  0.28866536511E+03  0.86712297299E+02 0.  0.
         23    2    1    2    0    0  0.65488665924E+02 -0.13698407830E+02 -0.61361086997E+03  0.62977721566E+03  0.12499851950E+03 0.  0.
          5    1    4    4  502    0  0.31191043771E+02 -0.66137361543E+02 -0.41640305353E+03  0.42280092809E+03  0.47000000000E+01 0. -1.
         -5    1    4    4    0  502  0.34297622152E+02  0.52438953713E+02 -0.19720781644E+03  0.20697628757E+03  0.47000000000E+01 0. -1.
        -11    1    3    3    0    0 -0.13176762646E+02  0.25493258340E+02 -0.17995599999E+02  0.33872923021E+02  0.00000000000E+00 0.  1.
         11    1    3    3    0    0 -0.52311903278E+02 -0.11794850510E+02 -0.24908539664E+03  0.25479244209E+03  0.00000000000E+00 0. -1.
<mgrwt>
<rscale>  0 0.13291805E+03</rscale>
<asrwt>0</asrwt>
<pdfrwt beam="2">  1        2 0.13839499E+00 0.14177814E+03</pdfrwt>
<pdfrwt beam="1">  1       -2 0.29039005E-02 0.14177814E+03</pdfrwt>
<totfact> 0.12985617E+04</totfact>
</mgrwt>
</event>
<event>
 8    1  0.1273312E-005  0.1331617E+03  0.7546771E-02  0.1229987E+00
         -2   -1    0    0    0  501 -0.00000000000E+00  0.00000000000E+00  0.20263083599E+03  0.20263083599E+03  0.00000000000E+00 0.  1.
          2   -1    0    0  501    0  0.00000000000E+00 -0.00000000000E+00 -0.96676575336E+02  0.96676575336E+02  0.00000000000E+00 0. -1.
         23    2    1    2    0    0 -0.61822925108E+02 -0.28804929726E+02  0.11920815187E+03  0.16548777808E+03  0.92324553480E+02 0.  0.
         23    2    1    2    0    0  0.61822925108E+02  0.28804929726E+02 -0.13253891216E+02  0.13381963325E+03  0.11436883564E+03 0.  0.
          5    1    4    4  502    0  0.94724342114E+02  0.31095362595E+02 -0.85316116529E+01  0.10017235627E+03  0.47000000000E+01 0. -1.
         -5    1    4    4    0  502 -0.32901417006E+02 -0.22904328691E+01 -0.47222795631E+01  0.33647276977E+02  0.47000000000E+01 0.  1.
        -11    1    3    3    0    0 -0.10079361422E+02  0.14000854512E+02  0.91047957555E+02  0.92667944990E+02  0.00000000000E+00 0.  1.
         11    1    3    3    0    0 -0.51743563686E+02 -0.42805784238E+02  0.28160194317E+02  0.72819833089E+02  0.00000000000E+00 0. -1.
<mgrwt>
<rscale>  0 0.12830861E+03</rscale>
<asrwt>0</asrwt>
<pdfrwt beam="2">  1        2 0.14873319E-01 0.13316166E+03</pdfrwt>
<pdfrwt beam="1">  1       -2 0.31173975E-01 0.13316166E+03</pdfrwt>
<totfact> 0.35929345E+03</totfact>
</mgrwt>
</event>
<event>
 8    1  0.1273312E-005  0.1505261E+03  0.7546771E-02  0.1209281E+00
          1   -1    0    0  501    0  0.00000000000E+00  0.00000000000E+00  0.21305421129E+03  0.21305421129E+03  0.00000000000E+00 0. -1.
         -1   -1    0    0    0  501 -0.00000000000E+00 -0.00000000000E+00 -0.11074728929E+03  0.11074728929E+03  0.00000000000E+00 0.  1.
         23    2    1    2    0    0 -0.78891831074E+02 -0.28548771826E+02 -0.26589449192E+02  0.12562886291E+03  0.89647414942E+02 0.  0.
         23    2    1    2    0    0  0.78891831074E+02  0.28548771826E+02  0.12889637119E+03  0.19817263767E+03  0.12497666355E+03 0.  0.
          5    1    4    4  502    0  0.36925596175E+02 -0.46212778081E+01 -0.18119813485E+02  0.41656614147E+02  0.47000000000E+01 0. -1.
         -5    1    4    4    0  502  0.41966234900E+02  0.33170049634E+02  0.14701618467E+03  0.15651602352E+03  0.47000000000E+01 0. -1.
        -11    1    3    3    0    0 -0.43746639564E+02 -0.37052547298E+02  0.25070401942E+02  0.62571437477E+02  0.00000000000E+00 0. -1.
         11    1    3    3    0    0 -0.35145191511E+02  0.85037754721E+01 -0.51659851134E+02  0.63057425437E+02  0.00000000000E+00 0.  1.
<mgrwt>
<rscale>  0 0.14305180E+03</rscale>
<asrwt>0</asrwt>
<pdfrwt beam="1">  1        1 0.32777571E-01 0.15052614E+03</pdfrwt>
<pdfrwt beam="2">  1       -1 0.17038044E-01 0.15052614E+03</pdfrwt>
<totfact> 0.34352657E+03</totfact>
</mgrwt>
</event>
<event>
 8    1  0.1273312E-005  0.1610308E+03  0.7546771E-02  0.1195622E+00
         -1   -1    0    0    0  501 -0.00000000000E+00  0.00000000000E+00  0.78594552718E+02  0.78594552718E+02  0.00000000000E+00 0.  1.
          1   -1    0    0  501    0  0.00000000000E+00 -0.00000000000E+00 -0.45891615399E+03  0.45891615399E+03  0.00000000000E+00 0. -1.
         23    2    1    2    0    0  0.48333278370E+02 -0.89269594797E+02 -0.11713604240E+02  0.13526353829E+03  0.88621949389E+02 0.  0.
         23    2    1    2    0    0 -0.48333278370E+02  0.89269594797E+02 -0.36860799703E+03  0.40224716842E+03  0.12500305064E+03 0.  0.
          5    1    4    4  502    0  0.46470502986E+01  0.10526504405E+03 -0.23866843400E+03  0.26093492668E+03  0.47000000000E+01 0.  1.
         -5    1    4    4    0  502 -0.52980328668E+02 -0.15995449252E+02 -0.12993956303E+03  0.14131224173E+03  0.47000000000E+01 0.  1.
        -11    1    3    3    0    0 -0.94073245428E+00 -0.30732571869E+02 -0.42779510688E+02  0.52682658304E+02  0.00000000000E+00 0. -1.
         11    1    3    3    0    0  0.49274010824E+02 -0.58537022927E+02  0.31065906449E+02  0.82580879987E+02  0.00000000000E+00 0.  1.
<mgrwt>
<rscale>  0 0.15401688E+03</rscale>
<asrwt>0</asrwt>
<pdfrwt beam="2">  1        1 0.70602485E-01 0.16103083E+03</pdfrwt>
<pdfrwt beam="1">  1       -1 0.12091470E-01 0.16103083E+03</pdfrwt>
<totfact> 0.22552187E+03</totfact>
</mgrwt>
</event>
<event>
 7    1  0.1273312E-005  0.7059393E+03  0.7546771E-02  0.9707129E-01
          2   -1    0    0  501    0  0.00000000000E+00  0.00000000000E+00  0.12036905027E+04  0.12036905027E+04  0.00000000000E+00 0. -1.
         -2   -1    0    0    0  501 -0.00000000000E+00 -0.00000000000E+00 -0.10350464471E+03  0.10350464471E+03  0.00000000000E+00 0.  1.
         23    2    1    2    0    0 -0.26697358886E+02 -0.65105321912E+02  0.11326700366E+04  0.11415794437E+04  0.12373666610E+03 0.  0.
          5    1    3    3  502    0 -0.43053828236E+01  0.27593618388E+02  0.58232227827E+03  0.58301052295E+03  0.47000000000E+01 0. -1.
         -5    1    3    3    0  502 -0.22391976063E+02 -0.92698940300E+02  0.55034775830E+03  0.55856892072E+03  0.47000000000E+01 0.  1.
        -11    1    1    2    0    0  0.54267878245E+02  0.64340691228E+01 -0.71470659563E+02  0.89969189354E+02  0.00000000000E+00 0.  1.
         11    1    1    2    0    0 -0.27570519359E+02  0.58671252789E+02  0.38986481001E+02  0.75646514410E+02  0.00000000000E+00 0. -1.
<mgrwt>
<rscale>  0 0.70593925E+03</rscale>
<asrwt>0</asrwt>
<pdfrwt beam="1">  1        2 0.18518314E+00 0.70593925E+03</pdfrwt>
<pdfrwt beam="2">  1       -2 0.15923792E-01 0.70593925E+03</pdfrwt>
<totfact> 0.60203901E+02</totfact>
</mgrwt>
</event>
<event>
 8    1  0.1273312E-005  0.1350521E+03  0.7546771E-02  0.1232606E+00
          2   -1    0    0  501    0  0.00000000000E+00  0.00000000000E+00  0.11331462101E+03  0.11331462101E+03  0.00000000000E+00 0. -1.
         -2   -1    0    0    0  501 -0.00000000000E+00 -0.00000000000E+00 -0.12669131371E+03  0.12669131371E+03  0.00000000000E+00 0.  1.
         23    2    1    2    0    0  0.34408404046E+02  0.37834609139E+02  0.39494156050E+00  0.10425346051E+03  0.90847301177E+02 0.  0.
         23    2    1    2    0    0 -0.34408404046E+02 -0.37834609139E+02 -0.13771634266E+02  0.13575247421E+03  0.12499472159E+03 0.  0.
          5    1    4    4  502    0  0.57532199835E+01 -0.77822837393E+02 -0.86205671902E+01  0.78650478313E+02  0.47000000000E+01 0. -1.
         -5    1    4    4    0  502 -0.40161624030E+02  0.39988228254E+02 -0.51510670753E+01  0.57101995899E+02  0.47000000000E+01 0. -1.
        -11    1    3    3    0    0  0.49251101489E+02  0.44858665727E+02  0.27896011680E+02  0.72222976651E+02  0.00000000000E+00 0. -1.
         11    1    3    3    0    0 -0.14842697443E+02 -0.70240565878E+01 -0.27501070119E+02  0.32030483856E+02  0.00000000000E+00 0.  1.
<mgrwt>
<rscale>  0 0.12658956E+03</rscale>
<asrwt>0</asrwt>
<pdfrwt beam="1">  1        2 0.17433019E-01 0.13505212E+03</pdfrwt>
<pdfrwt beam="2">  1       -2 0.19490971E-01 0.13505212E+03</pdfrwt>
<totfact> 0.67848262E+03</totfact>
</mgrwt>
</event>
<event>
 8    1  0.1273312E-005  0.1449971E+03  0.7546771E-02  0.1216801E+00
         -2   -1    0    0    0  501 -0.00000000000E+00  0.00000000000E+00  0.14646112646E+03  0.14646112646E+03  0.00000000000E+00 0.  1.
          2   -1    0    0  501    0  0.00000000000E+00 -0.00000000000E+00 -0.19511225037E+03  0.19511225037E+03  0.00000000000E+00 0. -1.
         23    2    1    2    0    0  0.68148611510E+02 -0.27466574861E+02  0.84753961629E+02  0.14454269581E+03  0.91163100622E+02 0.  0.
         23    2    1    2    0    0 -0.68148611510E+02  0.27466574861E+02 -0.13340508554E+03  0.19703068102E+03  0.12500210570E+03 0.  0.
          5    1    4    4  502    0 -0.31799181293E+02 -0.33478973160E+02 -0.11434154951E+03  0.12340222655E+03  0.47000000000E+01 0. -1.
         -5    1    4    4    0  502 -0.36349430218E+02  0.60945548021E+02 -0.19063536032E+02  0.73628454464E+02  0.47000000000E+01 0. -1.
        -11    1    3    3    0    0  0.12133397530E+02 -0.20995522335E+02  0.84754130293E+02  0.88154942547E+02  0.00000000000E+00 0.  1.
         11    1    3    3    0    0  0.56015213980E+02 -0.64710525262E+01 -0.16866481971E-03  0.56387753263E+02  0.00000000000E+00 0. -1.
<mgrwt>
<rscale>  0 0.13745063E+03</rscale>
<asrwt>0</asrwt>
<pdfrwt beam="2">  1        2 0.30017269E-01 0.14499715E+03</pdfrwt>
<pdfrwt beam="1">  1       -2 0.22532481E-01 0.14499715E+03</pdfrwt>
<totfact> 0.29026427E+03</totfact>
</mgrwt>
</event>
<event>
 8    1  0.1273312E-005  0.1325064E+03  0.7546771E-02  0.1236327E+00
         -2   -1    0    0    0  501 -0.00000000000E+00  0.00000000000E+00  0.37210398440E+02  0.37210398440E+02  0.00000000000E+00 0.  1.
          2   -1    0    0  501    0  0.00000000000E+00 -0.00000000000E+00 -0.59800625475E+03  0.59800625475E+03  0.00000000000E+00 0. -1.
         23    2    1    2    0    0  0.13721636125E+01  0.43917802681E+02 -0.63073253536E+02  0.12015768748E+03  0.92352467885E+02 0.  0.
         23    2    1    2    0    0 -0.13721636125E+01 -0.43917802681E+02 -0.49772260277E+03  0.51505896570E+03  0.12500917013E+03 0.  0.
          5    1    4    4  502    0 -0.53067678309E+02 -0.57669254153E+02 -0.27846113167E+03  0.28931749551E+03  0.47000000000E+01 0. -1.
         -5    1    4    4    0  502  0.51695514696E+02  0.13751451472E+02 -0.21926147110E+03  0.22574147019E+03  0.47000000000E+01 0. -1.
        -11    1    3    3    0    0 -0.33210963090E+02  0.41738844691E+02 -0.66600223523E+02  0.85326953530E+02  0.00000000000E+00 0. -1.
         11    1    3    3    0    0  0.34583126702E+02  0.21789579898E+01  0.35269699870E+01  0.34830733953E+02  0.00000000000E+00 0.  1.
<mgrwt>
<rscale>  0 0.12419875E+03</rscale>
<asrwt>0</asrwt>
<pdfrwt beam="2">  1        2 0.92000967E-01 0.13250641E+03</pdfrwt>
<pdfrwt beam="1">  1       -2 0.57246764E-02 0.13250641E+03</pdfrwt>
<totfact> 0.77209031E+03</totfact>
</mgrwt>
</event>
<event>
 8    1  0.1273312E-005  0.1315309E+03  0.7546771E-02  0.1239553E+00
          1   -1    0    0  501    0  0.00000000000E+00  0.00000000000E+00  0.37377993090E+03  0.37377993090E+03  0.00000000000E+00 0. -1.
         -1   -1    0    0    0  501 -0.00000000000E+00 -0.00000000000E+00 -0.35240173810E+02  0.35240173810E+02  0.00000000000E+00 0.  1.
         23    2    1    2    0    0  0.36383516333E+02  0.18731584118E+02  0.13860250852E+03  0.16969757114E+03  0.88949298927E+02 0.  0.
         23    2    1    2    0    0 -0.36383516333E+02 -0.18731584118E+02  0.19993724857E+03  0.23932253356E+03  0.12500295678E+03 0.  0.
          5    1    4    4  502    0 -0.76874909373E+02 -0.54504373836E+01  0.17092851945E+03  0.18755827819E+03  0.47000000000E+01 0.  1.
         -5    1    4    4    0  502  0.40491393040E+02 -0.13281146734E+02  0.29008729121E+02  0.51764255371E+02  0.47000000000E+01 0.  1.
        -11    1    3    3    0    0  0.55028388032E+01  0.88642884404E+01 -0.11851954390E+02  0.15790049630E+02  0.00000000000E+00 0.  1.
         11    1    3    3    0    0  0.30880677530E+02  0.98672956773E+01  0.15045446291E+03  0.15390752151E+03  0.00000000000E+00 0. -1.
<mgrwt>
<rscale>  0 0.12217404E+03</rscale>
<asrwt>0</asrwt>
<pdfrwt beam="1">  1        1 0.57504602E-01 0.13153088E+03</pdfrwt>
<pdfrwt beam="2">  1       -1 0.54215654E-02 0.13153088E+03</pdfrwt>
<totfact> 0.97515647E+03</totfact>
</mgrwt>
</event>
<event>
 8    1  0.1273312E-005  0.1278319E+03  0.7546771E-02  0.1255466E+00
         -1   -1    0    0    0  501 -0.00000000000E+00  0.00000000000E+00  0.29343497865E+03  0.29343497865E+03  0.00000000000E+00 0.  1.
          1   -1    0    0  501    0  0.00000000000E+00 -0.00000000000E+00 -0.38428495325E+02  0.38428495325E+02  0.00000000000E+00 0. -1.
         23    2    1    2    0    0  0.26765843582E+02 -0.66876463562E+00  0.13944888698E+03  0.15954237365E+03  0.72738705523E+02 0.  0.
         23    2    1    2    0    0 -0.26765843582E+02  0.66876463562E+00  0.11555759634E+03  0.17232110032E+03  0.12499658362E+03 0.  0.
          5    1    4    4  502    0 -0.65229616448E+02 -0.20690230203E+02  0.10723806972E+03  0.12729918336E+03  0.47000000000E+01 0. -1.
         -5    1    4    4    0  502  0.38463772866E+02  0.21358994839E+02  0.83195266250E+01  0.45021916962E+02  0.47000000000E+01 0. -1.
        -11    1    3    3    0    0 -0.42973848418E+01 -0.13967395944E+02 -0.14154758302E+01  0.14681935763E+02  0.00000000000E+00 0. -1.
         11    1    3    3    0    0  0.31063228424E+02  0.13298631308E+02  0.14086436281E+03  0.14486043789E+03  0.00000000000E+00 0.  1.
<mgrwt>
<rscale>  0 0.11280251E+03</rscale>
<asrwt>0</asrwt>
<pdfrwt beam="2">  1        1 0.59120764E-02 0.12783193E+03</pdfrwt>
<pdfrwt beam="1">  1       -1 0.45143841E-01 0.12783193E+03</pdfrwt>
<totfact> 0.61861465E+03</totfact>
</mgrwt>
</event>
<event>
 8    1  0.1273312E-005  0.1329059E+03  0.7546771E-02  0.1236408E+00
         -3   -1    0    0    0  501 -0.00000000000E+00  0.00000000000E+00  0.71779956767E+02  0.71779956767E+02  0.00000000000E+00 0.  1.
          3   -1    0    0  501    0  0.00000000000E+00 -0.00000000000E+00 -0.20759127988E+03  0.20759127988E+03  0.00000000000E+00 0. -1.
         23    2    1    2    0    0  0.27889360938E+02  0.35513852265E+02 -0.20120444287E+02  0.10316576548E+03  0.90549946060E+02 0.  0.
         23    2    1    2    0    0 -0.27889360938E+02 -0.35513852265E+02 -0.11569087882E+03  0.17620547117E+03  0.12499975388E+03 0.  0.
          5    1    4    4  502    0 -0.27228084346E+02  0.41902927382E+02 -0.70164513028E+02  0.86269187946E+02  0.47000000000E+01 0. -1.
         -5    1    4    4    0  502 -0.66127659185E+00 -0.77416779647E+02 -0.45526365796E+02  0.89936283225E+02  0.47000000000E+01 0. -1.
        -11    1    3    3    0    0 -0.84590255710E+01  0.48749703411E+02 -0.36165968045E+02  0.61286751757E+02  0.00000000000E+00 0. -1.
         11    1    3    3    0    0  0.36348386509E+02 -0.13235851147E+02  0.16045523757E+02  0.41879013718E+02  0.00000000000E+00 0.  1.
<mgrwt>
<rscale>  0 0.12414722E+03</rscale>
<asrwt>0</asrwt>
<pdfrwt beam="2">  1        3 0.31937121E-01 0.13290594E+03</pdfrwt>
<pdfrwt beam="1">  1       -3 0.11043070E-01 0.13290594E+03</pdfrwt>
<totfact> 0.13680378E+03</totfact>
</mgrwt>
</event>
<event>
 8    1  0.1273312E-005  0.1321629E+03  0.7546771E-02  0.1236605E+00
          3   -1    0    0  501    0  0.00000000000E+00  0.00000000000E+00  0.43813814146E+03  0.43813814146E+03  0.00000000000E+00 0. -1.
         -3   -1    0    0    0  501 -0.00000000000E+00 -0.00000000000E+00 -0.40592973421E+02  0.40592973421E+02  0.00000000000E+00 0.  1.
         23    2    1    2    0    0  0.44783373586E-01 -0.42907622610E+02  0.66221006304E+02  0.12202013964E+03  0.93073233094E+02 0.  0.
         23    2    1    2    0    0 -0.44783373586E-01  0.42907622610E+02  0.33132416173E+03  0.35671097524E+03  0.12500381444E+03 0.  0.
          5    1    4    4  502    0 -0.12590046811E+02  0.74387217871E+01  0.31509469586E+03  0.31546885935E+03  0.47000000000E+01 0.  1.
         -5    1    4    4    0  502  0.12545263437E+02  0.35468900822E+02  0.16229465871E+02  0.41242115886E+02  0.47000000000E+01 0.  1.
        -11    1    3    3    0    0  0.99701365592E+01 -0.17094275731E+02 -0.21985304348E+02  0.29579917056E+02  0.00000000000E+00 0.  1.
         11    1    3    3    0    0 -0.99253531856E+01 -0.25813346879E+02  0.88206310651E+02  0.92440222585E+02  0.00000000000E+00 0. -1.
<mgrwt>
<rscale>  0 0.12402231E+03</rscale>
<asrwt>0</asrwt>
<pdfrwt beam="1">  1        3 0.67405865E-01 0.13216285E+03</pdfrwt>
<pdfrwt beam="2">  1       -3 0.62450731E-02 0.13216285E+03</pdfrwt>
<totfact> 0.79282977E+02</totfact>
</mgrwt>
</event>
<event>
 8    1  0.1273312E-005  0.1398935E+03  0.7546771E-02  0.1223926E+00
          1   -1    0    0  501    0  0.00000000000E+00  0.00000000000E+00  0.41101736895E+03  0.41101736895E+03  0.00000000000E+00 0. -1.
         -1   -1    0    0    0  501 -0.00000000000E+00 -0.00000000000E+00 -0.41131501386E+02  0.41131501386E+02  0.00000000000E+00 0.  1.
         23    2    1    2    0    0 -0.51367434523E+02  0.36098981182E+02  0.11097400053E+03  0.15786068416E+03  0.93075329917E+02 0.  0.
         23    2    1    2    0    0  0.51367434523E+02 -0.36098981182E+02  0.25891186703E+03  0.29428818617E+03  0.12501372668E+03 0.  0.
          5    1    4    4  502    0 -0.15420075212E+02  0.28251201231E+02  0.13827224810E+03  0.14204651944E+03  0.47000000000E+01 0. -1.
         -5    1    4    4    0  502  0.66787509735E+02 -0.64350182413E+02  0.12063961894E+03  0.15224166674E+03  0.47000000000E+01 0. -1.
        -11    1    3    3    0    0 -0.73451671018E+01 -0.29008330660E+02  0.50476302788E+02  0.58679569448E+02  0.00000000000E+00 0. -1.
         11    1    3    3    0    0 -0.44022267422E+02  0.65107311842E+02  0.60497697743E+02  0.99181114717E+02  0.00000000000E+00 0.  1.
<mgrwt>
<rscale>  0 0.13240821E+03</rscale>
<asrwt>0</asrwt>
<pdfrwt beam="1">  1        1 0.63233439E-01 0.13989347E+03</pdfrwt>
<pdfrwt beam="2">  1       -1 0.63279236E-02 0.13989347E+03</pdfrwt>
<totfact> 0.69035196E+03</totfact>
</mgrwt>
</event>
<event>
 8    1  0.1273312E-005  0.1279994E+03  0.7546771E-02  0.1242312E+00
         -2   -1    0    0    0  501 -0.00000000000E+00  0.00000000000E+00  0.37939636925E+02  0.37939636925E+02  0.00000000000E+00 0.  1.
          2   -1    0    0  501    0  0.00000000000E+00 -0.00000000000E+00 -0.63622398983E+03  0.63622398983E+03  0.00000000000E+00 0. -1.
         23    2    1    2    0    0 -0.17916711287E+02  0.39607143764E+02 -0.52072751588E+02  0.11315473959E+03  0.90568699077E+02 0.  0.
         23    2    1    2    0    0  0.17916711287E+02 -0.39607143764E+02 -0.54621160132E+03  0.56100888717E+03  0.12039154326E+03 0.  0.
          5    1    4    4  502    0  0.11836242435E+02 -0.77067593875E+02 -0.23935085942E+03  0.25177457093E+03  0.47000000000E+01 0. -1.
         -5    1    4    4    0  502  0.60804688527E+01  0.37460450111E+02 -0.30686074189E+03  0.30923431624E+03  0.47000000000E+01 0.  1.
        -11    1    3    3    0    0  0.18510331744E+02  0.13806739414E+01  0.17703727309E+02  0.25650742727E+02  0.00000000000E+00 0.  1.
         11    1    3    3    0    0 -0.36427043031E+02  0.38226469822E+02 -0.69776478898E+02  0.87503996860E+02  0.00000000000E+00 0. -1.
<mgrwt>
<rscale>  0 0.12047738E+03</rscale>
<asrwt>0</asrwt>
<pdfrwt beam="2">  1        2 0.97880614E-01 0.12799945E+03</pdfrwt>
<pdfrwt beam="1">  1       -2 0.58368672E-02 0.12799945E+03</pdfrwt>
<totfact> 0.69703746E+03</totfact>
</mgrwt>
</event>
<event>
 8    1  0.1273312E-005  0.2049443E+03  0.7546771E-02  0.1149502E+00
          2   -1    0    0  501    0  0.00000000000E+00  0.00000000000E+00  0.38462113582E+03  0.38462113582E+03  0.00000000000E+00 0. -1.
         -2   -1    0    0    0  501 -0.00000000000E+00 -0.00000000000E+00 -0.10347968492E+03  0.10347968492E+03  0.00000000000E+00 0.  1.
         23    2    1    2    0    0  0.16156623702E+03 -0.15142964922E+02  0.88426438498E+02  0.20678026361E+03  0.92767904280E+02 0.  0.
         23    2    1    2    0    0 -0.16156623702E+03  0.15142964922E+02  0.19271501240E+03  0.28132055712E+03  0.12517676113E+03 0.  0.
          5    1    4    4  502    0 -0.96435370879E+02  0.65895057943E+02  0.14348745408E+03  0.18507479271E+03  0.47000000000E+01 0.  1.
         -5    1    4    4    0  502 -0.65130866137E+02 -0.50752093021E+02  0.49227558323E+02  0.96245764417E+02  0.47000000000E+01 0.  1.
        -11    1    3    3    0    0  0.11381511110E+03 -0.21649253413E+02  0.12063916885E+02  0.11648222087E+03  0.00000000000E+00 0.  1.
         11    1    3    3    0    0  0.47751125913E+02  0.65062884901E+01  0.76362521613E+02  0.90298042741E+02  0.00000000000E+00 0. -1.
<mgrwt>
<rscale>  0 0.20028135E+03</rscale>
<asrwt>0</asrwt>
<pdfrwt beam="1">  1        2 0.59172482E-01 0.20494433E+03</pdfrwt>
<pdfrwt beam="2">  1       -2 0.15919952E-01 0.20494433E+03</pdfrwt>
<totfact> 0.25530684E+03</totfact>
</mgrwt>
</event>
<event>
 8    1  0.1273312E-005  0.1351494E+03  0.7546771E-02  0.1232010E+00
          2   -1    0    0  501    0  0.00000000000E+00  0.00000000000E+00  0.94386237737E+03  0.94386237737E+03  0.00000000000E+00 0. -1.
         -2   -1    0    0    0  501 -0.00000000000E+00 -0.00000000000E+00 -0.26151115106E+02  0.26151115106E+02  0.00000000000E+00 0.  1.
         23    2    1    2    0    0 -0.39873556039E+02 -0.32343236700E+02  0.11471711933E+03  0.15572549611E+03  0.91947959401E+02 0.  0.
         23    2    1    2    0    0  0.39873556039E+02  0.32343236700E+02  0.80299414293E+03  0.81428799637E+03  0.12501744687E+03 0.  0.
          5    1    4    4  502    0  0.28311861794E+02  0.80084339841E+02  0.54787959191E+03  0.55444494788E+03  0.47000000000E+01 0.  1.
         -5    1    4    4    0  502  0.11561694245E+02 -0.47741103140E+02  0.25511455102E+03  0.25984304849E+03  0.47000000000E+01 0.  1.
        -11    1    3    3    0    0  0.13386095855E+02 -0.35554739127E+02  0.11769564279E+02  0.39772473897E+02  0.00000000000E+00 0.  1.
         11    1    3    3    0    0 -0.53259651894E+02  0.32115024265E+01  0.10294755506E+03  0.11595302221E+03  0.00000000000E+00 0. -1.
<mgrwt>
<rscale>  0 0.12697813E+03</rscale>
<asrwt>0</asrwt>
<pdfrwt beam="1">  1        2 0.14520957E+00 0.13514935E+03</pdfrwt>
<pdfrwt beam="2">  1       -2 0.40232492E-02 0.13514935E+03</pdfrwt>
<totfact> 0.75071956E+03</totfact>
</mgrwt>
</event>
<event>
 8    1  0.1273312E-005  0.1275120E+03  0.7546771E-02  0.1247246E+00
         -1   -1    0    0    0  501 -0.00000000000E+00  0.00000000000E+00  0.19823568946E+03  0.19823568946E+03  0.00000000000E+00 0.  1.
          1   -1    0    0  501    0  0.00000000000E+00 -0.00000000000E+00 -0.61836027942E+02  0.61836027942E+02  0.00000000000E+00 0. -1.
         23    2    1    2    0    0  0.56189942088E+00 -0.22421722479E+01  0.74229099304E+02  0.11821089427E+03  0.91970176002E+02 0.  0.
         23    2    1    2    0    0 -0.56189942088E+00  0.22421722479E+01  0.62170562219E+02  0.14186082313E+03  0.12749106348E+03 0.  0.
          5    1    4    4  502    0 -0.51295562528E+02  0.37056418202E+02  0.45051089984E+02  0.77820971298E+02  0.47000000000E+01 0. -1.
         -5    1    4    4    0  502  0.50733663107E+02 -0.34814245954E+02  0.17119472234E+02  0.64039851836E+02  0.47000000000E+01 0.  1.
        -11    1    3    3    0    0  0.16554532513E+01 -0.40407066368E+02  0.72093629051E+01  0.41078540035E+02  0.00000000000E+00 0.  1.
         11    1    3    3    0    0 -0.10935538304E+01  0.38164894120E+02  0.67019736399E+02  0.77132354237E+02  0.00000000000E+00 0. -1.
<mgrwt>
<rscale>  0 0.11751935E+03</rscale>
<asrwt>0</asrwt>
<pdfrwt beam="2">  1        1 0.95132352E-02 0.12751202E+03</pdfrwt>
<pdfrwt beam="1">  1       -1 0.30497798E-01 0.12751202E+03</pdfrwt>
<totfact> 0.64386661E+03</totfact>
</mgrwt>
</event>
<event>
 8    1  0.1273312E-005  0.1253632E+03  0.7546771E-02  0.1250425E+00
          2   -1    0    0  501    0  0.00000000000E+00  0.00000000000E+00  0.10527506791E+03  0.10527506791E+03  0.00000000000E+00 0. -1.
         -2   -1    0    0    0  501 -0.00000000000E+00 -0.00000000000E+00 -0.11152903126E+03  0.11152903126E+03  0.00000000000E+00 0.  1.
         23    2    1    2    0    0 -0.83665034112E+01  0.44243105567E+01 -0.99512081615E+01  0.91386411004E+02  0.90348639553E+02 0.  0.
         23    2    1    2    0    0  0.83665034112E+01 -0.44243105567E+01  0.36972448035E+01  0.12541768817E+03  0.12500541581E+03 0.  0.
          5    1    4    4  502    0 -0.29646809481E+02  0.50292862069E+02  0.21108926758E+01  0.58607603222E+02  0.47000000000E+01 0.  1.
         -5    1    4    4    0  502  0.38013312892E+02 -0.54717172626E+02  0.15863521277E+01  0.66810084944E+02  0.47000000000E+01 0.  1.
        -11    1    3    3    0    0  0.38478354997E+01 -0.25290441076E+02 -0.39945012664E+02  0.47434336557E+02  0.00000000000E+00 0.  1.
         11    1    3    3    0    0 -0.12214338911E+02  0.29714751633E+02  0.29993804503E+02  0.43952074447E+02  0.00000000000E+00 0. -1.
<mgrwt>
<rscale>  0 0.11566457E+03</rscale>
<asrwt>0</asrwt>
<pdfrwt beam="1">  1        2 0.16196164E-01 0.12536318E+03</pdfrwt>
<pdfrwt beam="2">  1       -2 0.17158312E-01 0.12536318E+03</pdfrwt>
<totfact> 0.90862300E+03</totfact>
</mgrwt>
</event>
<event>
 8    1  0.1997312E-005  0.2122878E+03  0.7546771E-02  0.1142665E+00
         -2   -1    0    0    0  501 -0.00000000000E+00  0.00000000000E+00  0.45351818376E+02  0.45351818376E+02  0.00000000000E+00 0.  1.
          2   -1    0    0  501    0  0.00000000000E+00 -0.00000000000E+00 -0.95182901064E+03  0.95182901064E+03  0.00000000000E+00 0. -1.
         23    2    1    2    0    0 -0.77711675078E+02 -0.15297941378E+03 -0.35877689145E+03  0.40977831003E+03  0.98770441172E+02 0.  0.
         23    2    1    2    0    0  0.77711675078E+02  0.15297941378E+03 -0.54770030081E+03  0.58740251898E+03  0.12499717722E+03 0.  0.
          5    1    4    4  502    0  0.10380403493E+03  0.15260018749E+03 -0.49710137538E+03  0.53027725040E+03  0.47000000000E+01 0.  1.
         -5    1    4    4    0  502 -0.26092359856E+02  0.37922629107E+00 -0.50598925432E+02  0.57125268580E+02  0.47000000000E+01 0.  1.
        -11    1    3    3    0    0 -0.80010369188E+02 -0.49288471455E+02 -0.18171164359E+03  0.20457305299E+03  0.00000000000E+00 0.  1.
         11    1    3    3    0    0  0.22986941102E+01 -0.10369094233E+03 -0.17706524787E+03  0.20520525704E+03  0.00000000000E+00 0. -1.
<mgrwt>
<rscale>  0 0.20861758E+03</rscale>
<asrwt>0</asrwt>
<pdfrwt beam="2">  1        2 0.14643523E+00 0.21228778E+03</pdfrwt>
<pdfrwt beam="1">  1       -2 0.69772028E-02 0.21228778E+03</pdfrwt>
<totfact> 0.32742193E+03</totfact>
</mgrwt>
</event>
<event>
 8    1  0.1273312E-005  0.1376959E+03  0.7546771E-02  0.1227872E+00
          3   -1    0    0  501    0  0.00000000000E+00  0.00000000000E+00  0.36283623836E+03  0.36283623836E+03  0.00000000000E+00 0. -1.
         -3   -1    0    0    0  501 -0.00000000000E+00 -0.00000000000E+00 -0.23165355698E+03  0.23165355698E+03  0.00000000000E+00 0.  1.
         23    2    1    2    0    0 -0.57638699058E+02  0.57731308260E+01 -0.20460078027E+03  0.23157010043E+03  0.91693421023E+02 0.  0.
         23    2    1    2    0    0  0.57638699058E+02 -0.57731308260E+01  0.33578346165E+03  0.36291969491E+03  0.12491846607E+03 0.  0.
          5    1    4    4  502    0  0.84896332366E+02  0.31965164566E+02  0.22705812525E+03  0.24455396385E+03  0.47000000000E+01 0. -1.
         -5    1    4    4    0  502 -0.27257633308E+02 -0.37738295392E+02  0.10872533641E+03  0.11836573106E+03  0.47000000000E+01 0.  1.
        -11    1    3    3    0    0 -0.71009308680E+02  0.67154091103E+01 -0.20609013092E+03  0.21808383870E+03  0.00000000000E+00 0.  1.
         11    1    3    3    0    0  0.13370609622E+02 -0.94227828427E+00  0.14893506568E+01  0.13486261729E+02  0.00000000000E+00 0. -1.
<mgrwt>
<rscale>  0 0.12971992E+03</rscale>
<asrwt>0</asrwt>
<pdfrwt beam="1">  1        3 0.55820960E-01 0.13769594E+03</pdfrwt>
<pdfrwt beam="2">  1       -3 0.35639009E-01 0.13769594E+03</pdfrwt>
<totfact> 0.58641644E+01</totfact>
</mgrwt>
</event>
<event>
 8    1  0.1273312E-005  0.1483692E+03  0.7546771E-02  0.1211775E+00
          2   -1    0    0  501    0  0.00000000000E+00  0.00000000000E+00  0.11011455666E+04  0.11011455666E+04  0.00000000000E+00 0. -1.
         -2   -1    0    0    0  501 -0.00000000000E+00 -0.00000000000E+00 -0.18065197640E+02  0.18065197640E+02  0.00000000000E+00 0.  1.
         23    2    1    2    0    0  0.19970173293E+02 -0.77404257555E+02  0.33063225201E+03  0.35227426445E+03  0.91592818568E+02 0.  0.
         23    2    1    2    0    0 -0.19970173293E+02  0.77404257555E+02  0.75244811695E+03  0.76693649979E+03  0.12499279621E+03 0.  0.
          5    1    4    4  502    0 -0.45039756916E+02  0.98679007171E+02  0.46154818372E+03  0.47414654069E+03  0.47000000000E+01 0. -1.
         -5    1    4    4    0  502  0.25069583623E+02 -0.21274749616E+02  0.29089993323E+03  0.29278995910E+03  0.47000000000E+01 0. -1.
        -11    1    3    3    0    0 -0.36017874565E+01 -0.83851529476E+02  0.30704877118E+03  0.31831273891E+03  0.00000000000E+00 0. -1.
         11    1    3    3    0    0  0.23571960750E+02  0.64472719209E+01  0.23583480829E+02  0.33961525537E+02  0.00000000000E+00 0.  1.
<mgrwt>
<rscale>  0 0.14116116E+03</rscale>
<asrwt>0</asrwt>
<pdfrwt beam="1">  1        2 0.16940696E+00 0.14836922E+03</pdfrwt>
<pdfrwt beam="2">  1       -2 0.27792620E-02 0.14836922E+03</pdfrwt>
<totfact> 0.10509239E+04</totfact>
</mgrwt>
</event>
<event>
 8    1  0.1273312E-005  0.1251514E+03  0.7546771E-02  0.1250470E+00
          1   -1    0    0  501    0  0.00000000000E+00  0.00000000000E+00  0.74285289886E+02  0.74285289886E+02  0.00000000000E+00 0. -1.
         -1   -1    0    0    0  501 -0.00000000000E+00 -0.00000000000E+00 -0.20755402806E+03  0.20755402806E+03  0.00000000000E+00 0.  1.
         23    2    1    2    0    0 -0.49381112770E+01  0.37664041339E+01 -0.12721472310E+03  0.15654162440E+03  0.91011667677E+02 0.  0.
         23    2    1    2    0    0  0.49381112770E+01 -0.37664041339E+01 -0.60540150690E+01  0.12529769354E+03  0.12499716063E+03 0.  0.
          5    1    4    4  502    0 -0.11528458191E+02  0.57743602650E+02 -0.14683234880E+02  0.60868024296E+02  0.47000000000E+01 0.  1.
         -5    1    4    4    0  502  0.16466569468E+02 -0.61510006783E+02  0.86292198111E+01  0.64429669245E+02  0.47000000000E+01 0.  1.
        -11    1    3    3    0    0  0.20538728670E+02 -0.25560784074E+02 -0.10864175785E+03  0.11348226560E+03  0.00000000000E+00 0.  1.
         11    1    3    3    0    0 -0.25476839947E+02  0.29327188208E+02 -0.18572965254E+02  0.43059358799E+02  0.00000000000E+00 0. -1.
<mgrwt>
<rscale>  0 0.11563868E+03</rscale>
<asrwt>0</asrwt>
<pdfrwt beam="1">  1        1 0.11428506E-01 0.12515135E+03</pdfrwt>
<pdfrwt beam="2">  1       -1 0.31931389E-01 0.12515135E+03</pdfrwt>
<totfact> 0.46714534E+03</totfact>
</mgrwt>
</event>
<event>
 8    1  0.1273312E-005  0.1564110E+03  0.7546771E-02  0.1200795E+00
         -2   -1    0    0    0  501 -0.00000000000E+00  0.00000000000E+00  0.32032098626E+02  0.32032098626E+02  0.00000000000E+00 0.  1.
          2   -1    0    0  501    0  0.00000000000E+00 -0.00000000000E+00 -0.71516574564E+03  0.71516574564E+03  0.00000000000E+00 0. -1.
         23    2    1    2    0    0  0.26244135131E+02  0.90288162914E+02 -0.19927189421E+03  0.23868375193E+03  0.91760223510E+02 0.  0.
         23    2    1    2    0    0 -0.26244135131E+02 -0.90288162914E+02 -0.48386175280E+03  0.50851409234E+03  0.12499471707E+03 0.  0.
          5    1    4    4  502    0  0.65316936475E+01 -0.28086626572E+02 -0.39026568888E+03  0.39135778966E+03  0.47000000000E+01 0. -1.
         -5    1    4    4    0  502 -0.32775828779E+02 -0.62201536341E+02 -0.93596063921E+02  0.11715630268E+03  0.47000000000E+01 0. -1.
        -11    1    3    3    0    0 -0.26735202447E+02  0.66323225266E+02 -0.90470056779E+02  0.11531856933E+03  0.00000000000E+00 0.  1.
         11    1    3    3    0    0  0.52979337578E+02  0.23964937647E+02 -0.10880183744E+03  0.12336518259E+03  0.00000000000E+00 0. -1.
<mgrwt>
<rscale>  0 0.14973816E+03</rscale>
<asrwt>0</asrwt>
<pdfrwt beam="2">  1        2 0.11002550E+00 0.15641095E+03</pdfrwt>
<pdfrwt beam="1">  1       -2 0.49280152E-02 0.15641095E+03</pdfrwt>
<totfact> 0.79289848E+03</totfact>
</mgrwt>
</event>
<event>
 8    1  0.1273312E-005  0.1423722E+03  0.7546771E-02  0.1221197E+00
          2   -1    0    0  501    0  0.00000000000E+00  0.00000000000E+00  0.84594153605E+02  0.84594153605E+02  0.00000000000E+00 0. -1.
         -2   -1    0    0    0  501 -0.00000000000E+00 -0.00000000000E+00 -0.21658809215E+03  0.21658809215E+03  0.00000000000E+00 0.  1.
         23    2    1    2    0    0  0.58740228214E+02  0.34543034382E+02 -0.10924988845E+03  0.15700476335E+03  0.89840536253E+02 0.  0.
         23    2    1    2    0    0 -0.58740228214E+02 -0.34543034382E+02 -0.22744050100E+02  0.14417748241E+03  0.12500487584E+03 0.  0.
          5    1    4    4  502    0 -0.10530706641E+02 -0.87049508004E+01 -0.70162850886E+02  0.71635100302E+02  0.47000000000E+01 0.  1.
         -5    1    4    4    0  502 -0.48209521573E+02 -0.25838083581E+02  0.47418800786E+02  0.72542382105E+02  0.47000000000E+01 0.  1.
        -11    1    3    3    0    0  0.17634392584E+02 -0.30644195469E+02 -0.40134974379E+02  0.53486958094E+02  0.00000000000E+00 0.  1.
         11    1    3    3    0    0  0.41105835630E+02  0.65187229851E+02 -0.69114914068E+02  0.10351780526E+03  0.00000000000E+00 0. -1.
<mgrwt>
<rscale>  0 0.13431000E+03</rscale>
<asrwt>0</asrwt>
<pdfrwt beam="1">  1        2 0.13014485E-01 0.14237224E+03</pdfrwt>
<pdfrwt beam="2">  1       -2 0.33321244E-01 0.14237224E+03</pdfrwt>
<totfact> 0.37411823E+03</totfact>
</mgrwt>
</event>
<event>
 8    1  0.1273312E-005  0.1855155E+03  0.7546771E-02  0.1167939E+00
         -3   -1    0    0    0  501 -0.00000000000E+00  0.00000000000E+00  0.11553979664E+03  0.11553979664E+03  0.00000000000E+00 0.  1.
          3   -1    0    0  501    0  0.00000000000E+00 -0.00000000000E+00 -0.26443013925E+03  0.26443013925E+03  0.00000000000E+00 0. -1.
         23    2    1    2    0    0  0.10605050279E+03  0.86857952391E+02 -0.75654433427E+02  0.18052196479E+03  0.89853065831E+02 0.  0.
         23    2    1    2    0    0 -0.10605050279E+03 -0.86857952391E+02 -0.73235909188E+02  0.19944797109E+03  0.12499992696E+03 0.  0.
          5    1    4    4  502    0 -0.28634854792E+02 -0.37050275239E+02 -0.93857467750E+02  0.10499520016E+03  0.47000000000E+01 0.  1.
         -5    1    4    4    0  502 -0.77415648002E+02 -0.49807677152E+02  0.20621558562E+02  0.94452770931E+02  0.47000000000E+01 0.  1.
        -11    1    3    3    0    0  0.32474708638E+02 -0.15379945978E+02 -0.55246430878E+01  0.36354795016E+02  0.00000000000E+00 0.  1.
         11    1    3    3    0    0  0.73575794156E+02  0.10223789837E+03 -0.70129790339E+02  0.14416716978E+03  0.00000000000E+00 0. -1.
<mgrwt>
<rscale>  0 0.17985919E+03</rscale>
<asrwt>0</asrwt>
<pdfrwt beam="2">  1        3 0.40681560E-01 0.18551548E+03</pdfrwt>
<pdfrwt beam="1">  1       -3 0.17775353E-01 0.18551548E+03</pdfrwt>
<totfact> 0.40196741E+02</totfact>
</mgrwt>
</event>
<event>
 8    1  0.1273312E-005  0.1298223E+03  0.7546771E-02  0.1233970E+00
         -2   -1    0    0    0  501 -0.00000000000E+00  0.00000000000E+00  0.78305698161E+02  0.78305698161E+02  0.00000000000E+00 0.  1.
          2   -1    0    0  501    0  0.00000000000E+00 -0.00000000000E+00 -0.19903011457E+03  0.19903011457E+03  0.00000000000E+00 0. -1.
         23    2    1    2    0    0  0.26626400010E+02  0.22888038306E+02 -0.27163596624E+02  0.11731249708E+03  0.10858882776E+03 0.  0.
         23    2    1    2    0    0 -0.26626400010E+02 -0.22888038306E+02 -0.93560819787E+02  0.16002331566E+03  0.12498402730E+03 0.  0.
          5    1    4    4  502    0 -0.48818285448E+02 -0.24516171646E+02  0.84770661200E+01  0.55481693524E+02  0.47000000000E+01 0.  1.
         -5    1    4    4    0  502  0.22191885438E+02  0.16281333395E+01 -0.10203788591E+03  0.10454162213E+03  0.47000000000E+01 0.  1.
        -11    1    3    3    0    0 -0.16877480077E+02  0.50868567319E+02  0.88006551269E+01  0.54313092395E+02  0.00000000000E+00 0. -1.
         11    1    3    3    0    0  0.43503880087E+02 -0.27980529012E+02 -0.35964251751E+02  0.62999404684E+02  0.00000000000E+00 0.  1.
<mgrwt>
<rscale>  0 0.12570616E+03</rscale>
<asrwt>0</asrwt>
<pdfrwt beam="2">  1        2 0.30620017E-01 0.12982232E+03</pdfrwt>
<pdfrwt beam="1">  1       -2 0.12047031E-01 0.12982232E+03</pdfrwt>
<totfact> 0.79509910E+03</totfact>
</mgrwt>
</event>
<event>
 8    1  0.1273312E-005  0.1264152E+03  0.7546771E-02  0.1244834E+00
          3   -1    0    0  501    0  0.00000000000E+00  0.00000000000E+00  0.30694842398E+03  0.30694842398E+03  0.00000000000E+00 0. -1.
         -3   -1    0    0    0  501 -0.00000000000E+00 -0.00000000000E+00 -0.56911376122E+02  0.56911376122E+02  0.00000000000E+00 0.  1.
         23    2    1    2    0    0 -0.10738574345E+02 -0.23836564657E+02  0.19603568444E+02  0.10102832944E+03  0.95597723086E+02 0.  0.
         23    2    1    2    0    0  0.10738574345E+02  0.23836564657E+02  0.23043347941E+03  0.26283147066E+03  0.12368223293E+03 0.  0.
          5    1    4    4  502    0 -0.28607219854E+01 -0.44652708417E+02  0.40947218322E+02  0.60834306008E+02  0.47000000000E+01 0.  1.
         -5    1    4    4    0  502  0.13599296330E+02  0.68489273074E+02  0.18948626109E+03  0.20199716465E+03  0.47000000000E+01 0.  1.
        -11    1    3    3    0    0  0.29145885874E+01 -0.50532156868E+02  0.40211571870E+02  0.64644908668E+02  0.00000000000E+00 0. -1.
         11    1    3    3    0    0 -0.13653162932E+02  0.26695592211E+02 -0.20608003426E+02  0.36383420768E+02  0.00000000000E+00 0.  1.
<mgrwt>
<rscale>  0 0.11895336E+03</rscale>
<asrwt>0</asrwt>
<pdfrwt beam="1">  1        3 0.47222833E-01 0.12641516E+03</pdfrwt>
<pdfrwt beam="2">  1       -3 0.87555965E-02 0.12641516E+03</pdfrwt>
<totfact> 0.94020500E+02</totfact>
</mgrwt>
</event>
<event>
 8    1  0.1273312E-005  0.1264491E+03  0.7546771E-02  0.1247576E+00
          1   -1    0    0  501    0  0.00000000000E+00  0.00000000000E+00  0.11864908699E+04  0.11864908699E+04  0.00000000000E+00 0. -1.
         -1   -1    0    0    0  501 -0.00000000000E+00 -0.00000000000E+00 -0.10452578012E+02  0.10452578012E+02  0.00000000000E+00 0.  1.
         23    2    1    2    0    0 -0.19093969431E+02  0.10486081817E+01  0.41306209403E+03  0.42355993052E+03  0.91744438331E+02 0.  0.
         23    2    1    2    0    0  0.19093969431E+02 -0.10486081817E+01  0.76297619784E+03  0.77338351738E+03  0.12499482884E+03 0.  0.
          5    1    4    4  502    0  0.44638338364E+02  0.48701688036E+02  0.31368435675E+03  0.32060006447E+03  0.47000000000E+01 0. -1.
         -5    1    4    4    0  502 -0.25544368933E+02 -0.49750296218E+02  0.44929184110E+03  0.45278345292E+03  0.47000000000E+01 0. -1.
        -11    1    3    3    0    0 -0.51160608423E+02  0.21345806321E+02  0.26238569195E+03  0.26817774450E+03  0.00000000000E+00 0.  1.
         11    1    3    3    0    0  0.32066638993E+02 -0.20297198139E+02  0.15067640208E+03  0.15538218602E+03  0.00000000000E+00 0. -1.
<mgrwt>
<rscale>  0 0.11732500E+03</rscale>
<asrwt>0</asrwt>
<pdfrwt beam="1">  1        1 0.18253695E+00 0.12644915E+03</pdfrwt>
<pdfrwt beam="2">  1       -1 0.16080899E-02 0.12644915E+03</pdfrwt>
<totfact> 0.10632564E+04</totfact>
</mgrwt>
</event>
<event>
 8    1  0.1273312E-005  0.1436238E+03  0.7546771E-02  0.1219252E+00
         -3   -1    0    0    0  501 -0.00000000000E+00  0.00000000000E+00  0.45968854450E+03  0.45968854450E+03  0.00000000000E+00 0.  1.
          3   -1    0    0  501    0  0.00000000000E+00 -0.00000000000E+00 -0.45650937542E+02  0.45650937542E+02  0.00000000000E+00 0. -1.
         23    2    1    2    0    0  0.57575316193E+02  0.41071418647E+02  0.30273999787E+03  0.32363928745E+03  0.89939444091E+02 0.  0.
         23    2    1    2    0    0 -0.57575316193E+02 -0.41071418647E+02  0.11129760909E+03  0.18170019459E+03  0.12500409778E+03 0.  0.
          5    1    4    4  502    0  0.24520111724E+02 -0.14969717672E+02  0.87484990295E+02  0.92201094642E+02  0.47000000000E+01 0.  1.
         -5    1    4    4    0  502 -0.82095427917E+02 -0.26101700975E+02  0.23812618792E+02  0.89499099953E+02  0.47000000000E+01 0.  1.
        -11    1    3    3    0    0 -0.12887032951E+01  0.53206543221E+02  0.16461209662E+03  0.17300213684E+03  0.00000000000E+00 0.  1.
         11    1    3    3    0    0  0.58864019488E+02 -0.12135124574E+02  0.13812790125E+03  0.15063715060E+03  0.00000000000E+00 0. -1.
<mgrwt>
<rscale>  0 0.13568786E+03</rscale>
<asrwt>0</asrwt>
<pdfrwt beam="2">  1        3 0.70232215E-02 0.14362382E+03</pdfrwt>
<pdfrwt beam="1">  1       -3 0.70721311E-01 0.14362382E+03</pdfrwt>
<totfact> 0.59983201E+02</totfact>
</mgrwt>
</event>
<event>
 7    1  0.1273312E-005  0.1402233E+03  0.7546771E-02  0.1227965E+00
         -2   -1    0    0    0  501 -0.00000000000E+00  0.00000000000E+00  0.24329454404E+02  0.24329454404E+02  0.00000000000E+00 0.  1.
          2   -1    0    0  501    0  0.00000000000E+00 -0.00000000000E+00 -0.60544358544E+03  0.60544358544E+03  0.00000000000E+00 0. -1.
         23    2    1    2    0    0 -0.31299214491E+02 -0.32011476936E+02 -0.24824600442E+03  0.26857535109E+03  0.92207727521E+02 0.  0.
          5    1    1    2  502    0 -0.28742877915E+02  0.65067911169E+02 -0.15908761564E+03  0.17432999038E+03  0.47000000000E+01 0. -1.
         -5    1    1    2    0  502  0.60042092406E+02 -0.33056434233E+02 -0.17378051097E+03  0.18686769838E+03  0.47000000000E+01 0.  1.
        -11    1    3    3    0    0 -0.32798558868E+02 -0.43335743583E+02 -0.25100695739E+03  0.25682333382E+03  0.00000000000E+00 0. -1.
         11    1    3    3    0    0  0.14993443772E+01  0.11324266647E+02  0.27609529617E+01  0.11752017270E+02  0.00000000000E+00 0.  1.
<mgrwt>
<rscale>  0 0.12965766E+03</rscale>
<asrwt>0</asrwt>
<pdfrwt beam="2">  1        2 0.93145172E-01 0.14022332E+03</pdfrwt>
<pdfrwt beam="1">  1       -2 0.37429928E-02 0.14022332E+03</pdfrwt>
<totfact> 0.14431664E+04</totfact>
</mgrwt>
</event>
<event>
 7    1  0.1273312E-005  0.1897101E+03  0.7546771E-02  0.1189534E+00
          1   -1    0    0  501    0  0.00000000000E+00  0.00000000000E+00  0.60202641855E+03  0.60202641855E+03  0.00000000000E+00 0. -1.
         -1   -1    0    0    0  501 -0.00000000000E+00 -0.00000000000E+00 -0.91310170109E+02  0.91310170109E+02  0.00000000000E+00 0.  1.
         23    2    1    2    0    0 -0.28100553534E+02 -0.83911280674E+01 -0.46239229251E+02  0.10495804366E+03  0.89543690273E+02 0.  0.
          5    1    1    2  502    0  0.67502365057E+02  0.41206214274E+02  0.51744472736E+03  0.52347460039E+03  0.47000000000E+01 0. -1.
         -5    1    1    2    0  502 -0.39401811522E+02 -0.32815086207E+02  0.39510750332E+02  0.64903944609E+02  0.47000000000E+01 0.  1.
        -11    1    3    3    0    0 -0.53527588532E+02 -0.25599871954E+02 -0.44570455017E+02  0.74209713910E+02  0.00000000000E+00 0.  1.
         11    1    3    3    0    0  0.25427034997E+02  0.17208743887E+02 -0.16687742337E+01  0.30748329749E+02  0.00000000000E+00 0. -1.
<mgrwt>
<rscale>  0 0.15926045E+03</rscale>
<asrwt>0</asrwt>
<pdfrwt beam="1">  1        1 0.92619446E-01 0.18971006E+03</pdfrwt>
<pdfrwt beam="2">  1       -1 0.14047719E-01 0.18971006E+03</pdfrwt>
<totfact> 0.12471540E+03</totfact>
</mgrwt>
</event>
<event>
 8    1  0.1273312E-005  0.1343542E+03  0.7546771E-02  0.1233998E+00
         -4   -1    0    0    0  501 -0.00000000000E+00  0.00000000000E+00  0.87492636855E+02  0.87492636855E+02  0.00000000000E+00 0.  1.
          4   -1    0    0  501    0  0.00000000000E+00 -0.00000000000E+00 -0.16547751181E+03  0.16547751181E+03  0.00000000000E+00 0. -1.
         23    2    1    2    0    0  0.49219643743E+02 -0.64828316439E+01 -0.12978131916E+02  0.10371557761E+03  0.90132617267E+02 0.  0.
         23    2    1    2    0    0 -0.49219643743E+02  0.64828316439E+01 -0.65006743035E+02  0.14925457105E+03  0.12484570438E+03 0.  0.
          5    1    4    4  502    0 -0.83068520022E+02 -0.25003465395E+02 -0.33497289691E+02  0.93111281363E+02  0.47000000000E+01 0. -1.
         -5    1    4    4    0  502  0.33848876280E+02  0.31486297039E+02 -0.31509453344E+02  0.56143289685E+02  0.47000000000E+01 0. -1.
        -11    1    3    3    0    0  0.13920900130E+02 -0.15313465656E+02 -0.48582840599E+02  0.52807064788E+02  0.00000000000E+00 0. -1.
         11    1    3    3    0    0  0.35298743613E+02  0.88306340126E+01  0.35604708683E+02  0.50908512825E+02  0.00000000000E+00 0.  1.
<mgrwt>
<rscale>  0 0.12568767E+03</rscale>
<asrwt>0</asrwt>
<pdfrwt beam="2">  1        4 0.25458079E-01 0.13435420E+03</pdfrwt>
<pdfrwt beam="1">  1       -4 0.13460406E-01 0.13435420E+03</pdfrwt>
<totfact> 0.10862818E+03</totfact>
</mgrwt>
</event>
<event>
 8    1  0.1273312E-005  0.1402077E+03  0.7546771E-02  0.1223478E+00
          2   -1    0    0  501    0  0.00000000000E+00  0.00000000000E+00  0.39874054581E+03  0.39874054581E+03  0.00000000000E+00 0. -1.
         -2   -1    0    0    0  501 -0.00000000000E+00 -0.00000000000E+00 -0.48435408427E+02  0.48435408427E+02  0.00000000000E+00 0.  1.
         23    2    1    2    0    0 -0.61517713940E+02  0.15746090959E+02  0.66792220548E+02  0.13088848170E+03  0.92942054035E+02 0.  0.
         23    2    1    2    0    0  0.61517713940E+02 -0.15746090959E+02  0.28351291684E+03  0.31628747253E+03  0.12500329100E+03 0.  0.
          5    1    4    4  502    0 -0.16152288557E+01  0.47084864469E+02  0.66258491271E+02  0.81436300824E+02  0.47000000000E+01 0.  1.
         -5    1    4    4    0  502  0.63132942795E+02 -0.62830955428E+02  0.21725442556E+03  0.23485117171E+03  0.47000000000E+01 0.  1.
        -11    1    3    3    0    0 -0.52830396827E+02 -0.33304303614E+02  0.32405529390E+02  0.70358693871E+02  0.00000000000E+00 0.  1.
         11    1    3    3    0    0 -0.86873171124E+01  0.49050394573E+02  0.34386691158E+02  0.60529787834E+02  0.00000000000E+00 0. -1.
<mgrwt>
<rscale>  0 0.13271758E+03</rscale>
<asrwt>0</asrwt>
<pdfrwt beam="1">  1        2 0.61344697E-01 0.14020767E+03</pdfrwt>
<pdfrwt beam="2">  1       -2 0.74516016E-02 0.14020767E+03</pdfrwt>
<totfact> 0.80861102E+03</totfact>
</mgrwt>
</event>
<event>
 8    1  0.1273312E-005  0.1278357E+03  0.7546771E-02  0.1242594E+00
         -2   -1    0    0    0  501 -0.00000000000E+00  0.00000000000E+00  0.25419143486E+02  0.25419143486E+02  0.00000000000E+00 0.  1.
          2   -1    0    0  501    0  0.00000000000E+00 -0.00000000000E+00 -0.58110958249E+03  0.58110958249E+03  0.00000000000E+00 0. -1.
         23    2    1    2    0    0  0.21411894866E+02 -0.34196342855E+02 -0.14419152180E+03  0.17563046058E+03  0.91798717946E+02 0.  0.
         23    2    1    2    0    0 -0.21411894866E+02  0.34196342855E+02 -0.41149891721E+03  0.43089826540E+03  0.12130167830E+03 0.  0.
          5    1    4    4  502    0  0.35934428707E+02 -0.25723311228E+02 -0.12917571736E+03  0.13660683681E+03  0.47000000000E+01 0. -1.
         -5    1    4    4    0  502 -0.57346323573E+02  0.59919654083E+02 -0.28232319985E+03  0.29429142860E+03  0.47000000000E+01 0.  1.
        -11    1    3    3    0    0 -0.34059832023E+02 -0.13217257713E+02 -0.31299332404E+02  0.48108380432E+02  0.00000000000E+00 0.  1.
         11    1    3    3    0    0  0.55471726889E+02 -0.20979085142E+02 -0.11289218940E+03  0.12752208014E+03  0.00000000000E+00 0. -1.
<mgrwt>
<rscale>  0 0.12030565E+03</rscale>
<asrwt>0</asrwt>
<pdfrwt beam="2">  1        2 0.89401472E-01 0.12783566E+03</pdfrwt>
<pdfrwt beam="1">  1       -2 0.39106376E-02 0.12783566E+03</pdfrwt>
<totfact> 0.14069513E+04</totfact>
</mgrwt>
</event>
<event>
 8    1  0.1273312E-005  0.3534314E+03  0.7546771E-02  0.1062286E+00
         -2   -1    0    0    0  501 -0.00000000000E+00  0.00000000000E+00  0.16510450363E+03  0.16510450363E+03  0.00000000000E+00 0.  1.
          2   -1    0    0  501    0  0.00000000000E+00 -0.00000000000E+00 -0.15298103734E+04  0.15298103734E+04  0.00000000000E+00 0. -1.
         23    2    1    2    0    0 -0.10322740865E+03 -0.31405871994E+03 -0.66446454941E+02  0.34940708062E+03  0.91549981649E+02 0.  0.
         23    2    1    2    0    0  0.10322740865E+03  0.31405871994E+03 -0.12982594148E+04  0.13455077964E+04  0.12499977825E+03 0.  0.
          5    1    4    4  502    0  0.21539438464E+02 -0.55493372396E+01 -0.10831014457E+03  0.11067032108E+03  0.47000000000E+01 0. -1.
         -5    1    4    4    0  502  0.81687970189E+02  0.31960805718E+03 -0.11899492703E+04  0.12348374753E+04  0.47000000000E+01 0. -1.
        -11    1    3    3    0    0 -0.11267943527E+03 -0.22935671318E+03 -0.32222088062E+02  0.25756439966E+03  0.00000000000E+00 0.  1.
         11    1    3    3    0    0  0.94520266136E+01 -0.84702006764E+02 -0.34224366879E+02  0.91842680956E+02  0.00000000000E+00 0. -1.
<mgrwt>
<rscale>  0 0.35080204E+03</rscale>
<asrwt>0</asrwt>
<pdfrwt beam="2">  1        2 0.23535543E+00 0.35343135E+03</pdfrwt>
<pdfrwt beam="1">  1       -2 0.25400694E-01 0.35343135E+03</pdfrwt>
<totfact> 0.18059542E+02</totfact>
</mgrwt>
</event>
<event>
 8    1  0.1273312E-005  0.1761871E+03  0.7546771E-02  0.1177020E+00
         -3   -1    0    0    0  501 -0.00000000000E+00  0.00000000000E+00  0.16987150995E+03  0.16987150995E+03  0.00000000000E+00 0.  1.
          3   -1    0    0  501    0  0.00000000000E+00 -0.00000000000E+00 -0.18459038114E+03  0.18459038114E+03  0.00000000000E+00 0. -1.
         23    2    1    2    0    0 -0.85349206321E+02 -0.90176004428E+02  0.54933204652E+02  0.16500658615E+03  0.93772691676E+02 0.  0.
         23    2    1    2    0    0  0.85349206321E+02  0.90176004428E+02 -0.69652075840E+02  0.18945530495E+03  0.12500280841E+03 0.  0.
          5    1    4    4  502    0 -0.21141245468E+01  0.62351936347E+02  0.15185699206E+02  0.64381122615E+02  0.47000000000E+01 0.  1.
         -5    1    4    4    0  502  0.87463330868E+02  0.27824068081E+02 -0.84837775046E+02  0.12507418233E+03  0.47000000000E+01 0.  1.
        -11    1    3    3    0    0 -0.86826457637E+02 -0.29107692665E+02  0.17114641578E+02  0.93161163981E+02  0.00000000000E+00 0.  1.
         11    1    3    3    0    0  0.14772513154E+01 -0.61068311763E+02  0.37818563075E+02  0.71845422165E+02  0.00000000000E+00 0. -1.
<mgrwt>
<rscale>  0 0.17079647E+03</rscale>
<asrwt>0</asrwt>
<pdfrwt beam="2">  1        3 0.28398520E-01 0.17618712E+03</pdfrwt>
<pdfrwt beam="1">  1       -3 0.26134079E-01 0.17618712E+03</pdfrwt>
<totfact> 0.39605219E+02</totfact>
</mgrwt>
</event>
<event>
 8    1  0.1273312E-005  0.1340723E+03  0.7546771E-02  0.1234254E+00
          1   -1    0    0  501    0  0.00000000000E+00  0.00000000000E+00  0.13125941868E+03  0.13125941868E+03  0.00000000000E+00 0. -1.
         -1   -1    0    0    0  501 -0.00000000000E+00 -0.00000000000E+00 -0.11011353089E+03  0.11011353089E+03  0.00000000000E+00 0.  1.
         23    2    1    2    0    0  0.15303139332E+02  0.45998988464E+02 -0.10716566531E+02  0.10356657560E+03  0.90890581309E+02 0.  0.
         23    2    1    2    0    0 -0.15303139332E+02 -0.45998988464E+02  0.31862454327E+02  0.13780637397E+03  0.12500115079E+03 0.  0.
          5    1    4    4  502    0 -0.19037323657E+02 -0.28126371657E+02  0.79497282296E+02  0.86576095817E+02  0.47000000000E+01 0.  1.
         -5    1    4    4    0  502  0.37341843256E+01 -0.17872616807E+02 -0.47634827968E+02  0.51230278153E+02  0.47000000000E+01 0.  1.
        -11    1    3    3    0    0  0.44185219906E+02  0.42576273438E+02 -0.30369964534E+02  0.68464643896E+02  0.00000000000E+00 0.  1.
         11    1    3    3    0    0 -0.28882080574E+02  0.34227150258E+01  0.19653398003E+02  0.35101931706E+02  0.00000000000E+00 0. -1.
<mgrwt>
<rscale>  0 0.12552343E+03</rscale>
<asrwt>0</asrwt>
<pdfrwt beam="1">  1        1 0.20193757E-01 0.13407230E+03</pdfrwt>
<pdfrwt beam="2">  1       -1 0.16940543E-01 0.13407230E+03</pdfrwt>
<totfact> 0.63254081E+03</totfact>
</mgrwt>
</event>
<event>
 8    1  0.1273312E-005  0.1486707E+03  0.7546771E-02  0.1211271E+00
         -2   -1    0    0    0  501 -0.00000000000E+00  0.00000000000E+00  0.36330274202E+02  0.36330274202E+02  0.00000000000E+00 0. -1.
          2   -1    0    0  501    0  0.00000000000E+00 -0.00000000000E+00 -0.50755807087E+03  0.50755807087E+03  0.00000000000E+00 0.  1.
         23    2    1    2    0    0 -0.39834906002E+01  0.80388391172E+02 -0.19219418289E+03  0.22771950680E+03  0.91866251721E+02 0.  0.
         23    2    1    2    0    0  0.39834906002E+01 -0.80388391172E+02 -0.27903361377E+03  0.31616883827E+03  0.12499926019E+03 0.  0.
          5    1    4    4  502    0  0.49892873027E+02  0.38487962571E+00 -0.14163421306E+03  0.15023910017E+03  0.47000000000E+01 0. -1.
         -5    1    4    4    0  502 -0.45909382427E+02 -0.80773270798E+02 -0.13739940071E+03  0.16592973810E+03  0.47000000000E+01 0. -1.
        -11    1    3    3    0    0 -0.31361979476E+02  0.66252119276E+02 -0.18040654394E+03  0.19472914050E+03  0.00000000000E+00 0.  1.
         11    1    3    3    0    0  0.27378488875E+02  0.14136271896E+02 -0.11787638958E+02  0.32990366298E+02  0.00000000000E+00 0. -1.
<mgrwt>
<rscale>  0 0.14154069E+03</rscale>
<asrwt>0</asrwt>
<pdfrwt beam="2">  1        2 0.78085857E-01 0.14867070E+03</pdfrwt>
<pdfrwt beam="1">  1       -2 0.55892730E-02 0.14867070E+03</pdfrwt>
<totfact> 0.96872088E+03</totfact>
</mgrwt>
</event>
<event>
 8    1  0.1273312E-005  0.1314865E+03  0.7546771E-02  0.1239364E+00
          1   -1    0    0  501    0  0.00000000000E+00  0.00000000000E+00  0.40469886006E+03  0.40469886006E+03  0.00000000000E+00 0. -1.
         -1   -1    0    0    0  501 -0.00000000000E+00 -0.00000000000E+00 -0.32785415727E+02  0.32785415727E+02  0.00000000000E+00 0.  1.
         23    2    1    2    0    0  0.19379716953E+02  0.35902044537E+02  0.14503884606E+03  0.17526150962E+03  0.89530998311E+02 0.  0.
         23    2    1    2    0    0 -0.19379716953E+02 -0.35902044537E+02  0.22687459828E+03  0.26222276617E+03  0.12499666204E+03 0.  0.
          5    1    4    4  502    0 -0.22075302751E+01  0.40239465635E+02  0.30215967820E+02  0.50588363245E+02  0.47000000000E+01 0. -1.
         -5    1    4    4    0  502 -0.17172186678E+02 -0.76141510172E+02  0.19665863046E+03  0.21163440292E+03  0.47000000000E+01 0. -1.
        -11    1    3    3    0    0  0.44377594552E+02  0.12255370624E+01  0.11427346663E+03  0.12259403744E+03  0.00000000000E+00 0. -1.
         11    1    3    3    0    0 -0.24997877600E+02  0.34676507474E+02  0.30765379425E+02  0.52667472184E+02  0.00000000000E+00 0.  1.
<mgrwt>
<rscale>  0 0.12229174E+03</rscale>
<asrwt>0</asrwt>
<pdfrwt beam="1">  1        1 0.62261359E-01 0.13148649E+03</pdfrwt>
<pdfrwt beam="2">  1       -1 0.50439104E-02 0.13148649E+03</pdfrwt>
<totfact> 0.98207449E+03</totfact>
</mgrwt>
</event>
<event>
 8    1  0.1273312E-005  0.1289684E+03  0.7546771E-02  0.1235794E+00
          2   -1    0    0  501    0  0.00000000000E+00  0.00000000000E+00  0.78075496303E+03  0.78075496303E+03  0.00000000000E+00 0. -1.
         -2   -1    0    0    0  501 -0.00000000000E+00 -0.00000000000E+00 -0.20018835531E+02  0.20018835531E+02  0.00000000000E+00 0.  1.
         23    2    1    2    0    0 -0.58029997784E+02  0.32821403331E+02  0.24985750001E+03  0.27386791309E+03  0.90167279830E+02 0.  0.
         23    2    1    2    0    0  0.58029997784E+02 -0.32821403331E+02  0.51087862749E+03  0.52690588547E+03  0.11039979599E+03 0.  0.
          5    1    4    4  502    0  0.59254662787E+02 -0.63728826861E+02  0.45103848287E+03  0.45938032333E+03  0.47000000000E+01 0. -1.
         -5    1    4    4    0  502 -0.12246650033E+01  0.30907423530E+02  0.59840144622E+02  0.67525562138E+02  0.47000000000E+01 0.  1.
        -11    1    3    3    0    0  0.17397102504E+02  0.32318896904E+02  0.83014974046E+02  0.90767043516E+02  0.00000000000E+00 0.  1.
         11    1    3    3    0    0 -0.75427100288E+02  0.50250642658E+00  0.16684252596E+03  0.18310086958E+03  0.00000000000E+00 0. -1.
<mgrwt>
<rscale>  0 0.12453755E+03</rscale>
<asrwt>0</asrwt>
<pdfrwt beam="1">  1        2 0.12011612E+00 0.12896837E+03</pdfrwt>
<pdfrwt beam="2">  1       -2 0.30798215E-02 0.12896837E+03</pdfrwt>
<totfact> 0.14162618E+04</totfact>
</mgrwt>
</event>
<event>
 8    1  0.1273312E-005  0.1327313E+03  0.7546771E-02  0.1236566E+00
         -2   -1    0    0    0  501 -0.00000000000E+00  0.00000000000E+00  0.39289162278E+02  0.39289162278E+02  0.00000000000E+00 0.  1.
          2   -1    0    0  501    0  0.00000000000E+00 -0.00000000000E+00 -0.41552234592E+03  0.41552234592E+03  0.00000000000E+00 0. -1.
         23    2    1    2    0    0  0.43369995140E+02 -0.10590350157E+02 -0.76185488057E+02  0.12671668091E+03  0.90883313297E+02 0.  0.
         23    2    1    2    0    0 -0.43369995140E+02  0.10590350157E+02 -0.30004769558E+03  0.32809482729E+03  0.12499793627E+03 0.  0.
          5    1    4    4  502    0 -0.57903352356E+02 -0.45636652946E+02 -0.18294594290E+03  0.19729878441E+03  0.47000000000E+01 0. -1.
         -5    1    4    4    0  502  0.14533357216E+02  0.56227003103E+02 -0.11710175268E+03  0.13079604287E+03  0.47000000000E+01 0. -1.
        -11    1    3    3    0    0  0.24902331880E+02 -0.39175441493E+01  0.17698523378E+02  0.30801152819E+02  0.00000000000E+00 0.  1.
         11    1    3    3    0    0  0.18467663261E+02 -0.66728060080E+01 -0.93884011435E+02  0.95915528093E+02  0.00000000000E+00 0. -1.
<mgrwt>
<rscale>  0 0.12404686E+03</rscale>
<asrwt>0</asrwt>
<pdfrwt beam="2">  1        2 0.63926508E-01 0.13273129E+03</pdfrwt>
<pdfrwt beam="1">  1       -2 0.60444871E-02 0.13273129E+03</pdfrwt>
<totfact> 0.10610143E+04</totfact>
</mgrwt>
</event>
<event>
 8    1  0.1273312E-005  0.1291035E+03  0.7546771E-02  0.1243496E+00
         -2   -1    0    0    0  501 -0.00000000000E+00  0.00000000000E+00  0.47673314085E+02  0.47673314085E+02  0.00000000000E+00 0.  1.
          2   -1    0    0  501    0  0.00000000000E+00 -0.00000000000E+00 -0.27580237544E+03  0.27580237544E+03  0.00000000000E+00 0. -1.
         23    2    1    2    0    0 -0.90111340714E+01  0.30995615276E+02 -0.65708093918E+02  0.11599488198E+03  0.89974053677E+02 0.  0.
         23    2    1    2    0    0  0.90111340714E+01 -0.30995615276E+02 -0.16242096744E+03  0.20748080755E+03  0.12500314450E+03 0.  0.
          5    1    4    4  502    0 -0.15916026926E+02 -0.60808633842E+02 -0.15541999521E+03  0.16771545776E+03  0.47000000000E+01 0. -1.
         -5    1    4    4    0  502  0.24927160997E+02  0.29813018566E+02 -0.70009722327E+01  0.39765349786E+02  0.47000000000E+01 0. -1.
        -11    1    3    3    0    0 -0.43887299577E+02  0.67947910539E-01 -0.50628151933E+02  0.67002309283E+02  0.00000000000E+00 0. -1.
         11    1    3    3    0    0  0.34876165505E+02  0.30927667366E+02 -0.15079941986E+02  0.48992572696E+02  0.00000000000E+00 0.  1.
<mgrwt>
<rscale>  0 0.11975827E+03</rscale>
<asrwt>0</asrwt>
<pdfrwt beam="2">  1        2 0.42431134E-01 0.12910350E+03</pdfrwt>
<pdfrwt beam="1">  1       -2 0.73343561E-02 0.12910350E+03</pdfrwt>
<totfact> 0.12179556E+04</totfact>
</mgrwt>
</event>
<event>
 8    1  0.1273312E-005  0.1642284E+03  0.7546771E-02  0.1191004E+00
          2   -1    0    0  501    0  0.00000000000E+00  0.00000000000E+00  0.16559806537E+03  0.16559806537E+03  0.00000000000E+00 0. -1.
         -2   -1    0    0    0  501 -0.00000000000E+00 -0.00000000000E+00 -0.18003097749E+03  0.18003097749E+03  0.00000000000E+00 0.  1.
         23    2    1    2    0    0 -0.36752812011E+02  0.99971186222E+02 -0.87794654969E+02  0.16575993417E+03  0.91779339016E+02 0.  0.
         23    2    1    2    0    0  0.36752812011E+02 -0.99971186222E+02  0.73361742847E+02  0.17986910868E+03  0.12500377466E+03 0.  0.
          5    1    4    4  502    0 -0.29362494874E+02 -0.30890764873E+02 -0.18948740918E+02  0.46877929157E+02  0.47000000000E+01 0. -1.
         -5    1    4    4    0  502  0.66115306886E+02 -0.69080421349E+02  0.92310483765E+02  0.13299117952E+03  0.47000000000E+01 0. -1.
        -11    1    3    3    0    0 -0.29158927638E+02  0.67196173500E+02 -0.16388652161E+01  0.73268374304E+02  0.00000000000E+00 0. -1.
         11    1    3    3    0    0 -0.75938843730E+01  0.32775012722E+02 -0.86155789753E+02  0.92491559867E+02  0.00000000000E+00 0.  1.
<mgrwt>
<rscale>  0 0.15797293E+03</rscale>
<asrwt>0</asrwt>
<pdfrwt beam="1">  1        2 0.25476626E-01 0.16422835E+03</pdfrwt>
<pdfrwt beam="2">  1       -2 0.27697073E-01 0.16422835E+03</pdfrwt>
<totfact> 0.24340321E+03</totfact>
</mgrwt>
</event>
<event>
 8    1  0.1273312E-005  0.1323007E+03  0.7546771E-02  0.1236789E+00
          2   -1    0    0  501    0  0.00000000000E+00  0.00000000000E+00  0.43101334175E+03  0.43101334175E+03  0.00000000000E+00 0.  1.
         -2   -1    0    0    0  501 -0.00000000000E+00 -0.00000000000E+00 -0.32918520118E+02  0.32918520118E+02  0.00000000000E+00 0. -1.
         23    2    1    2    0    0 -0.14187525215E+02  0.40968183577E+02  0.13127584494E+03  0.16611339702E+03  0.92090364680E+02 0.  0.
         23    2    1    2    0    0  0.14187525215E+02 -0.40968183577E+02  0.26681897669E+03  0.29781846485E+03  0.12499517489E+03 0.  0.
          5    1    4    4  502    0  0.34802969716E+02 -0.32892505521E+02  0.23680129888E+02  0.53628370962E+02  0.47000000000E+01 0. -1.
         -5    1    4    4    0  502 -0.20615444501E+02 -0.80756780557E+01  0.24313884680E+03  0.24419009389E+03  0.47000000000E+01 0. -1.
        -11    1    3    3    0    0 -0.48146561496E+02  0.28328782043E+02  0.42388417105E+02  0.70124098429E+02  0.00000000000E+00 0.  1.
         11    1    3    3    0    0  0.33959036281E+02  0.12639401534E+02  0.88887427839E+02  0.95989298591E+02  0.00000000000E+00 0. -1.
<mgrwt>
<rscale>  0 0.12390624E+03</rscale>
<asrwt>0</asrwt>
<pdfrwt beam="1">  1        2 0.66309741E-01 0.13230069E+03</pdfrwt>
<pdfrwt beam="2">  1       -2 0.50643880E-02 0.13230069E+03</pdfrwt>
<totfact> 0.13318363E+04</totfact>
</mgrwt>
</event>
<event>
 8    1  0.1273312E-005  0.1322436E+03  0.7546771E-02  0.1237487E+00
          2   -1    0    0  501    0  0.00000000000E+00  0.00000000000E+00  0.52876586177E+02  0.52876586177E+02  0.00000000000E+00 0. -1.
         -2   -1    0    0    0  501 -0.00000000000E+00 -0.00000000000E+00 -0.38539316349E+03  0.38539316349E+03  0.00000000000E+00 0.  1.
         23    2    1    2    0    0  0.13966845011E+02  0.40846386048E+02 -0.27733615816E+03  0.29497545293E+03  0.90728568795E+02 0.  0.
         23    2    1    2    0    0 -0.13966845011E+02 -0.40846386048E+02 -0.55180419154E+02  0.14329429674E+03  0.12499950723E+03 0.  0.
          5    1    4    4  502    0 -0.16247789834E+02 -0.80017481867E+02 -0.62716461564E+02  0.10306421605E+03  0.47000000000E+01 0. -1.
         -5    1    4    4    0  502  0.22809448225E+01  0.39171095819E+02  0.75360424100E+01  0.40230080688E+02  0.47000000000E+01 0. -1.
        -11    1    3    3    0    0 -0.21975522037E+02  0.41964330864E+02 -0.69858552072E+02  0.84404655863E+02  0.00000000000E+00 0. -1.
         11    1    3    3    0    0  0.35942367048E+02 -0.11179448162E+01 -0.20747760609E+03  0.21057079706E+03  0.00000000000E+00 0.  1.
<mgrwt>
<rscale>  0 0.12346540E+03</rscale>
<asrwt>0</asrwt>
<pdfrwt beam="1">  1        2 0.81348595E-02 0.13224363E+03</pdfrwt>
<pdfrwt beam="2">  1       -2 0.59291255E-01 0.13224363E+03</pdfrwt>
<totfact> 0.21707103E+03</totfact>
</mgrwt>
</event>
<event>
 8    1  0.1273312E-005  0.1652000E+03  0.7546771E-02  0.1189980E+00
         -1   -1    0    0    0  501 -0.00000000000E+00  0.00000000000E+00  0.11881611745E+03  0.11881611745E+03  0.00000000000E+00 0.  1.
          1   -1    0    0  501    0  0.00000000000E+00 -0.00000000000E+00 -0.25126796792E+03  0.25126796792E+03  0.00000000000E+00 0. -1.
         23    2    1    2    0    0 -0.31335037700E+01 -0.10793755428E+03  0.23107910364E+02  0.14317028036E+03  0.91123099077E+02 0.  0.
         23    2    1    2    0    0  0.31335037700E+01  0.10793755428E+03 -0.15555976084E+03  0.22691380501E+03  0.12502280288E+03 0.  0.
          5    1    4    4  502    0 -0.36672974509E+02  0.11810762670E+03 -0.11335914932E+03  0.16782939337E+03  0.47000000000E+01 0. -1.
         -5    1    4    4    0  502  0.39806478279E+02 -0.10170072421E+02 -0.42200611518E+02  0.59084411637E+02  0.47000000000E+01 0. -1.
        -11    1    3    3    0    0  0.76567349092E+01 -0.74710843179E+02 -0.28939980459E+02  0.80485142399E+02  0.00000000000E+00 0. -1.
         11    1    3    3    0    0 -0.10790238679E+02 -0.33226711104E+02  0.52047890823E+02  0.62685137957E+02  0.00000000000E+00 0.  1.
<mgrwt>
<rscale>  0 0.15886850E+03</rscale>
<asrwt>0</asrwt>
<pdfrwt beam="2">  1        1 0.38656611E-01 0.16519999E+03</pdfrwt>
<pdfrwt beam="1">  1       -1 0.18279403E-01 0.16519999E+03</pdfrwt>
<totfact> 0.25113763E+03</totfact>
</mgrwt>
</event>
<event>
 8    1  0.1273312E-005  0.1352933E+03  0.7546771E-02  0.1231613E+00
         -3   -1    0    0    0  501 -0.00000000000E+00  0.00000000000E+00  0.29360223280E+03  0.29360223280E+03  0.00000000000E+00 0.  1.
          3   -1    0    0  501    0  0.00000000000E+00 -0.00000000000E+00 -0.60861779072E+02  0.60861779072E+02  0.00000000000E+00 0. -1.
         23    2    1    2    0    0  0.15699388556E+02 -0.49219931138E+02  0.18088769466E+03  0.20957446216E+03  0.92368959536E+02 0.  0.
         23    2    1    2    0    0 -0.15699388556E+02  0.49219931138E+02  0.51852759062E+02  0.14488954971E+03  0.12504079563E+03 0.  0.
          5    1    4    4  502    0  0.28957654379E+02 -0.30068272148E+02  0.46407226249E+01  0.42264323532E+02  0.47000000000E+01 0.  1.
         -5    1    4    4    0  502 -0.44657042935E+02  0.79288203287E+02  0.47212036437E+02  0.10262522618E+03  0.47000000000E+01 0.  1.
        -11    1    3    3    0    0 -0.71722929082E+01 -0.71355400868E+02  0.10370456548E+03  0.12608597035E+03  0.00000000000E+00 0.  1.
         11    1    3    3    0    0  0.22871681464E+02  0.22135469730E+02  0.77183129184E+02  0.83488491804E+02  0.00000000000E+00 0. -1.
<mgrwt>
<rscale>  0 0.12723739E+03</rscale>
<asrwt>0</asrwt>
<pdfrwt beam="2">  1        3 0.93633508E-02 0.13529329E+03</pdfrwt>
<pdfrwt beam="1">  1       -3 0.45169573E-01 0.13529329E+03</pdfrwt>
<totfact> 0.92889351E+02</totfact>
</mgrwt>
</event>
<event>
 8    1  0.1273312E-005  0.1393124E+03  0.7546771E-02  0.1225408E+00
          1   -1    0    0  501    0  0.00000000000E+00  0.00000000000E+00  0.90637679169E+02  0.90637679169E+02  0.00000000000E+00 0. -1.
         -1   -1    0    0    0  501 -0.00000000000E+00 -0.00000000000E+00 -0.19936123398E+03  0.19936123398E+03  0.00000000000E+00 0.  1.
         23    2    1    2    0    0  0.57507685639E+02  0.21790468861E+02 -0.10254713139E+03  0.15054964516E+03  0.91473072875E+02 0.  0.
         23    2    1    2    0    0 -0.57507685639E+02 -0.21790468861E+02 -0.61764234209E+01  0.13944926799E+03  0.12500396672E+03 0.  0.
          5    1    4    4  502    0 -0.72231254284E+02  0.33676966953E+02  0.77458071791E+01  0.80209598724E+02  0.47000000000E+01 0.  1.
         -5    1    4    4    0  502  0.14723568645E+02 -0.55467435814E+02 -0.13922230600E+02  0.59239669262E+02  0.47000000000E+01 0.  1.
        -11    1    3    3    0    0  0.48304175363E+02 -0.54923331087E+01 -0.11046322428E+03  0.12068795714E+03  0.00000000000E+00 0.  1.
         11    1    3    3    0    0  0.92035102765E+01  0.27282801969E+02  0.79160928918E+01  0.29861688020E+02  0.00000000000E+00 0. -1.
<mgrwt>
<rscale>  0 0.13138966E+03</rscale>
<asrwt>0</asrwt>
<pdfrwt beam="1">  1        1 0.13944258E-01 0.13931242E+03</pdfrwt>
<pdfrwt beam="2">  1       -1 0.30670959E-01 0.13931242E+03</pdfrwt>
<totfact> 0.38805725E+03</totfact>
</mgrwt>
</event>
<event>
 8    1  0.1273312E-005  0.1688813E+03  0.7546771E-02  0.1185793E+00
         -2   -1    0    0    0  501 -0.00000000000E+00  0.00000000000E+00  0.18719830700E+03  0.18719830700E+03  0.00000000000E+00 0. -1.
          2   -1    0    0  501    0  0.00000000000E+00 -0.00000000000E+00 -0.18262328294E+03  0.18262328294E+03  0.00000000000E+00 0.  1.
         23    2    1    2    0    0 -0.41162768086E+02 -0.10582405764E+03  0.99627421382E+02  0.17602827818E+03  0.90372711462E+02 0.  0.
         23    2    1    2    0    0  0.41162768086E+02  0.10582405764E+03 -0.95052397326E+02  0.19379331176E+03  0.12501113867E+03 0.  0.
          5    1    4    4  502    0  0.74306360164E+01 -0.28563497551E+02 -0.12155039219E+02  0.32263334024E+02  0.47000000000E+01 0.  1.
         -5    1    4    4    0  502  0.33732132070E+02  0.13438755519E+03 -0.82897358107E+02  0.16152997773E+03  0.47000000000E+01 0.  1.
        -11    1    3    3    0    0 -0.22192168585E+02 -0.11893596386E+03  0.75298245122E+02  0.14250642639E+03  0.00000000000E+00 0. -1.
         11    1    3    3    0    0 -0.18970599501E+02  0.13111906214E+02  0.24329176260E+02  0.33521851791E+02  0.00000000000E+00 0.  1.
<mgrwt>
<rscale>  0 0.16259954E+03</rscale>
<asrwt>0</asrwt>
<pdfrwt beam="2">  1        2 0.28095890E-01 0.16888129E+03</pdfrwt>
<pdfrwt beam="1">  1       -2 0.28799740E-01 0.16888129E+03</pdfrwt>
<totfact> 0.20400820E+03</totfact>
</mgrwt>
</event>
<event>
 8    1  0.1273312E-005  0.1371485E+03  0.7546771E-02  0.1228170E+00
          1   -1    0    0  501    0  0.00000000000E+00  0.00000000000E+00  0.28365177878E+03  0.28365177878E+03  0.00000000000E+00 0. -1.
         -1   -1    0    0    0  501 -0.00000000000E+00 -0.00000000000E+00 -0.53967000003E+02  0.53967000003E+02  0.00000000000E+00 0.  1.
         23    2    1    2    0    0  0.32749019357E+02 -0.45957312897E+02  0.85282110273E+02  0.13846597161E+03  0.93355310954E+02 0.  0.
         23    2    1    2    0    0 -0.32749019357E+02  0.45957312897E+02  0.14440266851E+03  0.19915280718E+03  0.12500054823E+03 0.  0.
          5    1    4    4  502    0 -0.65003335065E+02  0.70743946127E+02  0.10244127727E+03  0.14052204372E+03  0.47000000000E+01 0. -1.
         -5    1    4    4    0  502  0.32254315708E+02 -0.24786633230E+02  0.41961391234E+02  0.58630763452E+02  0.47000000000E+01 0. -1.
        -11    1    3    3    0    0  0.42478636697E+02  0.11936510093E+02  0.14365764285E+02  0.46403556247E+02  0.00000000000E+00 0.  1.
         11    1    3    3    0    0 -0.97296173397E+01 -0.57893822990E+02  0.70916345988E+02  0.92062415362E+02  0.00000000000E+00 0. -1.
<mgrwt>
<rscale>  0 0.12951966E+03</rscale>
<asrwt>0</asrwt>
<pdfrwt beam="1">  1        1 0.43638734E-01 0.13714850E+03</pdfrwt>
<pdfrwt beam="2">  1       -1 0.83026156E-02 0.13714850E+03</pdfrwt>
<totfact> 0.72821588E+03</totfact>
</mgrwt>
</event>
<event>
 8    1  0.1273312E-005  0.1408169E+03  0.7546771E-02  0.1223108E+00
          2   -1    0    0  501    0  0.00000000000E+00  0.00000000000E+00  0.26989147463E+04  0.26989147463E+04  0.00000000000E+00 0.  1.
         -2   -1    0    0    0  501 -0.00000000000E+00 -0.00000000000E+00 -0.10840897122E+02  0.10840897122E+02  0.00000000000E+00 0. -1.
         23    2    1    2    0    0  0.34669449046E+02  0.54795074491E+02  0.35064913175E+03  0.36809304874E+03  0.91286406678E+02 0.  0.
         23    2    1    2    0    0 -0.34669449046E+02 -0.54795074491E+02  0.23374247175E+04  0.23416625947E+04  0.12499970732E+03 0.  0.
          5    1    4    4  502    0  0.19238315198E+01 -0.72889206642E+02  0.20514403312E+04  0.20527411088E+04  0.47000000000E+01 0. -1.
         -5    1    4    4    0  502 -0.36593280566E+02  0.18094132151E+02  0.28598438630E+03  0.28892148589E+03  0.47000000000E+01 0. -1.
        -11    1    3    3    0    0 -0.14551987450E+02  0.60593989899E+02  0.18782656256E+03  0.19789444043E+03  0.00000000000E+00 0.  1.
         11    1    3    3    0    0  0.49221436496E+02 -0.57989154086E+01  0.16282256920E+03  0.17019860831E+03  0.00000000000E+00 0. -1.
<mgrwt>
<rscale>  0 0.13297445E+03</rscale>
<asrwt>0</asrwt>
<pdfrwt beam="1">  1        2 0.41521712E+00 0.14081689E+03</pdfrwt>
<pdfrwt beam="2">  1       -2 0.16678325E-02 0.14081689E+03</pdfrwt>
<totfact> 0.31731763E+03</totfact>
</mgrwt>
</event>
<event>
 8    1  0.1273312E-005  0.1460274E+03  0.7546771E-02  0.1215145E+00
         -1   -1    0    0    0  501 -0.00000000000E+00  0.00000000000E+00  0.24627277744E+02  0.24627277744E+02  0.00000000000E+00 0.  1.
          1   -1    0    0  501    0  0.00000000000E+00 -0.00000000000E+00 -0.71592525291E+03  0.71592525291E+03  0.00000000000E+00 0. -1.
         23    2    1    2    0    0  0.38605766019E+02  0.64879524338E+02 -0.28112828986E+03  0.30516400219E+03  0.91608924378E+02 0.  0.
         23    2    1    2    0    0 -0.38605766019E+02 -0.64879524338E+02 -0.41016968531E+03  0.43538852846E+03  0.12499696846E+03 0.  0.
          5    1    4    4  502    0 -0.38884829975E+02  0.13203664815E+02 -0.28360245175E+03  0.28659868702E+03  0.47000000000E+01 0. -1.
         -5    1    4    4    0  502  0.27906395542E+00 -0.78083189153E+02 -0.12656723356E+03  0.14878984144E+03  0.47000000000E+01 0. -1.
        -11    1    3    3    0    0  0.32317197939E+02 -0.17039147561E+02 -0.88846307786E+02  0.96064562871E+02  0.00000000000E+00 0.  1.
         11    1    3    3    0    0  0.62885680798E+01  0.81918671899E+02 -0.19228198208E+03  0.20909943932E+03  0.00000000000E+00 0. -1.
<mgrwt>
<rscale>  0 0.13865871E+03</rscale>
<asrwt>0</asrwt>
<pdfrwt beam="2">  1        1 0.11014234E+00 0.14602739E+03</pdfrwt>
<pdfrwt beam="1">  1       -1 0.37888123E-02 0.14602739E+03</pdfrwt>
<totfact> 0.70384525E+03</totfact>
</mgrwt>
</event>
<event>
 8    1  0.1273312E-005  0.1614587E+03  0.7546771E-02  0.1194486E+00
          2   -1    0    0  501    0  0.00000000000E+00  0.00000000000E+00  0.21654698379E+04  0.21654698379E+04  0.00000000000E+00 0. -1.
         -2   -1    0    0    0  501 -0.00000000000E+00 -0.00000000000E+00 -0.14491848786E+02  0.14491848786E+02  0.00000000000E+00 0.  1.
         23    2    1    2    0    0 -0.10190146369E+03  0.76881348111E+01  0.42739913410E+03  0.44883691026E+03  0.91332012254E+02 0.  0.
         23    2    1    2    0    0  0.10190146369E+03 -0.76881348111E+01  0.17235788550E+04  0.17311247764E+04  0.12500362547E+03 0.  0.
          5    1    4    4  502    0  0.29639125474E+02  0.54221390511E+02  0.49643262669E+03  0.50028579811E+03  0.47000000000E+01 0. -1.
         -5    1    4    4    0  502  0.72262338220E+02 -0.61909525322E+02  0.12271462283E+04  0.12308389783E+04  0.47000000000E+01 0. -1.
        -11    1    3    3    0    0 -0.28276307415E+00  0.32350579677E+02  0.92706035104E+02  0.98188843078E+02  0.00000000000E+00 0. -1.
         11    1    3    3    0    0 -0.10161870062E+03 -0.24662444866E+02  0.33469309899E+03  0.35064806718E+03  0.00000000000E+00 0.  1.
<mgrwt>
<rscale>  0 0.15497843E+03</rscale>
<asrwt>0</asrwt>
<pdfrwt beam="1">  1        2 0.33314895E+00 0.16145873E+03</pdfrwt>
<pdfrwt beam="2">  1       -2 0.22295169E-02 0.16145873E+03</pdfrwt>
<totfact> 0.40003607E+03</totfact>
</mgrwt>
</event>
<event>
 8    1  0.1273312E-005  0.1325223E+03  0.7546771E-02  0.1236527E+00
         -2   -1    0    0    0  501 -0.00000000000E+00  0.00000000000E+00  0.18281385081E+02  0.18281385081E+02  0.00000000000E+00 0.  1.
          2   -1    0    0  501    0  0.00000000000E+00 -0.00000000000E+00 -0.76707320891E+03  0.76707320891E+03  0.00000000000E+00 0. -1.
         23    2    1    2    0    0  0.31646136301E+02 -0.30545759873E+02 -0.26997858833E+03  0.28854045744E+03  0.91829385471E+02 0.  0.
         23    2    1    2    0    0 -0.31646136301E+02  0.30545759873E+02 -0.47881323550E+03  0.49681413655E+03  0.12501060114E+03 0.  0.
          5    1    4    4  502    0  0.13356717561E+02  0.69159193921E+02 -0.30643169904E+03  0.31445806109E+03  0.47000000000E+01 0. -1.
         -5    1    4    4    0  502 -0.45002853862E+02 -0.38613434048E+02 -0.17238153646E+03  0.18235607546E+03  0.47000000000E+01 0. -1.
        -11    1    3    3    0    0  0.43878759018E+02 -0.40274952741E+02 -0.26575846846E+03  0.27235084151E+03  0.00000000000E+00 0. -1.
         11    1    3    3    0    0 -0.12232622717E+02  0.97291928674E+01 -0.42201198675E+01  0.16189615934E+02  0.00000000000E+00 0.  1.
<mgrwt>
<rscale>  0 0.12407215E+03</rscale>
<asrwt>0</asrwt>
<pdfrwt beam="2">  1        2 0.11801122E+00 0.13252234E+03</pdfrwt>
<pdfrwt beam="1">  1       -2 0.28125219E-02 0.13252234E+03</pdfrwt>
<totfact> 0.16568801E+04</totfact>
</mgrwt>
</event>
<event>
 8    1  0.1273312E-005  0.1652898E+03  0.7546771E-02  0.1188402E+00
          1   -1    0    0  501    0  0.00000000000E+00  0.00000000000E+00  0.10652968050E+04  0.10652968050E+04  0.00000000000E+00 0. -1.
         -1   -1    0    0    0  501 -0.00000000000E+00 -0.00000000000E+00 -0.38880068638E+02  0.38880068638E+02  0.00000000000E+00 0.  1.
         23    2    1    2    0    0  0.25999013152E+02 -0.11198951832E+03  0.13948436520E+03  0.20197414820E+03  0.90111417188E+02 0.  0.
         23    2    1    2    0    0 -0.25999013152E+02  0.11198951832E+03  0.88693237117E+03  0.90220272544E+03  0.11875658247E+03 0.  0.
          5    1    4    4  502    0  0.19281477753E+02  0.65832470841E+02  0.71756356829E+03  0.72085036875E+03  0.47000000000E+01 0. -1.
         -5    1    4    4    0  502 -0.45280490905E+02  0.46157047474E+02  0.16936880288E+03  0.18135235669E+03  0.47000000000E+01 0.  1.
        -11    1    3    3    0    0  0.41149316755E+02 -0.12139279875E+03  0.12042258038E+03  0.17587232790E+03  0.00000000000E+00 0.  1.
         11    1    3    3    0    0 -0.15150303603E+02  0.94032804316E+01  0.19061784820E+02  0.26101820294E+02  0.00000000000E+00 0. -1.
<mgrwt>
<rscale>  0 0.16026104E+03</rscale>
<asrwt>0</asrwt>
<pdfrwt beam="1">  1        1 0.16389179E+00 0.16528983E+03</pdfrwt>
<pdfrwt beam="2">  1       -1 0.59815498E-02 0.16528983E+03</pdfrwt>
<totfact> 0.19124560E+03</totfact>
</mgrwt>
</event>
<event>
 8    1  0.1273312E-005  0.1375989E+03  0.7546771E-02  0.1229029E+00
         -2   -1    0    0    0  501 -0.00000000000E+00  0.00000000000E+00  0.23312000016E+02  0.23312000016E+02  0.00000000000E+00 0.  1.
          2   -1    0    0  501    0  0.00000000000E+00 -0.00000000000E+00 -0.72433281948E+03  0.72433281948E+03  0.00000000000E+00 0. -1.
         23    2    1    2    0    0 -0.25673549300E+02  0.51426666677E+02 -0.18182703616E+03  0.21052692729E+03  0.89200240242E+02 0.  0.
         23    2    1    2    0    0  0.25673549300E+02 -0.51426666677E+02 -0.51919378331E+03  0.53711789220E+03  0.12501844791E+03 0.  0.
          5    1    4    4  502    0  0.37980040033E+02  0.33420692272E+02 -0.16382308693E+03  0.17152119380E+03  0.47000000000E+01 0. -1.
         -5    1    4    4    0  502 -0.12306490734E+02 -0.84847358949E+02 -0.35537069638E+03  0.36559669840E+03  0.47000000000E+01 0. -1.
        -11    1    3    3    0    0 -0.56013224649E+02  0.27954744472E+02 -0.14222645982E+03  0.15539406343E+03  0.00000000000E+00 0. -1.
         11    1    3    3    0    0  0.30339675350E+02  0.23471922206E+02 -0.39600576332E+02  0.55132863867E+02  0.00000000000E+00 0.  1.
<mgrwt>
<rscale>  0 0.12894542E+03</rscale>
<asrwt>0</asrwt>
<pdfrwt beam="2">  1        2 0.11143582E+00 0.13759886E+03</pdfrwt>
<pdfrwt beam="1">  1       -2 0.35864615E-02 0.13759886E+03</pdfrwt>
<totfact> 0.12449393E+04</totfact>
</mgrwt>
</event>
<event>
 8    1  0.1273312E-005  0.1266559E+03  0.7546771E-02  0.1246667E+00
         -2   -1    0    0    0  501 -0.00000000000E+00  0.00000000000E+00  0.14513501220E+03  0.14513501220E+03  0.00000000000E+00 0.  1.
          2   -1    0    0  501    0  0.00000000000E+00 -0.00000000000E+00 -0.86520457819E+02  0.86520457819E+02  0.00000000000E+00 0. -1.
         23    2    1    2    0    0 -0.17948286414E+02  0.97180447513E+01  0.42238015766E+02  0.10394520739E+03  0.92757613081E+02 0.  0.
         23    2    1    2    0    0  0.17948286414E+02 -0.97180447513E+01  0.16376538610E+02  0.12771026262E+03  0.12500055513E+03 0.  0.
          5    1    4    4  502    0  0.67408708415E+02 -0.25509319252E+02  0.21415044132E+02  0.75334941787E+02  0.47000000000E+01 0. -1.
         -5    1    4    4    0  502 -0.49460422001E+02  0.15791274501E+02 -0.50385055219E+01  0.52375320837E+02  0.47000000000E+01 0. -1.
        -11    1    3    3    0    0  0.11606734626E+02  0.23017131046E+02 -0.20760939999E+02  0.33098659186E+02  0.00000000000E+00 0. -1.
         11    1    3    3    0    0 -0.29555021040E+02 -0.13299086294E+02  0.62998955765E+02  0.70846548204E+02  0.00000000000E+00 0.  1.
<mgrwt>
<rscale>  0 0.11786185E+03</rscale>
<asrwt>0</asrwt>
<pdfrwt beam="2">  1        2 0.13310840E-01 0.12665591E+03</pdfrwt>
<pdfrwt beam="1">  1       -2 0.22328463E-01 0.12665591E+03</pdfrwt>
<totfact> 0.73419943E+03</totfact>
</mgrwt>
</event>
<event>
 8    1  0.1273312E-005  0.2325039E+03  0.7546771E-02  0.1127829E+00
          2   -1    0    0  501    0  0.00000000000E+00  0.00000000000E+00  0.61721976782E+03  0.61721976782E+03  0.00000000000E+00 0. -1.
         -2   -1    0    0    0  501 -0.00000000000E+00 -0.00000000000E+00 -0.81766390797E+02  0.81766390797E+02  0.00000000000E+00 0.  1.
         23    2    1    2    0    0  0.63507995947E+02  0.18547681896E+03  0.24015210809E+03  0.32313927392E+03  0.91164902287E+02 0.  0.
         23    2    1    2    0    0 -0.63507995947E+02 -0.18547681896E+03  0.29530126893E+03  0.37584688469E+03  0.12499250130E+03 0.  0.
          5    1    4    4  502    0 -0.96271769468E+02 -0.15971512361E+03  0.21066391443E+03  0.28138683187E+03  0.47000000000E+01 0.  1.
         -5    1    4    4    0  502  0.32763773521E+02 -0.25761695347E+02  0.84637354497E+02  0.94460052819E+02  0.47000000000E+01 0.  1.
        -11    1    3    3    0    0  0.15748451594E+02  0.82818651537E+02  0.40293948207E+02  0.93437385623E+02  0.00000000000E+00 0.  1.
         11    1    3    3    0    0  0.47759544353E+02  0.10265816742E+03  0.19985815988E+03  0.22970188830E+03  0.00000000000E+00 0. -1.
<mgrwt>
<rscale>  0 0.22831825E+03</rscale>
<asrwt>0</asrwt>
<pdfrwt beam="1">  1        2 0.94956884E-01 0.23250385E+03</pdfrwt>
<pdfrwt beam="2">  1       -2 0.12579445E-01 0.23250385E+03</pdfrwt>
<totfact> 0.22235035E+03</totfact>
</mgrwt>
</event>
<event>
 8    1  0.1273312E-005  0.1288185E+03  0.7546771E-02  0.1244680E+00
          2   -1    0    0  501    0  0.00000000000E+00  0.00000000000E+00  0.47585677933E+03  0.47585677933E+03  0.00000000000E+00 0. -1.
         -2   -1    0    0    0  501 -0.00000000000E+00 -0.00000000000E+00 -0.36194485320E+02  0.36194485320E+02  0.00000000000E+00 0.  1.
         23    2    1    2    0    0 -0.18389199959E+02  0.25065080028E+02  0.60855964619E+02  0.11194073759E+03  0.88661487645E+02 0.  0.
         23    2    1    2    0    0  0.18389199959E+02 -0.25065080028E+02  0.37880632939E+03  0.40011052705E+03  0.12501111055E+03 0.  0.
          5    1    4    4  502    0  0.58355756034E+02 -0.52586905230E+02  0.26126637084E+03  0.27286073994E+03  0.47000000000E+01 0. -1.
         -5    1    4    4    0  502 -0.39966556075E+02  0.27521825202E+02  0.11753995854E+03  0.12724978712E+03  0.47000000000E+01 0. -1.
        -11    1    3    3    0    0  0.34728807645E+02 -0.86088018643E+00  0.25121632643E+02  0.42871058091E+02  0.00000000000E+00 0.  1.
         11    1    3    3    0    0 -0.53118007604E+02  0.25925960215E+02  0.35734331975E+02  0.69069679503E+02  0.00000000000E+00 0. -1.
<mgrwt>
<rscale>  0 0.11904522E+03</rscale>
<asrwt>0</asrwt>
<pdfrwt beam="1">  1        2 0.73208731E-01 0.12881847E+03</pdfrwt>
<pdfrwt beam="2">  1       -2 0.55683827E-02 0.12881847E+03</pdfrwt>
<totfact> 0.10353680E+04</totfact>
</mgrwt>
</event>
<event>
 8    1  0.1273312E-005  0.1262738E+03  0.7546771E-02  0.1247092E+00
         -1   -1    0    0    0  501 -0.00000000000E+00  0.00000000000E+00  0.34125903134E+03  0.34125903134E+03  0.00000000000E+00 0.  1.
          1   -1    0    0  501    0  0.00000000000E+00 -0.00000000000E+00 -0.35877539721E+02  0.35877539721E+02  0.00000000000E+00 0. -1.
         23    2    1    2    0    0  0.15647989953E+02  0.86725574127E+01  0.13154428738E+03  0.16227742841E+03  0.93327334620E+02 0.  0.
         23    2    1    2    0    0 -0.15647989953E+02 -0.86725574127E+01  0.17383720424E+03  0.21485914265E+03  0.12500001905E+03 0.  0.
          5    1    4    4  502    0 -0.64359149442E+02 -0.47613535022E+01  0.14280420390E+03  0.15677978586E+03  0.47000000000E+01 0.  1.
         -5    1    4    4    0  502  0.48711159489E+02 -0.39112039104E+01  0.31033000340E+02  0.58079356788E+02  0.47000000000E+01 0.  1.
        -11    1    3    3    0    0 -0.24678034332E+02  0.37834763140E+02  0.59081527756E+02  0.74371376230E+02  0.00000000000E+00 0. -1.
         11    1    3    3    0    0  0.40326024285E+02 -0.29162205728E+02  0.72462759624E+02  0.87906052179E+02  0.00000000000E+00 0.  1.
<mgrwt>
<rscale>  0 0.11761057E+03</rscale>
<asrwt>0</asrwt>
<pdfrwt beam="2">  1        1 0.55196217E-02 0.12627382E+03</pdfrwt>
<pdfrwt beam="1">  1       -1 0.52501387E-01 0.12627382E+03</pdfrwt>
<totfact> 0.51598201E+03</totfact>
</mgrwt>
</event>
<event>
 8    1  0.1273312E-005  0.2694573E+03  0.7546771E-02  0.1103652E+00
          2   -1    0    0  501    0  0.00000000000E+00  0.00000000000E+00  0.39456591344E+03  0.39456591344E+03  0.00000000000E+00 0. -1.
         -2   -1    0    0    0  501 -0.00000000000E+00 -0.00000000000E+00 -0.29059178150E+03  0.29059178150E+03  0.00000000000E+00 0.  1.
         23    2    1    2    0    0 -0.75534242833E+02  0.22644834727E+03 -0.16523447673E+03  0.30426332711E+03  0.91046494192E+02 0.  0.
         23    2    1    2    0    0  0.75534242833E+02 -0.22644834727E+03  0.26920860868E+03  0.38089436783E+03  0.12499187428E+03 0.  0.
          5    1    4    4  502    0 -0.32761840107E+02 -0.82282106931E+02  0.98580233194E+02  0.13260405599E+03  0.47000000000E+01 0. -1.
         -5    1    4    4    0  502  0.10829608294E+03 -0.14416624033E+03  0.17062837548E+03  0.24829031184E+03  0.47000000000E+01 0. -1.
        -11    1    3    3    0    0  0.10327519532E+02  0.10921758418E+03 -0.80272133161E+02  0.13593657976E+03  0.00000000000E+00 0.  1.
         11    1    3    3    0    0 -0.85861762365E+02  0.11723076309E+03 -0.84962343573E+02  0.16832674736E+03  0.00000000000E+00 0. -1.
<mgrwt>
<rscale>  0 0.26589477E+03</rscale>
<asrwt>0</asrwt>
<pdfrwt beam="1">  1        2 0.60702448E-01 0.26945731E+03</pdfrwt>
<pdfrwt beam="2">  1       -2 0.44706428E-01 0.26945731E+03</pdfrwt>
<totfact> 0.39120502E+02</totfact>
</mgrwt>
</event>
<event>
 8    1  0.1273312E-005  0.1484239E+03  0.7546771E-02  0.1208946E+00
         -2   -1    0    0    0  501 -0.00000000000E+00  0.00000000000E+00  0.86473837960E+02  0.86473837960E+02  0.00000000000E+00 0.  1.
          2   -1    0    0  501    0  0.00000000000E+00 -0.00000000000E+00 -0.42860639964E+03  0.42860639964E+03  0.00000000000E+00 0. -1.
         23    2    1    2    0    0 -0.74729655809E+02  0.55820193775E+02  0.13519047323E+02  0.12970026760E+03  0.89100949969E+02 0.  0.
         23    2    1    2    0    0  0.74729655809E+02 -0.55820193775E+02 -0.35565160900E+03  0.38537996999E+03  0.11545232262E+03 0.  0.
          5    1    4    4  502    0  0.10394123629E+03 -0.56193430113E+02 -0.29730822589E+03  0.31996211240E+03  0.47000000000E+01 0. -1.
         -5    1    4    4    0  502 -0.29211580481E+02  0.37323633839E+00 -0.58343383105E+02  0.65417857590E+02  0.47000000000E+01 0.  1.
        -11    1    3    3    0    0  0.76846918662E+00  0.46765848435E+02 -0.14019410477E+02  0.48828055407E+02  0.00000000000E+00 0. -1.
         11    1    3    3    0    0 -0.75498124995E+02  0.90543453393E+01  0.27538457800E+02  0.80872212195E+02  0.00000000000E+00 0.  1.
<mgrwt>
<rscale>  0 0.14330788E+03</rscale>
<asrwt>0</asrwt>
<pdfrwt beam="2">  1        2 0.65939445E-01 0.14842390E+03</pdfrwt>
<pdfrwt beam="1">  1       -2 0.13303668E-01 0.14842390E+03</pdfrwt>
<totfact> 0.30133258E+03</totfact>
</mgrwt>
</event>
<event>
 7    1  0.1273312E-005  0.2003747E+03  0.7546771E-02  0.1173698E+00
          1   -1    0    0  501    0  0.00000000000E+00  0.00000000000E+00  0.44951487215E+03  0.44951487215E+03  0.00000000000E+00 0. -1.
         -1   -1    0    0    0  501 -0.00000000000E+00 -0.00000000000E+00 -0.56505407250E+02  0.56505407250E+02  0.00000000000E+00 0.  1.
         23    2    1    2    0    0  0.57880082514E+02 -0.35908952241E+02  0.18400165261E+03  0.21647879288E+03  0.91470775666E+02 0.  0.
          5    1    1    2  502    0 -0.34364936643E+02 -0.56557975459E+02  0.17662683975E+03  0.18867666517E+03  0.47000000000E+01 0. -1.
         -5    1    1    2    0  502 -0.23515145871E+02  0.92466927700E+02  0.32380972538E+02  0.10086482135E+03  0.47000000000E+01 0.  1.
        -11    1    3    3    0    0 -0.92669072934E+01 -0.20123958541E+02  0.24801957830E+01  0.22293511371E+02  0.00000000000E+00 0.  1.
         11    1    3    3    0    0  0.67146989808E+02 -0.15784993700E+02  0.18152145683E+03  0.19418528151E+03  0.00000000000E+00 0. -1.
<mgrwt>
<rscale>  0 0.17404117E+03</rscale>
<asrwt>0</asrwt>
<pdfrwt beam="1">  1        1 0.69156132E-01 0.20037467E+03</pdfrwt>
<pdfrwt beam="2">  1       -1 0.86931399E-02 0.20037467E+03</pdfrwt>
<totfact> 0.38786527E+03</totfact>
</mgrwt>
</event>
<event>
 8    1  0.1273312E-005  0.1407737E+03  0.7546771E-02  0.1223762E+00
         -1   -1    0    0    0  501 -0.00000000000E+00  0.00000000000E+00  0.10243227721E+02  0.10243227721E+02  0.00000000000E+00 0.  1.
          1   -1    0    0  501    0  0.00000000000E+00 -0.00000000000E+00 -0.26050485448E+04  0.26050485448E+04  0.00000000000E+00 0. -1.
         23    2    1    2    0    0  0.55463014491E+02 -0.33406293223E+02 -0.37319442277E+03  0.38922524261E+03  0.89610746532E+02 0.  0.
         23    2    1    2    0    0 -0.55463014491E+02  0.33406293223E+02 -0.22216108943E+04  0.22260665299E+04  0.12500041391E+03 0.  0.
          5    1    4    4  502    0 -0.38474947338E+02  0.76955069464E+02 -0.17503679710E+04  0.17524875258E+04  0.47000000000E+01 0.  1.
         -5    1    4    4    0  502 -0.16988067153E+02 -0.43548776241E+02 -0.47124292330E+03  0.47357900407E+03  0.47000000000E+01 0.  1.
        -11    1    3    3    0    0  0.62550363273E+02  0.87829838011E+01 -0.27422424545E+03  0.28140473618E+03  0.00000000000E+00 0.  1.
         11    1    3    3    0    0 -0.70873487813E+01 -0.42189277024E+02 -0.98970177318E+02  0.10782050643E+03  0.00000000000E+00 0. -1.
<mgrwt>
<rscale>  0 0.13252104E+03</rscale>
<asrwt>0</asrwt>
<pdfrwt beam="2">  1        1 0.40077707E+00 0.14077368E+03</pdfrwt>
<pdfrwt beam="1">  1       -1 0.15758797E-02 0.14077368E+03</pdfrwt>
<totfact> 0.13281322E+03</totfact>
</mgrwt>
</event>
<event>
 8    1  0.1273312E-005  0.1176498E+03  0.7546771E-02  0.1257133E+00
         -2   -1    0    0    0  501 -0.00000000000E+00  0.00000000000E+00  0.13265494776E+02  0.13265494776E+02  0.00000000000E+00 0.  1.
          2   -1    0    0  501    0  0.00000000000E+00 -0.00000000000E+00 -0.89381258042E+03  0.89381258042E+03  0.00000000000E+00 0. -1.
         23    2    1    2    0    0 -0.12722024332E+02  0.29128499234E+02 -0.31238721648E+03  0.32686508682E+03  0.90800289588E+02 0.  0.
         23    2    1    2    0    0  0.12722024332E+02 -0.29128499234E+02 -0.56815986917E+03  0.58021298838E+03  0.11327469084E+03 0.  0.
          5    1    4    4  502    0  0.91442150620E+01 -0.98665947120E+01 -0.55699834298E+03  0.55718059051E+03  0.47000000000E+01 0. -1.
         -5    1    4    4    0  502  0.35778092703E+01 -0.19261904522E+02 -0.11161526193E+02  0.23032397877E+02  0.47000000000E+01 0.  1.
        -11    1    3    3    0    0 -0.28055108367E+02  0.43231622720E+02 -0.29574301543E+03  0.30019992253E+03  0.00000000000E+00 0. -1.
         11    1    3    3    0    0  0.15333084035E+02 -0.14103123486E+02 -0.16644201046E+02  0.26665164288E+02  0.00000000000E+00 0.  1.
<mgrwt>
<rscale>  0 0.11187692E+03</rscale>
<asrwt>0</asrwt>
<pdfrwt beam="2">  1        2 0.13750963E+00 0.11764980E+03</pdfrwt>
<pdfrwt beam="1">  1       -2 0.20408453E-02 0.11764980E+03</pdfrwt>
<totfact> 0.21605270E+04</totfact>
</mgrwt>
</event>
<event>
 7    1  0.1273312E-005  0.7099583E+03  0.7546771E-02  0.9700352E-01
          4   -1    0    0  501    0  0.00000000000E+00  0.00000000000E+00  0.49551047931E+03  0.49551047931E+03  0.00000000000E+00 0. -1.
         -4   -1    0    0    0  501 -0.00000000000E+00 -0.00000000000E+00 -0.25430379566E+03  0.25430379566E+03  0.00000000000E+00 0.  1.
         23    2    1    2    0    0  0.98850697808E+02  0.11066822112E+03 -0.53366633393E+02  0.18039891860E+03  0.87617673150E+02 0.  0.
          5    1    1    2  502    0 -0.87599411764E+02 -0.21920032702E+03  0.36841690563E+03  0.43757918902E+03  0.47000000000E+01 0. -1.
         -5    1    1    2    0  502 -0.11251286044E+02  0.10853210590E+03 -0.73843588589E+02  0.13183616736E+03  0.47000000000E+01 0.  1.
        -11    1    3    3    0    0  0.11138783485E+03  0.94278977629E+02 -0.61311948727E+02  0.15828749297E+03  0.00000000000E+00 0.  1.
         11    1    3    3    0    0 -0.12537137040E+02  0.16389243491E+02  0.79453153341E+01  0.22111425624E+02  0.00000000000E+00 0. -1.
<mgrwt>
<rscale>  0 0.70995830E+03</rscale>
<asrwt>0</asrwt>
<pdfrwt beam="1">  1        4 0.76232381E-01 0.70995830E+03</pdfrwt>
<pdfrwt beam="2">  1       -4 0.39123661E-01 0.70995830E+03</pdfrwt>
<totfact> 0.19583110E+01</totfact>
</mgrwt>
</event>
<event>
 8    1  0.1273312E-005  0.1515280E+03  0.7546771E-02  0.1207167E+00
          2   -1    0    0  501    0  0.00000000000E+00  0.00000000000E+00  0.18805439707E+03  0.18805439707E+03  0.00000000000E+00 0. -1.
         -2   -1    0    0    0  501 -0.00000000000E+00 -0.00000000000E+00 -0.10749629994E+03  0.10749629994E+03  0.00000000000E+00 0.  1.
         23    2    1    2    0    0 -0.64591370303E+02  0.56252369217E+02  0.45259631472E+01  0.12601715462E+03  0.92322612371E+02 0.  0.
         23    2    1    2    0    0  0.64591370303E+02 -0.56252369217E+02  0.76032133981E+02  0.16953354239E+03  0.12499744973E+03 0.  0.
          5    1    4    4  502    0  0.93693526587E+02 -0.52230156960E+02  0.24658184516E+02  0.11016615762E+03  0.47000000000E+01 0. -1.
         -5    1    4    4    0  502 -0.29102156284E+02 -0.40222122574E+01  0.51373949464E+02  0.59367384778E+02  0.47000000000E+01 0. -1.
        -11    1    3    3    0    0 -0.37193099576E+02  0.80037910286E+02 -0.53346898829E+01  0.88418621654E+02  0.00000000000E+00 0. -1.
         11    1    3    3    0    0 -0.27398270727E+02 -0.23785541068E+02  0.98606530301E+01  0.37598532962E+02  0.00000000000E+00 0.  1.
<mgrwt>
<rscale>  0 0.14467951E+03</rscale>
<asrwt>0</asrwt>
<pdfrwt beam="1">  1        2 0.28931446E-01 0.15152801E+03</pdfrwt>
<pdfrwt beam="2">  1       -2 0.16537892E-01 0.15152801E+03</pdfrwt>
<totfact> 0.51049357E+03</totfact>
</mgrwt>
</event>
<event>
 7    1  0.1273312E-005  0.1333233E+03  0.7546771E-02  0.1280277E+00
         -2   -1    0    0    0  501 -0.00000000000E+00  0.00000000000E+00  0.19796037496E+02  0.19796037496E+02  0.00000000000E+00 0.  1.
          2   -1    0    0  501    0  0.00000000000E+00 -0.00000000000E+00 -0.48057470739E+03  0.48057470739E+03  0.00000000000E+00 0. -1.
         23    2    1    2    0    0 -0.15821789254E+02 -0.37567031090E+02 -0.42371842910E+03  0.44419860664E+03  0.12693889923E+03 0.  0.
          5    1    3    3  502    0  0.45259450461E+02 -0.50784480635E+02 -0.17799637193E+03  0.19061028238E+03  0.47000000000E+01 0. -1.
         -5    1    3    3    0  502 -0.61081239715E+02  0.13217449545E+02 -0.24572205717E+03  0.25358832426E+03  0.47000000000E+01 0.  1.
        -11    1    1    2    0    0  0.15625734028E+02  0.25837087472E+02 -0.29513627585E+02  0.42222895047E+02  0.00000000000E+00 0.  1.
         11    1    1    2    0    0  0.19605522620E+00  0.11729943618E+02 -0.75466132014E+01  0.13949243196E+02  0.00000000000E+00 0. -1.
<mgrwt>
<rscale>  0 0.10000882E+03</rscale>
<asrwt>0</asrwt>
<pdfrwt beam="2">  1        2 0.73934573E-01 0.13332327E+03</pdfrwt>
<pdfrwt beam="1">  1       -2 0.30455441E-02 0.13332327E+03</pdfrwt>
<totfact> 0.25203073E+04</totfact>
</mgrwt>
</event>
<event>
 8    1  0.1273312E-005  0.1273902E+03  0.7546771E-02  0.1246625E+00
          1   -1    0    0  501    0  0.00000000000E+00  0.00000000000E+00  0.45355933826E+02  0.45355933826E+02  0.00000000000E+00 0. -1.
         -1   -1    0    0    0  501 -0.00000000000E+00 -0.00000000000E+00 -0.26941253990E+03  0.26941253990E+03  0.00000000000E+00 0.  1.
         23    2    1    2    0    0 -0.13888059375E+02  0.20287310478E+02 -0.10253196298E+03  0.13871022928E+03  0.90129191242E+02 0.  0.
         23    2    1    2    0    0  0.13888059375E+02 -0.20287310478E+02 -0.12152464309E+03  0.17605824445E+03  0.12499525351E+03 0.  0.
          5    1    4    4  502    0  0.32167577985E+02  0.38659852837E+02 -0.14716198305E+02  0.52611726709E+02  0.47000000000E+01 0. -1.
         -5    1    4    4    0  502 -0.18279518609E+02 -0.58947163315E+02 -0.10680844479E+03  0.12344651774E+03  0.47000000000E+01 0. -1.
        -11    1    3    3    0    0 -0.29684114563E+02 -0.28453449378E+02 -0.56168548552E+02  0.69610712432E+02  0.00000000000E+00 0.  1.
         11    1    3    3    0    0  0.15796055187E+02  0.48740759856E+02 -0.46363414430E+02  0.69099516846E+02  0.00000000000E+00 0. -1.
<mgrwt>
<rscale>  0 0.11788666E+03</rscale>
<asrwt>0</asrwt>
<pdfrwt beam="1">  1        1 0.69778359E-02 0.12739021E+03</pdfrwt>
<pdfrwt beam="2">  1       -1 0.41448083E-01 0.12739021E+03</pdfrwt>
<totfact> 0.57519815E+03</totfact>
</mgrwt>
</event>
<event>
 8    1  0.1273312E-005  0.1492834E+03  0.7546771E-02  0.1210529E+00
         -2   -1    0    0    0  501 -0.00000000000E+00  0.00000000000E+00  0.18515086472E+03  0.18515086472E+03  0.00000000000E+00 0.  1.
          2   -1    0    0  501    0  0.00000000000E+00 -0.00000000000E+00 -0.10381467793E+03  0.10381467793E+03  0.00000000000E+00 0. -1.
         23    2    1    2    0    0  0.49817014521E+02  0.64644996032E+02  0.65161548603E+02  0.13880845290E+03  0.91438770399E+02 0.  0.
         23    2    1    2    0    0 -0.49817014521E+02 -0.64644996032E+02  0.16174638192E+02  0.15015708975E+03  0.12499928893E+03 0.  0.
          5    1    4    4  502    0 -0.31755376946E+02 -0.87967926631E+01 -0.50954062270E+02  0.60862089908E+02  0.47000000000E+01 0.  1.
         -5    1    4    4    0  502 -0.18061637575E+02 -0.55848203369E+02  0.67128700461E+02  0.89294999844E+02  0.47000000000E+01 0.  1.
        -11    1    3    3    0    0  0.51136802951E+02  0.30360280692E+02 -0.60352259960E+01  0.59775774463E+02  0.00000000000E+00 0. -1.
         11    1    3    3    0    0 -0.13197884305E+01  0.34284715340E+02  0.71196774599E+02  0.79032678436E+02  0.00000000000E+00 0.  1.
<mgrwt>
<rscale>  0 0.14210152E+03</rscale>
<asrwt>0</asrwt>
<pdfrwt beam="2">  1        2 0.15971489E-01 0.14928340E+03</pdfrwt>
<pdfrwt beam="1">  1       -2 0.28484748E-01 0.14928340E+03</pdfrwt>
<totfact> 0.39142527E+03</totfact>
</mgrwt>
</event>
<event>
 8    1  0.1273312E-005  0.2906724E+03  0.7546771E-02  0.1090927E+00
          2   -1    0    0  501    0  0.00000000000E+00  0.00000000000E+00  0.17743613800E+04  0.17743613800E+04  0.00000000000E+00 0. -1.
         -2   -1    0    0    0  501 -0.00000000000E+00 -0.00000000000E+00 -0.64792807535E+02  0.64792807535E+02  0.00000000000E+00 0.  1.
         23    2    1    2    0    0  0.22719496711E+03  0.14358325184E+03  0.35829071041E+03  0.45696667944E+03  0.90623449895E+02 0.  0.
         23    2    1    2    0    0 -0.22719496711E+03 -0.14358325184E+03  0.13512778621E+04  0.13821875081E+04  0.11071017903E+03 0.  0.
          5    1    4    4  502    0 -0.15025672208E+03 -0.13263974701E+03  0.11291833060E+04  0.11468423665E+04  0.47000000000E+01 0. -1.
         -5    1    4    4    0  502 -0.76938245032E+02 -0.10943504837E+02  0.22209455609E+03  0.23534514163E+03  0.47000000000E+01 0.  1.
        -11    1    3    3    0    0  0.10439962593E+03  0.59309912977E+02  0.23390975157E+03  0.26292721341E+03  0.00000000000E+00 0.  1.
         11    1    3    3    0    0  0.12279534117E+03  0.84273338868E+02  0.12438095883E+03  0.19403946603E+03  0.00000000000E+00 0. -1.
<mgrwt>
<rscale>  0 0.28889573E+03</rscale>
<asrwt>0</asrwt>
<pdfrwt beam="1">  1        2 0.27297864E+00 0.29067241E+03</pdfrwt>
<pdfrwt beam="2">  1       -2 0.99681256E-02 0.29067241E+03</pdfrwt>
<totfact> 0.65069065E+02</totfact>
</mgrwt>
</event>
<event>
 8    1  0.1273312E-005  0.1424003E+03  0.7546771E-02  0.1220611E+00
         -3   -1    0    0    0  501 -0.00000000000E+00  0.00000000000E+00  0.62406964060E+03  0.62406964060E+03  0.00000000000E+00 0.  1.
          3   -1    0    0  501    0  0.00000000000E+00 -0.00000000000E+00 -0.26797225248E+02  0.26797225248E+02  0.00000000000E+00 0. -1.
         23    2    1    2    0    0 -0.46183414579E+02 -0.50201523821E+02  0.30783956729E+03  0.32830023564E+03  0.91448044049E+02 0.  0.
         23    2    1    2    0    0  0.46183414579E+02  0.50201523821E+02  0.28943284807E+03  0.32256663021E+03  0.12499902642E+03 0.  0.
          5    1    4    4  502    0  0.84858621493E+02  0.12471902438E+02  0.14843774311E+03  0.17150040109E+03  0.47000000000E+01 0.  1.
         -5    1    4    4    0  502 -0.38675206914E+02  0.37729621383E+02  0.14099510495E+03  0.15106622912E+03  0.47000000000E+01 0.  1.
        -11    1    3    3    0    0 -0.51044173635E+02  0.11042115539E+02  0.15566330034E+03  0.16419043532E+03  0.00000000000E+00 0. -1.
         11    1    3    3    0    0  0.48607590557E+01 -0.61243639360E+02  0.15217626694E+03  0.16410980032E+03  0.00000000000E+00 0.  1.
<mgrwt>
<rscale>  0 0.13472318E+03</rscale>
<asrwt>0</asrwt>
<pdfrwt beam="2">  1        3 0.41226505E-02 0.14240034E+03</pdfrwt>
<pdfrwt beam="1">  1       -3 0.96010703E-01 0.14240034E+03</pdfrwt>
<totfact> 0.71654903E+02</totfact>
</mgrwt>
</event>
<event>
 8    1  0.1273312E-005  0.1282206E+03  0.7546771E-02  0.1245070E+00
          2   -1    0    0  501    0  0.00000000000E+00  0.00000000000E+00  0.49823566169E+02  0.49823566169E+02  0.00000000000E+00 0. -1.
         -2   -1    0    0    0  501 -0.00000000000E+00 -0.00000000000E+00 -0.31112661424E+03  0.31112661424E+03  0.00000000000E+00 0.  1.
         23    2    1    2    0    0  0.18868852445E+02  0.21437698018E+02 -0.19476628163E+03  0.21649371974E+03  0.90111141034E+02 0.  0.
         23    2    1    2    0    0 -0.18868852445E+02 -0.21437698018E+02 -0.66536766438E+02  0.14445646066E+03  0.12499967700E+03 0.  0.
          5    1    4    4  502    0 -0.12343292465E+02 -0.43813332497E+02  0.23423296252E+02  0.51407254164E+02  0.47000000000E+01 0.  1.
         -5    1    4    4    0  502 -0.65255599797E+01  0.22375634479E+02 -0.89960062689E+02  0.93049206501E+02  0.47000000000E+01 0.  1.
        -11    1    3    3    0    0 -0.13098581455E+02  0.34069987576E+02 -0.17063646485E+03  0.17449681953E+03  0.00000000000E+00 0.  1.
         11    1    3    3    0    0  0.31967433899E+02 -0.12632289557E+02 -0.24129816782E+02  0.41996900213E+02  0.00000000000E+00 0. -1.
<mgrwt>
<rscale>  0 0.11881165E+03</rscale>
<asrwt>0</asrwt>
<pdfrwt beam="1">  1        2 0.76651641E-02 0.12822062E+03</pdfrwt>
<pdfrwt beam="2">  1       -2 0.47865633E-01 0.12822062E+03</pdfrwt>
<totfact> 0.35835370E+03</totfact>
</mgrwt>
</event>
<event>
 8    1  0.1273312E-005  0.1342985E+03  0.7546771E-02  0.1233230E+00
         -3   -1    0    0    0  501 -0.00000000000E+00  0.00000000000E+00  0.22951779756E+03  0.22951779756E+03  0.00000000000E+00 0.  1.
          3   -1    0    0  501    0  0.00000000000E+00 -0.00000000000E+00 -0.90563304320E+02  0.90563304320E+02  0.00000000000E+00 0. -1.
         23    2    1    2    0    0  0.28778783562E+02  0.39771924311E+02  0.15264869197E+03  0.18508626099E+03  0.92440664741E+02 0.  0.
         23    2    1    2    0    0 -0.28778783562E+02 -0.39771924311E+02 -0.13694198737E+02  0.13499484089E+03  0.12500420649E+03 0.  0.
          5    1    4    4  502    0 -0.32901457025E+02 -0.30841004455E+02  0.51661429943E+02  0.68736211519E+02  0.47000000000E+01 0. -1.
         -5    1    4    4    0  502  0.41226734639E+01 -0.89309198565E+01 -0.65355628681E+02  0.66258629372E+02  0.47000000000E+01 0. -1.
        -11    1    3    3    0    0  0.36612884012E+02 -0.17236447466E+02  0.32623810732E+02  0.51979913655E+02  0.00000000000E+00 0.  1.
         11    1    3    3    0    0 -0.78341004509E+01  0.57008371777E+02  0.12002488124E+03  0.13310634733E+03  0.00000000000E+00 0. -1.
<mgrwt>
<rscale>  0 0.12618459E+03</rscale>
<asrwt>0</asrwt>
<pdfrwt beam="2">  1        3 0.13932816E-01 0.13429846E+03</pdfrwt>
<pdfrwt beam="1">  1       -3 0.35310430E-01 0.13429846E+03</pdfrwt>
<totfact> 0.76767256E+02</totfact>
</mgrwt>
</event>
<event>
 7    1  0.1273312E-005  0.3417662E+03  0.7546771E-02  0.1066046E+00
          2   -1    0    0  501    0  0.00000000000E+00  0.00000000000E+00  0.61796793473E+03  0.61796793473E+03  0.00000000000E+00 0. -1.
         -2   -1    0    0    0  501 -0.00000000000E+00 -0.00000000000E+00 -0.47253305599E+02  0.47253305599E+02  0.00000000000E+00 0.  1.
         23    2    1    2    0    0 -0.93312571018E+02  0.43097849587E+02  0.28439970783E+03  0.31352368302E+03  0.82760168266E+02 0.  0.
          5    1    1    2  502    0  0.13775109157E+03 -0.76167992388E+01  0.14962246480E+03  0.20357394438E+03  0.47000000000E+01 0. -1.
         -5    1    1    2    0  502 -0.44438520548E+02 -0.35481050348E+02  0.13669245651E+03  0.14812361293E+03  0.47000000000E+01 0.  1.
        -11    1    3    3    0    0 -0.27201322175E+02 -0.23114476111E+02  0.52766387788E+02  0.63706221157E+02  0.00000000000E+00 0.  1.
         11    1    3    3    0    0 -0.66111248844E+02  0.66212325698E+02  0.23163332004E+03  0.24981746186E+03  0.00000000000E+00 0. -1.
<mgrwt>
<rscale>  0 0.34176616E+03</rscale>
<asrwt>0</asrwt>
<pdfrwt beam="1">  1        2 0.95071984E-01 0.34176616E+03</pdfrwt>
<pdfrwt beam="2">  1       -2 0.72697398E-02 0.34176616E+03</pdfrwt>
<totfact> 0.53724899E+03</totfact>
</mgrwt>
</event>
<event>
 6    1  0.1273312E-005  0.2324100E+03  0.7546771E-02  0.1141543E+00
          1   -1    0    0  501    0  0.00000000000E+00  0.00000000000E+00  0.21245430558E+03  0.21245430558E+03  0.00000000000E+00 0. -1.
         -1   -1    0    0    0  501 -0.00000000000E+00 -0.00000000000E+00 -0.20087796565E+03  0.20087796565E+03  0.00000000000E+00 0.  1.
          5    1    1    2  502    0  0.10672529747E+03  0.96356154527E+01  0.10218519953E+03  0.14814533137E+03  0.47000000000E+01 0. -1.
         -5    1    1    2    0  502 -0.91507623620E+02  0.18924604224E+02 -0.24828661033E+02  0.96800507407E+02  0.47000000000E+01 0.  1.
        -11    1    1    2    0    0 -0.63776645906E+02  0.94456591167E+01 -0.82301589767E+02  0.10454775329E+03  0.00000000000E+00 0.  1.
         11    1    1    2    0    0  0.48558972057E+02 -0.38005878793E+02  0.16521391197E+02  0.63838679162E+02  0.00000000000E+00 0. -1.
<mgrwt>
<rscale>  0 0.21002864E+03</rscale>
<asrwt>0</asrwt>
<pdfrwt beam="1">  1        1 0.32685278E-01 0.23241005E+03</pdfrwt>
<pdfrwt beam="2">  1       -1 0.30904302E-01 0.23241005E+03</pdfrwt>
<totfact> 0.13146269E+03</totfact>
</mgrwt>
</event>
<event>
 8    1  0.1273312E-005  0.2484740E+03  0.7546771E-02  0.1116787E+00
         -1   -1    0    0    0  501 -0.00000000000E+00  0.00000000000E+00  0.14514692532E+03  0.14514692532E+03  0.00000000000E+00 0.  1.
          1   -1    0    0  501    0  0.00000000000E+00 -0.00000000000E+00 -0.39979248885E+03  0.39979248885E+03  0.00000000000E+00 0. -1.
         23    2    1    2    0    0  0.12019417802E+03 -0.17796079091E+03 -0.11779221463E+03  0.26127028757E+03  0.90942145392E+02 0.  0.
         23    2    1    2    0    0 -0.12019417802E+03  0.17796079091E+03 -0.13685334890E+03  0.28366912660E+03  0.12499060264E+03 0.  0.
          5    1    4    4  502    0 -0.41843138398E+01  0.11730564736E+03 -0.63743204226E+02  0.13365406642E+03  0.47000000000E+01 0. -1.
         -5    1    4    4    0  502 -0.11600986418E+03  0.60655143547E+02 -0.73110144672E+02  0.15001506018E+03  0.47000000000E+01 0. -1.
        -11    1    3    3    0    0  0.59125176090E+02 -0.21806527302E+02 -0.15632630136E+02  0.64928346703E+02  0.00000000000E+00 0.  1.
         11    1    3    3    0    0  0.61069001932E+02 -0.15615426361E+03 -0.10215958449E+03  0.19634194087E+03  0.00000000000E+00 0. -1.
<mgrwt>
<rscale>  0 0.24456695E+03</rscale>
<asrwt>0</asrwt>
<pdfrwt beam="2">  1        1 0.61506536E-01 0.24847401E+03</pdfrwt>
<pdfrwt beam="1">  1       -1 0.22330297E-01 0.24847401E+03</pdfrwt>
<totfact> 0.10202681E+03</totfact>
</mgrwt>
</event>
<event>
 8    1  0.1273312E-005  0.2444836E+03  0.7546771E-02  0.1119610E+00
         -1   -1    0    0    0  501 -0.00000000000E+00  0.00000000000E+00  0.67704312049E+02  0.67704312049E+02  0.00000000000E+00 0.  1.
          1   -1    0    0  501    0  0.00000000000E+00 -0.00000000000E+00 -0.95004773354E+03  0.95004773354E+03  0.00000000000E+00 0. -1.
         23    2    1    2    0    0 -0.20280508478E+03 -0.54925629156E+02 -0.24304701657E+03  0.33330180824E+03  0.88721564245E+02 0.  0.
         23    2    1    2    0    0  0.20280508478E+03  0.54925629156E+02 -0.63929640492E+03  0.68445023735E+03  0.12500202762E+03 0.  0.
          5    1    4    4  502    0  0.95060270872E+02  0.66179676452E+01 -0.12782095973E+03  0.15950091015E+03  0.47000000000E+01 0.  1.
         -5    1    4    4    0  502  0.10774481391E+03  0.48307661511E+02 -0.51147544520E+03  0.52494932720E+03  0.47000000000E+01 0.  1.
        -11    1    3    3    0    0 -0.50215705746E+02 -0.31458905952E+01 -0.12137135866E+03  0.13138691120E+03  0.00000000000E+00 0. -1.
         11    1    3    3    0    0 -0.15258937904E+03 -0.51779738561E+02 -0.12167565791E+03  0.20191489704E+03  0.00000000000E+00 0.  1.
<mgrwt>
<rscale>  0 0.24027399E+03</rscale>
<asrwt>0</asrwt>
<pdfrwt beam="2">  1        1 0.14616119E+00 0.24448361E+03</pdfrwt>
<pdfrwt beam="1">  1       -1 0.10416048E-01 0.24448361E+03</pdfrwt>
<totfact> 0.10007847E+03</totfact>
</mgrwt>
</event>
<event>
 8    1  0.1273312E-005  0.1259869E+03  0.7546771E-02  0.1246586E+00
         -2   -1    0    0    0  501 -0.00000000000E+00  0.00000000000E+00  0.46633566338E+02  0.46633566338E+02  0.00000000000E+00 0.  1.
          2   -1    0    0  501    0  0.00000000000E+00 -0.00000000000E+00 -0.29709222781E+03  0.29709222781E+03  0.00000000000E+00 0. -1.
         23    2    1    2    0    0  0.14207021394E+02 -0.64647114310E+01 -0.55071910161E+02  0.11124208022E+03  0.95384763835E+02 0.  0.
         23    2    1    2    0    0 -0.14207021394E+02  0.64647114310E+01 -0.19538675132E+03  0.23248371393E+03  0.12501624976E+03 0.  0.
          5    1    4    4  502    0  0.29953525715E+02 -0.46473260162E+02 -0.10442815788E+03  0.11825526530E+03  0.47000000000E+01 0.  1.
         -5    1    4    4    0  502 -0.44160547110E+02  0.52937971593E+02 -0.90958593435E+02  0.11422844863E+03  0.47000000000E+01 0.  1.
        -11    1    3    3    0    0  0.10036534313E+02  0.23272662567E+02 -0.72306235398E+02  0.76619452630E+02  0.00000000000E+00 0. -1.
         11    1    3    3    0    0  0.41704870811E+01 -0.29737373998E+02  0.17234325236E+02  0.34622627589E+02  0.00000000000E+00 0.  1.
<mgrwt>
<rscale>  0 0.11790937E+03</rscale>
<asrwt>0</asrwt>
<pdfrwt beam="2">  1        2 0.45706497E-01 0.12598688E+03</pdfrwt>
<pdfrwt beam="1">  1       -2 0.71743947E-02 0.12598688E+03</pdfrwt>
<totfact> 0.11621880E+04</totfact>
</mgrwt>
</event>
<event>
 8    1  0.1273312E-005  0.1273797E+03  0.7546771E-02  0.1246267E+00
         -1   -1    0    0    0  501 -0.00000000000E+00  0.00000000000E+00  0.77121580858E+02  0.77121580858E+02  0.00000000000E+00 0.  1.
          1   -1    0    0  501    0  0.00000000000E+00 -0.00000000000E+00 -0.17303014621E+03  0.17303014621E+03  0.00000000000E+00 0. -1.
         23    2    1    2    0    0 -0.22020214031E+02  0.10759908439E+02 -0.61434397205E+01  0.94320479756E+02  0.90873239153E+02 0.  0.
         23    2    1    2    0    0  0.22020214031E+02 -0.10759908439E+02 -0.89765125629E+02  0.15583124731E+03  0.12499973761E+03 0.  0.
          5    1    4    4  502    0  0.50375403210E+02 -0.13675371366E+02 -0.10912266786E+03  0.12105595265E+03  0.47000000000E+01 0.  1.
         -5    1    4    4    0  502 -0.28355189179E+02  0.29154629264E+01  0.19357542232E+02  0.34775294661E+02  0.47000000000E+01 0.  1.
        -11    1    3    3    0    0 -0.14548526989E+02  0.44382050016E+02  0.20271419324E+02  0.50915188722E+02  0.00000000000E+00 0.  1.
         11    1    3    3    0    0 -0.74716870412E+01 -0.33622141576E+02 -0.26414859044E+02  0.43405291034E+02  0.00000000000E+00 0. -1.
<mgrwt>
<rscale>  0 0.11809894E+03</rscale>
<asrwt>0</asrwt>
<pdfrwt beam="2">  1        1 0.26620022E-01 0.12737975E+03</pdfrwt>
<pdfrwt beam="1">  1       -1 0.11864859E-01 0.12737975E+03</pdfrwt>
<totfact> 0.77555134E+03</totfact>
</mgrwt>
</event>
<event>
 8    1  0.1273312E-005  0.1202287E+03  0.7546771E-02  0.1253979E+00
          1   -1    0    0  501    0  0.00000000000E+00  0.00000000000E+00  0.41935066012E+03  0.41935066012E+03  0.00000000000E+00 0. -1.
         -1   -1    0    0    0  501 -0.00000000000E+00 -0.00000000000E+00 -0.28400901847E+02  0.28400901847E+02  0.00000000000E+00 0.  1.
         23    2    1    2    0    0 -0.35145478387E+02 -0.11502591723E+02  0.20460921163E+03  0.22599099001E+03  0.88540859577E+02 0.  0.
         23    2    1    2    0    0  0.35145478387E+02  0.11502591723E+02  0.18634054665E+03  0.22176057196E+03  0.11440033953E+03 0.  0.
          5    1    4    4  502    0 -0.40935801111E+02 -0.55628807030E+01  0.74956962929E+02  0.85716519679E+02  0.47000000000E+01 0. -1.
         -5    1    4    4    0  502  0.76081279498E+02  0.17065472426E+02  0.11138358372E+03  0.13604405228E+03  0.47000000000E+01 0.  1.
        -11    1    3    3    0    0 -0.51364048069E+02  0.11770156080E+02  0.65733492685E+02  0.84247813436E+02  0.00000000000E+00 0.  1.
         11    1    3    3    0    0  0.16218569682E+02 -0.23272747803E+02  0.13887571895E+03  0.14174317657E+03  0.00000000000E+00 0. -1.
<mgrwt>
<rscale>  0 0.11363732E+03</rscale>
<asrwt>0</asrwt>
<pdfrwt beam="1">  1        1 0.64515482E-01 0.12022875E+03</pdfrwt>
<pdfrwt beam="2">  1       -1 0.43693698E-02 0.12022875E+03</pdfrwt>
<totfact> 0.11521908E+04</totfact>
</mgrwt>
</event>
<event>
 8    1  0.1273312E-005  0.1952216E+03  0.7546771E-02  0.1158559E+00
         -2   -1    0    0    0  501 -0.00000000000E+00  0.00000000000E+00  0.23513521340E+02  0.23513521340E+02  0.00000000000E+00 0.  1.
          2   -1    0    0  501    0  0.00000000000E+00 -0.00000000000E+00 -0.14578357895E+04  0.14578357895E+04  0.00000000000E+00 0. -1.
         23    2    1    2    0    0 -0.12266300386E+03 -0.86253066327E+02 -0.70772746999E+03  0.72898539290E+03  0.89753703647E+02 0.  0.
         23    2    1    2    0    0  0.12266300386E+03  0.86253066327E+02 -0.72659479817E+03  0.75236391794E+03  0.12500264127E+03 0.  0.
          5    1    4    4  502    0  0.10911967529E+03  0.10819713021E+03 -0.47162536890E+03  0.49605070417E+03  0.47000000000E+01 0.  1.
         -5    1    4    4    0  502  0.13543328564E+02 -0.21944063886E+02 -0.25496942927E+03  0.25631321376E+03  0.47000000000E+01 0.  1.
        -11    1    3    3    0    0 -0.45264173810E+02  0.12044026402E+02 -0.25613618999E+03  0.26038366275E+03  0.00000000000E+00 0.  1.
         11    1    3    3    0    0 -0.77398830047E+02 -0.98297092729E+02 -0.45159128000E+03  0.46860173016E+03  0.00000000000E+00 0. -1.
<mgrwt>
<rscale>  0 0.18989224E+03</rscale>
<asrwt>0</asrwt>
<pdfrwt beam="2">  1        2 0.22428233E+00 0.19522158E+03</pdfrwt>
<pdfrwt beam="1">  1       -2 0.36174664E-02 0.19522158E+03</pdfrwt>
<totfact> 0.45731020E+03</totfact>
</mgrwt>
</event>
<event>
 8    1  0.1273312E-005  0.4311977E+03  0.7546771E-02  0.1034162E+00
         -3   -1    0    0    0  501 -0.00000000000E+00  0.00000000000E+00  0.48685142963E+02  0.48685142963E+02  0.00000000000E+00 0.  1.
          3   -1    0    0  501    0  0.00000000000E+00 -0.00000000000E+00 -0.37647456185E+04  0.37647456185E+04  0.00000000000E+00 0. -1.
         23    2    1    2    0    0  0.18203290485E+03 -0.37035300910E+03 -0.16971483795E+04  0.17489847052E+04  0.91310170741E+02 0.  0.
         23    2    1    2    0    0 -0.18203290485E+03  0.37035300910E+03 -0.20189120961E+04  0.20644460563E+04  0.12503654578E+03 0.  0.
          5    1    4    4  502    0 -0.14347528711E+03  0.34978112138E+03 -0.16413914971E+04  0.16843752929E+04  0.47000000000E+01 0. -1.
         -5    1    4    4    0  502 -0.38557617742E+02  0.20571887720E+02 -0.37752059901E+03  0.38007076331E+03  0.47000000000E+01 0. -1.
        -11    1    3    3    0    0  0.56408925114E+02 -0.98456706008E+02 -0.31661670010E+03  0.33633588059E+03  0.00000000000E+00 0.  1.
         11    1    3    3    0    0  0.12562397974E+03 -0.27189630310E+03 -0.13805316794E+04  0.14126488246E+04  0.00000000000E+00 0. -1.
<mgrwt>
<rscale>  0 0.42904527E+03</rscale>
<asrwt>0</asrwt>
<pdfrwt beam="2">  1        3 0.57919167E+00 0.43119771E+03</pdfrwt>
<pdfrwt beam="1">  1       -3 0.74900215E-02 0.43119771E+03</pdfrwt>
<totfact> 0.52272949E-01</totfact>
</mgrwt>
</event>
<event>
 8    1  0.1273312E-005  0.1315667E+03  0.7546771E-02  0.1239163E+00
          1   -1    0    0  501    0  0.00000000000E+00  0.00000000000E+00  0.20839930094E+03  0.20839930094E+03  0.00000000000E+00 0. -1.
         -1   -1    0    0    0  501 -0.00000000000E+00 -0.00000000000E+00 -0.69744330175E+02  0.69744330175E+02  0.00000000000E+00 0.  1.
         23    2    1    2    0    0  0.40838127366E+02  0.37556544306E+01  0.19249278531E+02  0.10047117129E+03  0.89677555434E+02 0.  0.
         23    2    1    2    0    0 -0.40838127366E+02 -0.37556544306E+01  0.11940569224E+03  0.17767245983E+03  0.12501170368E+03 0.  0.
          5    1    4    4  502    0 -0.35416477220E+02 -0.42177236419E+02  0.12640747345E+03  0.13796443554E+03  0.47000000000E+01 0.  1.
         -5    1    4    4    0  502 -0.54216501463E+01  0.38421581989E+02 -0.70017812142E+01  0.39708024290E+02  0.47000000000E+01 0.  1.
        -11    1    3    3    0    0  0.33146829626E+02  0.16479702396E+02 -0.30865604797E+02  0.48197286902E+02  0.00000000000E+00 0.  1.
         11    1    3    3    0    0  0.76912977401E+01 -0.12724047965E+02  0.50114883328E+02  0.52273884383E+02  0.00000000000E+00 0. -1.
<mgrwt>
<rscale>  0 0.12241638E+03</rscale>
<asrwt>0</asrwt>
<pdfrwt beam="1">  1        1 0.32061431E-01 0.13156665E+03</pdfrwt>
<pdfrwt beam="2">  1       -1 0.10729897E-01 0.13156665E+03</pdfrwt>
<totfact> 0.71982881E+03</totfact>
</mgrwt>
</event>
<event>
 8    1  0.1454134E-005  0.3521660E+03  0.7546771E-02  0.1062855E+00
         -2   -1    0    0    0  501 -0.00000000000E+00  0.00000000000E+00  0.43492148041E+02  0.43492148041E+02  0.00000000000E+00 0.  1.
          2   -1    0    0  501    0  0.00000000000E+00 -0.00000000000E+00 -0.29105568613E+04  0.29105568613E+04  0.00000000000E+00 0. -1.
         23    2    1    2    0    0  0.32826571659E+03 -0.25240619000E+02 -0.10810110478E+04  0.11336071487E+04  0.89915586267E+02 0.  0.
         23    2    1    2    0    0 -0.32826571659E+03  0.25240619000E+02 -0.17860536655E+04  0.18204418607E+04  0.12500160970E+03 0.  0.
          5    1    4    4  502    0 -0.30310826254E+03  0.56681073118E+02 -0.14862153535E+04  0.15178753341E+04  0.47000000000E+01 0. -1.
         -5    1    4    4    0  502 -0.25157454046E+02 -0.31440454117E+02 -0.29983831202E+03  0.30256652658E+03  0.47000000000E+01 0. -1.
        -11    1    3    3    0    0  0.20336519747E+03  0.26965890138E+02 -0.61339554612E+03  0.64679104723E+03  0.00000000000E+00 0.  1.
         11    1    3    3    0    0  0.12490051912E+03 -0.52206509138E+02 -0.46761550168E+03  0.48681610151E+03  0.00000000000E+00 0. -1.
<mgrwt>
<rscale>  0 0.34941544E+03</rscale>
<asrwt>0</asrwt>
<pdfrwt beam="2">  1        2 0.44777795E+00 0.35216597E+03</pdfrwt>
<pdfrwt beam="1">  1       -2 0.66911002E-02 0.35216597E+03</pdfrwt>
<totfact> 0.28846002E+02</totfact>
</mgrwt>
</event>
<event>
 8    1  0.1273312E-005  0.1519112E+03  0.7546771E-02  0.1210625E+00
          3   -1    0    0  501    0  0.00000000000E+00  0.00000000000E+00  0.70599734228E+02  0.70599734228E+02  0.00000000000E+00 0. -1.
         -3   -1    0    0    0  501 -0.00000000000E+00 -0.00000000000E+00 -0.25927020482E+03  0.25927020482E+03  0.00000000000E+00 0.  1.
         23    2    1    2    0    0  0.38412327968E+02  0.77277102711E+02 -0.10457667100E+03  0.15623587411E+03  0.77628027786E+02 0.  0.
         23    2    1    2    0    0 -0.38412327968E+02 -0.77277102711E+02 -0.84093799595E+02  0.17363406494E+03  0.12501905388E+03 0.  0.
          5    1    4    4  502    0  0.15518219437E+02  0.26085421350E+02 -0.36283774550E+02  0.47538054621E+02  0.47000000000E+01 0. -1.
         -5    1    4    4    0  502 -0.53930547405E+02 -0.10336252406E+03 -0.47810025044E+02  0.12609601032E+03  0.47000000000E+01 0. -1.
        -11    1    3    3    0    0 -0.45748240432E+01  0.27998782698E+02 -0.82460282312E+02  0.87204122647E+02  0.00000000000E+00 0.  1.
         11    1    3    3    0    0  0.42987152011E+02  0.49278320013E+02 -0.22116388687E+02  0.69031751462E+02  0.00000000000E+00 0. -1.
<mgrwt>
<rscale>  0 0.14202897E+03</rscale>
<asrwt>0</asrwt>
<pdfrwt beam="1">  1        3 0.10861498E-01 0.15191123E+03</pdfrwt>
<pdfrwt beam="2">  1       -3 0.39887724E-01 0.15191123E+03</pdfrwt>
<totfact> 0.94197667E+02</totfact>
</mgrwt>
</event>
<event>
 8    1  0.1273312E-005  0.1393166E+03  0.7546771E-02  0.1225476E+00
         -2   -1    0    0    0  501 -0.00000000000E+00  0.00000000000E+00  0.20872407014E+02  0.20872407014E+02  0.00000000000E+00 0.  1.
          2   -1    0    0  501    0  0.00000000000E+00 -0.00000000000E+00 -0.79734490030E+03  0.79734490030E+03  0.00000000000E+00 0. -1.
         23    2    1    2    0    0  0.26120694443E+02 -0.55707526855E+02 -0.24139972348E+03  0.26530502841E+03  0.91254108807E+02 0.  0.
         23    2    1    2    0    0 -0.26120694443E+02  0.55707526855E+02 -0.53507276980E+03  0.55291227891E+03  0.12499399968E+03 0.  0.
          5    1    4    4  502    0 -0.13351246898E+02 -0.32220000564E+02 -0.29114406885E+03  0.29326326578E+03  0.47000000000E+01 0.  1.
         -5    1    4    4    0  502 -0.12769447544E+02  0.87927527419E+02 -0.24392870095E+03  0.25964901313E+03  0.47000000000E+01 0.  1.
        -11    1    3    3    0    0 -0.12083533589E+02 -0.31891867499E+02 -0.20384491674E+03  0.20667813885E+03  0.00000000000E+00 0. -1.
         11    1    3    3    0    0  0.38204228032E+02 -0.23815659356E+02 -0.37554806744E+02  0.58626889561E+02  0.00000000000E+00 0.  1.
<mgrwt>
<rscale>  0 0.13134343E+03</rscale>
<asrwt>0</asrwt>
<pdfrwt beam="2">  1        2 0.12266846E+00 0.13931661E+03</pdfrwt>
<pdfrwt beam="1">  1       -2 0.32111391E-02 0.13931661E+03</pdfrwt>
<totfact> 0.13045749E+04</totfact>
</mgrwt>
</event>
<event>
 8    1  0.1273312E-005  0.1502027E+03  0.7546771E-02  0.1209012E+00
          2   -1    0    0  501    0  0.00000000000E+00  0.00000000000E+00  0.33119118667E+02  0.33119118667E+02  0.00000000000E+00 0. -1.
         -2   -1    0    0    0  501 -0.00000000000E+00 -0.00000000000E+00 -0.57027966206E+03  0.57027966206E+03  0.00000000000E+00 0.  1.
         23    2    1    2    0    0 -0.32023752291E+02  0.76878287461E+02 -0.25886270448E+03  0.28715433809E+03  0.92260079765E+02 0.  0.
         23    2    1    2    0    0  0.32023752291E+02 -0.76878287461E+02 -0.27829783891E+03  0.31624444264E+03  0.12500027425E+03 0.  0.
          5    1    4    4  502    0 -0.23538623776E+01  0.32084576522E+02 -0.92805314988E+02  0.98335533804E+02  0.47000000000E+01 0. -1.
         -5    1    4    4    0  502  0.34377614669E+02 -0.10896286398E+03 -0.18549252392E+03  0.21790890883E+03  0.47000000000E+01 0. -1.
        -11    1    3    3    0    0 -0.57608849816E+02  0.45876025051E+02 -0.21683157722E+03  0.22899633650E+03  0.00000000000E+00 0.  1.
         11    1    3    3    0    0  0.25585097525E+02  0.31002262410E+02 -0.42031127268E+02  0.58158001594E+02  0.00000000000E+00 0. -1.
<mgrwt>
<rscale>  0 0.14325718E+03</rscale>
<asrwt>0</asrwt>
<pdfrwt beam="1">  1        2 0.50952488E-02 0.15020273E+03</pdfrwt>
<pdfrwt beam="2">  1       -2 0.87735337E-01 0.15020273E+03</pdfrwt>
<totfact> 0.17208970E+03</totfact>
</mgrwt>
</event>
<event>
 8    1  0.1273312E-005  0.1375384E+03  0.7546771E-02  0.1228649E+00
          1   -1    0    0  501    0  0.00000000000E+00  0.00000000000E+00  0.91850369468E+02  0.91850369468E+02  0.00000000000E+00 0. -1.
         -1   -1    0    0    0  501 -0.00000000000E+00 -0.00000000000E+00 -0.17351701855E+03  0.17351701855E+03  0.00000000000E+00 0.  1.
         23    2    1    2    0    0  0.57321681234E+02 -0.19993959411E+01 -0.68664411558E+02  0.12721575562E+03  0.90439340662E+02 0.  0.
         23    2    1    2    0    0 -0.57321681234E+02  0.19993959411E+01 -0.13002237523E+02  0.13815163240E+03  0.12500817025E+03 0.  0.
          5    1    4    4  502    0 -0.83225200456E+02  0.93010615993E+01 -0.45720333981E+02  0.95526868876E+02  0.47000000000E+01 0. -1.
         -5    1    4    4    0  502  0.25903519223E+02 -0.73016656582E+01  0.32718096458E+02  0.42624763522E+02  0.47000000000E+01 0. -1.
        -11    1    3    3    0    0  0.62936324103E+02  0.90350533533E+01 -0.85355648731E+02  0.10643401642E+03  0.00000000000E+00 0.  1.
         11    1    3    3    0    0 -0.56146428700E+01 -0.11034449294E+02  0.16691237173E+02  0.20781739199E+02  0.00000000000E+00 0. -1.
<mgrwt>
<rscale>  0 0.12919893E+03</rscale>
<asrwt>0</asrwt>
<pdfrwt beam="1">  1        1 0.14130826E-01 0.13753841E+03</pdfrwt>
<pdfrwt beam="2">  1       -1 0.26694925E-01 0.13753841E+03</pdfrwt>
<totfact> 0.48061607E+03</totfact>
</mgrwt>
</event>
<event>
 8    1  0.1273312E-005  0.1344621E+03  0.7546771E-02  0.1233735E+00
          4   -1    0    0  501    0  0.00000000000E+00  0.00000000000E+00  0.27583742467E+03  0.27583742467E+03  0.00000000000E+00 0. -1.
         -4   -1    0    0    0  501 -0.00000000000E+00 -0.00000000000E+00 -0.51733232084E+02  0.51733232084E+02  0.00000000000E+00 0.  1.
         23    2    1    2    0    0  0.29249486335E+02  0.40063107935E+02  0.11401383624E+03  0.15378931635E+03  0.90506430154E+02 0.  0.
         23    2    1    2    0    0 -0.29249486335E+02 -0.40063107935E+02  0.11009035635E+03  0.17378134041E+03  0.12497792864E+03 0.  0.
          5    1    4    4  502    0  0.33785882505E+02 -0.27784812959E+02  0.99142230514E+02  0.10846544869E+03  0.47000000000E+01 0.  1.
         -5    1    4    4    0  502 -0.63035368840E+02 -0.12278294976E+02  0.10948125833E+02  0.65315891723E+02  0.47000000000E+01 0.  1.
        -11    1    3    3    0    0  0.40357569971E+02  0.81435697169E+01  0.11267988998E+03  0.11996586509E+03  0.00000000000E+00 0. -1.
         11    1    3    3    0    0 -0.11108083636E+02  0.31919538218E+02  0.13339462636E+01  0.33823451254E+02  0.00000000000E+00 0.  1.
<mgrwt>
<rscale>  0 0.12585744E+03</rscale>
<asrwt>0</asrwt>
<pdfrwt beam="1">  1        4 0.42436526E-01 0.13446214E+03</pdfrwt>
<pdfrwt beam="2">  1       -4 0.79589589E-02 0.13446214E+03</pdfrwt>
<totfact> 0.99277718E+02</totfact>
</mgrwt>
</event>
<event>
 8    1  0.1273312E-005  0.1401530E+03  0.7546771E-02  0.1224133E+00
          2   -1    0    0  501    0  0.00000000000E+00  0.00000000000E+00  0.68459178974E+03  0.68459178974E+03  0.00000000000E+00 0. -1.
         -2   -1    0    0    0  501 -0.00000000000E+00 -0.00000000000E+00 -0.31403817655E+02  0.31403817655E+02  0.00000000000E+00 0.  1.
         23    2    1    2    0    0  0.39564310886E+02  0.47898063815E+02  0.11535942618E+03  0.16020571248E+03  0.92187384654E+02 0.  0.
         23    2    1    2    0    0 -0.39564310886E+02 -0.47898063815E+02  0.53782854590E+03  0.55578989491E+03  0.12563161739E+03 0.  0.
          5    1    4    4  502    0 -0.80436123776E+02 -0.51066782354E+02  0.42708491539E+03  0.43760873074E+03  0.47000000000E+01 0. -1.
         -5    1    4    4    0  502  0.40871812890E+02  0.31687185389E+01  0.11074363051E+03  0.11818116417E+03  0.47000000000E+01 0.  1.
        -11    1    3    3    0    0  0.24117930731E+02 -0.48384228301E+01  0.10023656394E+03  0.10321072458E+03  0.00000000000E+00 0. -1.
         11    1    3    3    0    0  0.15446380155E+02  0.52736486645E+02  0.15122862247E+02  0.56994987903E+02  0.00000000000E+00 0.  1.
<mgrwt>
<rscale>  0 0.13226521E+03</rscale>
<asrwt>0</asrwt>
<pdfrwt beam="1">  1        2 0.10532180E+00 0.14015300E+03</pdfrwt>
<pdfrwt beam="2">  1       -2 0.48313571E-02 0.14015300E+03</pdfrwt>
<totfact> 0.85518607E+03</totfact>
</mgrwt>
</event>
<event>
 8    1  0.1273312E-005  0.1255009E+03  0.7546771E-02  0.1248858E+00
          1   -1    0    0  501    0  0.00000000000E+00  0.00000000000E+00  0.75150212583E+03  0.75150212583E+03  0.00000000000E+00 0. -1.
         -1   -1    0    0    0  501 -0.00000000000E+00 -0.00000000000E+00 -0.19891753332E+02  0.19891753332E+02  0.00000000000E+00 0.  1.
         23    2    1    2    0    0 -0.99731649252E+01 -0.84434615771E+00  0.15251662294E+03  0.17885691096E+03  0.92888628937E+02 0.  0.
         23    2    1    2    0    0  0.99731649252E+01  0.84434615771E+00  0.57909374956E+03  0.59253696820E+03  0.12510120291E+03 0.  0.
          5    1    4    4  502    0  0.40257772153E+01 -0.52489332264E+02  0.13166623986E+03  0.14187820693E+03  0.47000000000E+01 0.  1.
         -5    1    4    4    0  502  0.59473877099E+01  0.53333678422E+02  0.44742750970E+03  0.45065876127E+03  0.47000000000E+01 0.  1.
        -11    1    3    3    0    0 -0.46762155472E+02  0.16323793498E+02  0.10673869849E+03  0.11767036659E+03  0.00000000000E+00 0. -1.
         11    1    3    3    0    0  0.36788990546E+02 -0.17168139656E+02  0.45777924452E+02  0.61186544369E+02  0.00000000000E+00 0.  1.
<mgrwt>
<rscale>  0 0.11657423E+03</rscale>
<asrwt>0</asrwt>
<pdfrwt beam="1">  1        1 0.11561569E+00 0.12550095E+03</pdfrwt>
<pdfrwt beam="2">  1       -1 0.30602703E-02 0.12550095E+03</pdfrwt>
<totfact> 0.88831024E+03</totfact>
</mgrwt>
</event>
<event>
 8    1  0.1273312E-005  0.1380686E+03  0.7546771E-02  0.1230957E+00
         -2   -1    0    0    0  501 -0.00000000000E+00  0.00000000000E+00  0.63170571157E+02  0.63170571157E+02  0.00000000000E+00 0.  1.
          2   -1    0    0  501    0  0.00000000000E+00 -0.00000000000E+00 -0.22637601446E+03  0.22637601446E+03  0.00000000000E+00 0. -1.
         23    2    1    2    0    0 -0.31874046370E+02  0.49212769172E+02 -0.63662884452E+02  0.11933594885E+03  0.82159931535E+02 0.  0.
         23    2    1    2    0    0  0.31874046370E+02 -0.49212769172E+02 -0.99542558855E+02  0.17021063677E+03  0.12500035346E+03 0.  0.
          5    1    4    4  502    0  0.63452781543E+02 -0.37635819695E+01 -0.95109782480E+02  0.11449183708E+03  0.47000000000E+01 0.  1.
         -5    1    4    4    0  502 -0.31578735173E+02 -0.45449187203E+02 -0.44327763755E+01  0.55718799690E+02  0.47000000000E+01 0.  1.
        -11    1    3    3    0    0 -0.27764481359E+02  0.32641526150E+02  0.97635631134E+01  0.43950686220E+02  0.00000000000E+00 0.  1.
         11    1    3    3    0    0 -0.41095650107E+01  0.16571243023E+02 -0.73426447565E+02  0.75385262631E+02  0.00000000000E+00 0. -1.
<mgrwt>
<rscale>  0 0.12766824E+03</rscale>
<asrwt>0</asrwt>
<pdfrwt beam="2">  1        2 0.34827079E-01 0.13806861E+03</pdfrwt>
<pdfrwt beam="1">  1       -2 0.97185494E-02 0.13806861E+03</pdfrwt>
<totfact> 0.97674000E+03</totfact>
</mgrwt>
</event>
<event>
 8    1  0.1273312E-005  0.1252314E+03  0.7546771E-02  0.1249198E+00
         -2   -1    0    0    0  501 -0.00000000000E+00  0.00000000000E+00  0.51122376810E+02  0.51122376810E+02  0.00000000000E+00 0.  1.
          2   -1    0    0  501    0  0.00000000000E+00 -0.00000000000E+00 -0.69721343861E+03  0.69721343861E+03  0.00000000000E+00 0. -1.
         23    2    1    2    0    0 -0.71548493133E+01  0.92188163352E+01 -0.32912335309E+01  0.93450698077E+02  0.92660791652E+02 0.  0.
         23    2    1    2    0    0  0.71548493133E+01 -0.92188163352E+01 -0.64279982827E+03  0.65488511734E+03  0.12468648383E+03 0.  0.
          5    1    4    4  502    0 -0.18994808531E+02 -0.13772211341E+02 -0.61734909199E+03  0.61781264793E+03  0.47000000000E+01 0. -1.
         -5    1    4    4    0  502  0.26149657844E+02  0.45533950055E+01 -0.25450736277E+02  0.37072469414E+02  0.47000000000E+01 0.  1.
        -11    1    3    3    0    0 -0.55685780774E+00  0.48366884476E+02  0.13691706563E+02  0.50270552346E+02  0.00000000000E+00 0.  1.
         11    1    3    3    0    0 -0.65979915055E+01 -0.39148068141E+02 -0.16982940094E+02  0.43180145731E+02  0.00000000000E+00 0. -1.
<mgrwt>
<rscale>  0 0.11637592E+03</rscale>
<asrwt>0</asrwt>
<pdfrwt beam="2">  1        2 0.10726361E+00 0.12523138E+03</pdfrwt>
<pdfrwt beam="1">  1       -2 0.78649810E-02 0.12523138E+03</pdfrwt>
<totfact> 0.39709747E+03</totfact>
</mgrwt>
</event>
<event>
 8    1  0.1273312E-005  0.1507860E+03  0.7546771E-02  0.1208351E+00
          1   -1    0    0  501    0  0.00000000000E+00  0.00000000000E+00  0.34835559947E+02  0.34835559947E+02  0.00000000000E+00 0. -1.
         -1   -1    0    0    0  501 -0.00000000000E+00 -0.00000000000E+00 -0.75598660055E+03  0.75598660055E+03  0.00000000000E+00 0.  1.
         23    2    1    2    0    0 -0.54081592602E+02  0.64698079350E+02 -0.54446805158E+03  0.55854364733E+03  0.91732691282E+02 0.  0.
         23    2    1    2    0    0  0.54081592602E+02 -0.64698079350E+02 -0.17668298902E+03  0.23227851317E+03  0.12500307572E+03 0.  0.
          5    1    4    4  502    0 -0.21710082567E+02 -0.68201909965E+02 -0.62685247384E+02  0.95259427080E+02  0.47000000000E+01 0.  1.
         -5    1    4    4    0  502  0.75791675169E+02  0.35038306148E+01 -0.11399774164E+03  0.13701908609E+03  0.47000000000E+01 0.  1.
        -11    1    3    3    0    0  0.10248993293E+02 -0.16670547905E+02 -0.60555068247E+02  0.63638552163E+02  0.00000000000E+00 0. -1.
         11    1    3    3    0    0 -0.64330585895E+02  0.81368627255E+02 -0.48391298333E+03  0.49490509516E+03  0.00000000000E+00 0.  1.
<mgrwt>
<rscale>  0 0.14376452E+03</rscale>
<asrwt>0</asrwt>
<pdfrwt beam="1">  1        1 0.53593174E-02 0.15078604E+03</pdfrwt>
<pdfrwt beam="2">  1       -1 0.11630562E+00 0.15078604E+03</pdfrwt>
<totfact> 0.10607536E+03</totfact>
</mgrwt>
</event>
<event>
 8    1  0.1273312E-005  0.1922062E+03  0.7546771E-02  0.1159459E+00
          2   -1    0    0  501    0  0.00000000000E+00  0.00000000000E+00  0.10143748212E+03  0.10143748212E+03  0.00000000000E+00 0. -1.
         -2   -1    0    0    0  501 -0.00000000000E+00 -0.00000000000E+00 -0.37765571192E+03  0.37765571192E+03  0.00000000000E+00 0.  1.
         23    2    1    2    0    0 -0.13567446261E+03  0.53948137914E+02 -0.20921542769E+03  0.27554323504E+03  0.10409139160E+03 0.  0.
         23    2    1    2    0    0  0.13567446261E+03 -0.53948137914E+02 -0.67002802113E+02  0.20354995900E+03  0.12500099570E+03 0.  0.
          5    1    4    4  502    0  0.79664505555E+01 -0.52636718901E+02 -0.52521023628E+02  0.74930877708E+02  0.47000000000E+01 0.  1.
         -5    1    4    4    0  502  0.12770801206E+03 -0.13114190131E+01 -0.14481778485E+02  0.12861908129E+03  0.47000000000E+01 0.  1.
        -11    1    3    3    0    0 -0.61326216300E+02  0.48653175925E+01 -0.17217019459E+02  0.63882719729E+02  0.00000000000E+00 0. -1.
         11    1    3    3    0    0 -0.74348246313E+02  0.49082820322E+02 -0.19199840823E+03  0.21166051531E+03  0.00000000000E+00 0.  1.
<mgrwt>
<rscale>  0 0.18889834E+03</rscale>
<asrwt>0</asrwt>
<pdfrwt beam="1">  1        2 0.15605767E-01 0.19220617E+03</pdfrwt>
<pdfrwt beam="2">  1       -2 0.58100878E-01 0.19220617E+03</pdfrwt>
<totfact> 0.10412005E+03</totfact>
</mgrwt>
</event>
<event>
 8    1  0.1273312E-005  0.1286693E+03  0.7546771E-02  0.1244237E+00
          1   -1    0    0  501    0  0.00000000000E+00  0.00000000000E+00  0.98488452806E+02  0.98488452806E+02  0.00000000000E+00 0. -1.
         -1   -1    0    0    0  501 -0.00000000000E+00 -0.00000000000E+00 -0.21418665618E+03  0.21418665618E+03  0.00000000000E+00 0.  1.
         23    2    1    2    0    0  0.23449866269E+02 -0.19595443378E+02 -0.15170487066E+03  0.17906275587E+03  0.90084544338E+02 0.  0.
         23    2    1    2    0    0 -0.23449866269E+02  0.19595443378E+02  0.36006667287E+02  0.13361235312E+03  0.12498761213E+03 0.  0.
          5    1    4    4  502    0 -0.31072783334E+02 -0.56988981719E+01  0.77712771056E+02  0.84019998154E+02  0.47000000000E+01 0.  1.
         -5    1    4    4    0  502  0.76229170657E+01  0.25294341550E+02 -0.41706103769E+02  0.49592354962E+02  0.47000000000E+01 0.  1.
        -11    1    3    3    0    0  0.94339818403E+01 -0.55251679245E+02 -0.10100547615E+03  0.11551560191E+03  0.00000000000E+00 0. -1.
         11    1    3    3    0    0  0.14015884428E+02  0.35656235867E+02 -0.50699394510E+02  0.63547153958E+02  0.00000000000E+00 0.  1.
<mgrwt>
<rscale>  0 0.11931137E+03</rscale>
<asrwt>0</asrwt>
<pdfrwt beam="1">  1        1 0.15152070E-01 0.12866927E+03</pdfrwt>
<pdfrwt beam="2">  1       -1 0.32951793E-01 0.12866927E+03</pdfrwt>
<totfact> 0.30727442E+03</totfact>
</mgrwt>
</event>
<event>
 8    1  0.1273312E-005  0.1535838E+03  0.7546771E-02  0.1205319E+00
         -1   -1    0    0    0  501 -0.00000000000E+00  0.00000000000E+00  0.11671240899E+03  0.11671240899E+03  0.00000000000E+00 0.  1.
          1   -1    0    0  501    0  0.00000000000E+00 -0.00000000000E+00 -0.16732933791E+03  0.16732933791E+03  0.00000000000E+00 0. -1.
         23    2    1    2    0    0  0.25523427211E+02  0.85512257158E+02 -0.25829972210E+02  0.12847057259E+03  0.88733923033E+02 0.  0.
         23    2    1    2    0    0 -0.25523427211E+02 -0.85512257158E+02 -0.24786956711E+02  0.15557117431E+03  0.12499682233E+03 0.  0.
          5    1    4    4  502    0  0.42771169341E+02 -0.32704046479E+02 -0.40704932788E+02  0.67660247828E+02  0.47000000000E+01 0.  1.
         -5    1    4    4    0  502 -0.68294596552E+02 -0.52808210679E+02  0.15917976077E+02  0.87910926487E+02  0.47000000000E+01 0.  1.
        -11    1    3    3    0    0 -0.28820732844E+02  0.23808651680E+02  0.10125105725E+02  0.38729889006E+02  0.00000000000E+00 0.  1.
         11    1    3    3    0    0  0.54344160055E+02  0.61703605478E+02 -0.35955077934E+02  0.89740683585E+02  0.00000000000E+00 0. -1.
<mgrwt>
<rscale>  0 0.14612347E+03</rscale>
<asrwt>0</asrwt>
<pdfrwt beam="2">  1        1 0.25742975E-01 0.15358384E+03</pdfrwt>
<pdfrwt beam="1">  1       -1 0.17955755E-01 0.15358384E+03</pdfrwt>
<totfact> 0.42788688E+03</totfact>
</mgrwt>
</event>
<event>
 8    1  0.1273312E-005  0.1318913E+03  0.7546771E-02  0.1238079E+00
         -1   -1    0    0    0  501 -0.00000000000E+00  0.00000000000E+00  0.25260082033E+02  0.25260082033E+02  0.00000000000E+00 0.  1.
          1   -1    0    0  501    0  0.00000000000E+00 -0.00000000000E+00 -0.53863166974E+03  0.53863166974E+03  0.00000000000E+00 0. -1.
         23    2    1    2    0    0  0.27373239824E+02 -0.31483021641E+02 -0.19210442272E+03  0.21660527500E+03  0.90957468194E+02 0.  0.
         23    2    1    2    0    0 -0.27373239824E+02  0.31483021641E+02 -0.32126716500E+03  0.34728647678E+03  0.12511926606E+03 0.  0.
          5    1    4    4  502    0 -0.52980352882E+02  0.66170808195E+02 -0.24818262207E+03  0.26230172997E+03  0.47000000000E+01 0. -1.
         -5    1    4    4    0  502  0.25607113058E+02 -0.34687786554E+02 -0.73084542930E+02  0.84984746811E+02  0.47000000000E+01 0. -1.
        -11    1    3    3    0    0  0.31910030056E+02  0.22636419338E+02 -0.12077537866E+03  0.12695412396E+03  0.00000000000E+00 0. -1.
         11    1    3    3    0    0 -0.45367902328E+01 -0.54119440979E+02 -0.71329044053E+02  0.89651151042E+02  0.00000000000E+00 0.  1.
<mgrwt>
<rscale>  0 0.12309390E+03</rscale>
<asrwt>0</asrwt>
<pdfrwt beam="2">  1        1 0.82866407E-01 0.13189126E+03</pdfrwt>
<pdfrwt beam="1">  1       -1 0.38861667E-02 0.13189126E+03</pdfrwt>
<totfact> 0.99763190E+03</totfact>
</mgrwt>
</event>
<event>
 8    1  0.1273312E-005  0.1321147E+03  0.7546771E-02  0.1237858E+00
         -2   -1    0    0    0  501 -0.00000000000E+00  0.00000000000E+00  0.24999592850E+02  0.24999592850E+02  0.00000000000E+00 0.  1.
          2   -1    0    0  501    0  0.00000000000E+00 -0.00000000000E+00 -0.54441266876E+03  0.54441266876E+03  0.00000000000E+00 0. -1.
         23    2    1    2    0    0  0.24768755668E+02 -0.34869118449E+02 -0.19559622074E+03  0.21968145413E+03  0.90403058810E+02 0.  0.
         23    2    1    2    0    0 -0.24768755668E+02  0.34869118449E+02 -0.32381685518E+03  0.34973080749E+03  0.12499974132E+03 0.  0.
          5    1    4    4  502    0  0.14141952530E+02  0.40180572292E+02 -0.30106936620E+03  0.30410413755E+03  0.47000000000E+01 0.  1.
         -5    1    4    4    0  502 -0.38910708198E+02 -0.53114538430E+01 -0.22747488972E+02  0.45626669931E+02  0.47000000000E+01 0.  1.
        -11    1    3    3    0    0  0.42904448053E+02 -0.86084236971E+01 -0.35253448268E+02  0.56193435881E+02  0.00000000000E+00 0.  1.
         11    1    3    3    0    0 -0.18135692385E+02 -0.26260694752E+02 -0.16034277247E+03  0.16348801825E+03  0.00000000000E+00 0. -1.
<mgrwt>
<rscale>  0 0.12323226E+03</rscale>
<asrwt>0</asrwt>
<pdfrwt beam="2">  1        2 0.83755786E-01 0.13211465E+03</pdfrwt>
<pdfrwt beam="1">  1       -2 0.38460916E-02 0.13211465E+03</pdfrwt>
<totfact> 0.15554122E+04</totfact>
</mgrwt>
</event>
<event>
 8    1  0.1273312E-005  0.1251166E+03  0.7546771E-02  0.1251949E+00
          1   -1    0    0  501    0  0.00000000000E+00  0.00000000000E+00  0.85785379911E+02  0.85785379911E+02  0.00000000000E+00 0. -1.
         -1   -1    0    0    0  501 -0.00000000000E+00 -0.00000000000E+00 -0.13316592313E+03  0.13316592313E+03  0.00000000000E+00 0.  1.
         23    2    1    2    0    0  0.38507132389E+01  0.37892811116E+01 -0.19487427301E+02  0.90763232528E+02  0.88481737734E+02 0.  0.
         23    2    1    2    0    0 -0.38507132389E+01 -0.37892811116E+01 -0.27893115918E+02  0.12818807051E+03  0.12499987545E+03 0.  0.
          5    1    4    4  502    0 -0.42633396931E+02 -0.48142260966E+02 -0.24535043608E+02  0.68987985835E+02  0.47000000000E+01 0.  1.
         -5    1    4    4    0  502  0.38782683692E+02  0.44352979854E+02 -0.33580723097E+01  0.59200084678E+02  0.47000000000E+01 0.  1.
        -11    1    3    3    0    0  0.33088881427E+02 -0.16199734451E+02 -0.36155632309E+02  0.51619136161E+02  0.00000000000E+00 0.  1.
         11    1    3    3    0    0 -0.29238168188E+02  0.19989015563E+02  0.16668205008E+02  0.39144096367E+02  0.00000000000E+00 0. -1.
<mgrwt>
<rscale>  0 0.11478933E+03</rscale>
<asrwt>0</asrwt>
<pdfrwt beam="1">  1        1 0.13197751E-01 0.12511657E+03</pdfrwt>
<pdfrwt beam="2">  1       -1 0.20487065E-01 0.12511657E+03</pdfrwt>
<totfact> 0.80316771E+03</totfact>
</mgrwt>
</event>
<event>
 8    1  0.1273312E-005  0.2031704E+03  0.7546771E-02  0.1151264E+00
         -2   -1    0    0    0  501 -0.00000000000E+00  0.00000000000E+00  0.31755381285E+02  0.31755381285E+02  0.00000000000E+00 0.  1.
          2   -1    0    0  501    0  0.00000000000E+00 -0.00000000000E+00 -0.11813225210E+04  0.11813225210E+04  0.00000000000E+00 0. -1.
         23    2    1    2    0    0  0.81634664371E+02  0.13765612061E+03 -0.52801753974E+03  0.55916498119E+03  0.90826912012E+02 0.  0.
         23    2    1    2    0    0 -0.81634664371E+02 -0.13765612061E+03 -0.62154959999E+03  0.65391292112E+03  0.12515900759E+03 0.  0.
          5    1    4    4  502    0  0.18287507950E+02 -0.90328295252E+02 -0.29804111941E+03  0.31200037296E+03  0.47000000000E+01 0.  1.
         -5    1    4    4    0  502 -0.99922172321E+02 -0.47327825358E+02 -0.32350848058E+03  0.34191254815E+03  0.47000000000E+01 0.  1.
        -11    1    3    3    0    0  0.20502426527E+01  0.76092359784E+02 -0.15307582322E+03  0.17095747532E+03  0.00000000000E+00 0.  1.
         11    1    3    3    0    0  0.79584421718E+02  0.61563760826E+02 -0.37494171652E+03  0.38820750587E+03  0.00000000000E+00 0. -1.
<mgrwt>
<rscale>  0 0.19820331E+03</rscale>
<asrwt>0</asrwt>
<pdfrwt beam="2">  1        2 0.18174193E+00 0.20317038E+03</pdfrwt>
<pdfrwt beam="1">  1       -2 0.48854433E-02 0.20317038E+03</pdfrwt>
<totfact> 0.41266709E+03</totfact>
</mgrwt>
</event>
<event>
 8    1  0.1273312E-005  0.1335660E+03  0.7546771E-02  0.1231313E+00
          2   -1    0    0  501    0  0.00000000000E+00  0.00000000000E+00  0.21727923181E+03  0.21727923181E+03  0.00000000000E+00 0. -1.
         -2   -1    0    0    0  501 -0.00000000000E+00 -0.00000000000E+00 -0.24561732121E+03  0.24561732121E+03  0.00000000000E+00 0.  1.
         23    2    1    2    0    0  0.39599273642E+02 -0.25442686391E+02 -0.21002193160E+03  0.23739958501E+03  0.10016944866E+03 0.  0.
         23    2    1    2    0    0 -0.39599273642E+02  0.25442686391E+02  0.18168384221E+03  0.22549696800E+03  0.12499772516E+03 0.  0.
          5    1    4    4  502    0 -0.55941384210E+02  0.41184429742E+02  0.18882234550E+03  0.20125000343E+03  0.47000000000E+01 0. -1.
         -5    1    4    4    0  502  0.16342110568E+02 -0.15741743351E+02 -0.71385032971E+01  0.24246964570E+02  0.47000000000E+01 0. -1.
        -11    1    3    3    0    0  0.14353470433E+01 -0.55148301444E+02 -0.69164722665E+02  0.88471205681E+02  0.00000000000E+00 0. -1.
         11    1    3    3    0    0  0.38163926599E+02  0.29705615053E+02 -0.14085720894E+03  0.14892837933E+03  0.00000000000E+00 0.  1.
<mgrwt>
<rscale>  0 0.12743419E+03</rscale>
<asrwt>0</asrwt>
<pdfrwt beam="1">  1        2 0.33427574E-01 0.13356595E+03</pdfrwt>
<pdfrwt beam="2">  1       -2 0.37787280E-01 0.13356595E+03</pdfrwt>
<totfact> 0.10198597E+03</totfact>
</mgrwt>
</event>
<event>
 8    1  0.1273312E-005  0.1261266E+03  0.7546771E-02  0.1248824E+00
          3   -1    0    0  501    0  0.00000000000E+00  0.00000000000E+00  0.39976219894E+03  0.39976219894E+03  0.00000000000E+00 0. -1.
         -3   -1    0    0    0  501 -0.00000000000E+00 -0.00000000000E+00 -0.40626560485E+02  0.40626560485E+02  0.00000000000E+00 0.  1.
         23    2    1    2    0    0  0.10723442933E+02  0.13007371051E+02  0.46305580476E+02  0.10308985258E+03  0.90549030876E+02 0.  0.
         23    2    1    2    0    0 -0.10723442933E+02 -0.13007371051E+02  0.31283005798E+03  0.33729890684E+03  0.12499489370E+03 0.  0.
          5    1    4    4  502    0  0.16193684256E+02  0.33000780053E+01 -0.49884819347E+01  0.17891363186E+02  0.47000000000E+01 0.  1.
         -5    1    4    4    0  502 -0.26917127189E+02 -0.16307449056E+02  0.31781853992E+03  0.31940754366E+03  0.47000000000E+01 0.  1.
        -11    1    3    3    0    0  0.30975232980E+02  0.38132913643E+02  0.50609433400E+02  0.70532963288E+02  0.00000000000E+00 0. -1.
         11    1    3    3    0    0 -0.20251790047E+02 -0.25125542592E+02 -0.43038529242E+01  0.32556889296E+02  0.00000000000E+00 0.  1.
<mgrwt>
<rscale>  0 0.11659383E+03</rscale>
<asrwt>0</asrwt>
<pdfrwt beam="1">  1        3 0.61501874E-01 0.12612655E+03</pdfrwt>
<pdfrwt beam="2">  1       -3 0.62502403E-02 0.12612655E+03</pdfrwt>
<totfact> 0.95098797E+02</totfact>
</mgrwt>
</event>
<event>
 8    1  0.1273312E-005  0.1683816E+03  0.7546771E-02  0.1184237E+00
          2   -1    0    0  501    0  0.00000000000E+00  0.00000000000E+00  0.17533462713E+03  0.17533462713E+03  0.00000000000E+00 0. -1.
         -2   -1    0    0    0  501 -0.00000000000E+00 -0.00000000000E+00 -0.21671774956E+03  0.21671774956E+03  0.00000000000E+00 0.  1.
         23    2    1    2    0    0 -0.97857514760E+02  0.56122272326E+02 -0.13185410299E+03  0.20090492072E+03  0.10124959282E+03 0.  0.
         23    2    1    2    0    0  0.97857514760E+02 -0.56122272326E+02  0.90470980561E+02  0.19114745597E+03  0.12500619567E+03 0.  0.
          5    1    4    4  502    0 -0.18942069140E+02 -0.47279341690E+02  0.26850139638E+02  0.57768141155E+02  0.47000000000E+01 0. -1.
         -5    1    4    4    0  502  0.11679958390E+03 -0.88429306359E+01  0.63620840924E+02  0.13337931482E+03  0.47000000000E+01 0. -1.
        -11    1    3    3    0    0 -0.76724229946E+02  0.71010132932E+01 -0.12533544091E+03  0.14712581214E+03  0.00000000000E+00 0.  1.
         11    1    3    3    0    0 -0.21133284814E+02  0.49021259033E+02 -0.65186620862E+01  0.53779108579E+02  0.00000000000E+00 0. -1.
<mgrwt>
<rscale>  0 0.16401488E+03</rscale>
<asrwt>0</asrwt>
<pdfrwt beam="1">  1        2 0.26974558E-01 0.16838157E+03</pdfrwt>
<pdfrwt beam="2">  1       -2 0.33341192E-01 0.16838157E+03</pdfrwt>
<totfact> 0.16350605E+03</totfact>
</mgrwt>
</event>
<event>
 8    1  0.1273312E-005  0.1255880E+03  0.7546771E-02  0.1248792E+00
         -3   -1    0    0    0  501 -0.00000000000E+00  0.00000000000E+00  0.32763220618E+03  0.32763220618E+03  0.00000000000E+00 0.  1.
          3   -1    0    0  501    0  0.00000000000E+00 -0.00000000000E+00 -0.42208120442E+02  0.42208120442E+02  0.00000000000E+00 0. -1.
         23    2    1    2    0    0 -0.66943472033E+01 -0.10084221534E+02  0.19140676282E+03  0.21295950296E+03  0.92567247117E+02 0.  0.
         23    2    1    2    0    0  0.66943472033E+01  0.10084221534E+02  0.94017322925E+02  0.15688082367E+03  0.12500332002E+03 0.  0.
          5    1    4    4  502    0  0.21058774249E+01  0.45992819922E+02 -0.93865468948E+01  0.47222573698E+02  0.47000000000E+01 0.  1.
         -5    1    4    4    0  502  0.45884697784E+01 -0.35908598387E+02  0.10340386982E+03  0.10965824997E+03  0.47000000000E+01 0.  1.
        -11    1    3    3    0    0  0.21616865778E+02 -0.44091464157E+02  0.10094769974E+03  0.11225766869E+03  0.00000000000E+00 0.  1.
         11    1    3    3    0    0 -0.28311212981E+02  0.34007242622E+02  0.90459063080E+02  0.10070183427E+03  0.00000000000E+00 0. -1.
<mgrwt>
<rscale>  0 0.11661265E+03</rscale>
<asrwt>0</asrwt>
<pdfrwt beam="2">  1        3 0.64935572E-02 0.12558796E+03</pdfrwt>
<pdfrwt beam="1">  1       -3 0.50404953E-01 0.12558796E+03</pdfrwt>
<totfact> 0.13375660E+03</totfact>
</mgrwt>
</event>
<event>
 8    1  0.1273312E-005  0.1479399E+03  0.7546771E-02  0.1212467E+00
          1   -1    0    0  501    0  0.00000000000E+00  0.00000000000E+00  0.17944478850E+04  0.17944478850E+04  0.00000000000E+00 0. -1.
         -1   -1    0    0    0  501 -0.00000000000E+00 -0.00000000000E+00 -0.12788166742E+02  0.12788166742E+02  0.00000000000E+00 0.  1.
         23    2    1    2    0    0  0.56816413137E+02 -0.55076350686E+02  0.40481200750E+03  0.42246320395E+03  0.91328462553E+02 0.  0.
         23    2    1    2    0    0 -0.56816413137E+02  0.55076350686E+02  0.13768477108E+04  0.13847728478E+04  0.12499884858E+03 0.  0.
          5    1    4    4  502    0 -0.38324283015E+02 -0.61675321408E+01  0.10958045186E+04  0.10965019025E+04  0.47000000000E+01 0.  1.
         -5    1    4    4    0  502 -0.18492130121E+02  0.61243882827E+02  0.28104319216E+03  0.28827094532E+03  0.47000000000E+01 0.  1.
        -11    1    3    3    0    0  0.96757215316E+01  0.21028375414E+02  0.34942445626E+02  0.41914039008E+02  0.00000000000E+00 0.  1.
         11    1    3    3    0    0  0.47140691605E+02 -0.76104726099E+02  0.36986956187E+03  0.38054916494E+03  0.00000000000E+00 0. -1.
<mgrwt>
<rscale>  0 0.14064266E+03</rscale>
<asrwt>0</asrwt>
<pdfrwt beam="1">  1        1 0.27606871E+00 0.14793992E+03</pdfrwt>
<pdfrwt beam="2">  1       -1 0.19674117E-02 0.14793992E+03</pdfrwt>
<totfact> 0.32052758E+03</totfact>
</mgrwt>
</event>
<event>
 8    1  0.1273312E-005  0.2221703E+03  0.7546771E-02  0.1135486E+00
          1   -1    0    0  501    0  0.00000000000E+00  0.00000000000E+00  0.32598028886E+03  0.32598028886E+03  0.00000000000E+00 0. -1.
         -1   -1    0    0    0  501 -0.00000000000E+00 -0.00000000000E+00 -0.37293038797E+03  0.37293038797E+03  0.00000000000E+00 0.  1.
         23    2    1    2    0    0 -0.31217512028E+02  0.18099471751E+03 -0.29909292512E+03  0.36285169606E+03  0.92038875797E+02 0.  0.
         23    2    1    2    0    0  0.31217512028E+02 -0.18099471751E+03  0.25214282601E+03  0.33605898077E+03  0.12500405205E+03 0.  0.
          5    1    4    4  502    0 -0.12278213007E+02 -0.57372428876E+02  0.86395110220E+01  0.59490177849E+02  0.47000000000E+01 0. -1.
         -5    1    4    4    0  502  0.43495725035E+02 -0.12362228863E+03  0.24350331499E+03  0.27656880293E+03  0.47000000000E+01 0. -1.
        -11    1    3    3    0    0 -0.43277511365E+02  0.13358757643E+03 -0.27396956930E+03  0.30786020930E+03  0.00000000000E+00 0.  1.
         11    1    3    3    0    0  0.12059999337E+02  0.47407141077E+02 -0.25123355817E+02  0.54991486765E+02  0.00000000000E+00 0. -1.
<mgrwt>
<rscale>  0 0.21786360E+03</rscale>
<asrwt>0</asrwt>
<pdfrwt beam="1">  1        1 0.50150814E-01 0.22217028E+03</pdfrwt>
<pdfrwt beam="2">  1       -1 0.57373905E-01 0.22217028E+03</pdfrwt>
<totfact> 0.25284273E+02</totfact>
</mgrwt>
</event>
<event>
 8    1  0.1273312E-005  0.1926824E+03  0.7546771E-02  0.1159551E+00
          4   -1    0    0  501    0  0.00000000000E+00  0.00000000000E+00  0.81785177614E+02  0.81785177614E+02  0.00000000000E+00 0. -1.
         -4   -1    0    0    0  501 -0.00000000000E+00 -0.00000000000E+00 -0.52333959553E+03  0.52333959553E+03  0.00000000000E+00 0.  1.
         23    2    1    2    0    0  0.12022437308E+03  0.83945503366E+02 -0.34850400081E+03  0.39115069621E+03  0.10021517425E+03 0.  0.
         23    2    1    2    0    0 -0.12022437308E+03 -0.83945503366E+02 -0.93050417104E+02  0.21397407693E+03  0.12500311219E+03 0.  0.
          5    1    4    4  502    0  0.12517521277E+02 -0.22287985061E+02  0.16769676101E+02  0.30931450880E+02  0.47000000000E+01 0. -1.
         -5    1    4    4    0  502 -0.13274189435E+03 -0.61657518305E+02 -0.10982009320E+03  0.18304262605E+03  0.47000000000E+01 0. -1.
        -11    1    3    3    0    0  0.28352475630E+02  0.25089941899E+02 -0.15820246126E+02  0.41032282977E+02  0.00000000000E+00 0. -1.
         11    1    3    3    0    0  0.91871897445E+02  0.58855561467E+02 -0.33268375468E+03  0.35011841323E+03  0.00000000000E+00 0.  1.
<mgrwt>
<rscale>  0 0.18879736E+03</rscale>
<asrwt>0</asrwt>
<pdfrwt beam="1">  1        4 0.12582335E-01 0.19268245E+03</pdfrwt>
<pdfrwt beam="2">  1       -4 0.80513784E-01 0.19268245E+03</pdfrwt>
<totfact> 0.12687617E+02</totfact>
</mgrwt>
</event>
<event>
 8    1  0.1273312E-005  0.2120477E+03  0.7546771E-02  0.1143712E+00
         -3   -1    0    0    0  501 -0.00000000000E+00  0.00000000000E+00  0.10228275516E+03  0.10228275516E+03  0.00000000000E+00 0.  1.
          3   -1    0    0  501    0  0.00000000000E+00 -0.00000000000E+00 -0.48223466704E+03  0.48223466704E+03  0.00000000000E+00 0. -1.
         23    2    1    2    0    0 -0.11371429651E+03 -0.12812231000E+03 -0.64047587495E+02  0.20404433838E+03  0.90475029762E+02 0.  0.
         23    2    1    2    0    0  0.11371429651E+03  0.12812231000E+03 -0.31590432438E+03  0.38047308382E+03  0.12497182802E+03 0.  0.
          5    1    4    4  502    0  0.11753410839E+03  0.11138753035E+03 -0.32297266954E+03  0.36132379360E+03  0.47000000000E+01 0. -1.
         -5    1    4    4    0  502 -0.38198118856E+01  0.16734779645E+02  0.70683451573E+01  0.19149290218E+02  0.47000000000E+01 0. -1.
        -11    1    3    3    0    0 -0.74087362163E+02 -0.19445662535E+02 -0.37853499562E+02  0.85439794316E+02  0.00000000000E+00 0.  1.
         11    1    3    3    0    0 -0.39626934344E+02 -0.10867664746E+03 -0.26194087933E+02  0.11860454406E+03  0.00000000000E+00 0. -1.
<mgrwt>
<rscale>  0 0.20731245E+03</rscale>
<asrwt>0</asrwt>
<pdfrwt beam="2">  1        3 0.74189948E-01 0.21204770E+03</pdfrwt>
<pdfrwt beam="1">  1       -3 0.15735809E-01 0.21204770E+03</pdfrwt>
<totfact> 0.14755601E+02</totfact>
</mgrwt>
</event>
<event>
 8    1  0.1273312E-005  0.1294719E+03  0.7546771E-02  0.1242088E+00
          2   -1    0    0  501    0  0.00000000000E+00  0.00000000000E+00  0.34799320253E+03  0.34799320253E+03  0.00000000000E+00 0. -1.
         -2   -1    0    0    0  501 -0.00000000000E+00 -0.00000000000E+00 -0.39938478235E+02  0.39938478235E+02  0.00000000000E+00 0.  1.
         23    2    1    2    0    0  0.84810555020E+01 -0.32654586265E+02  0.81924247273E+02  0.12735930975E+03  0.91490771020E+02 0.  0.
         23    2    1    2    0    0 -0.84810555020E+01  0.32654586265E+02  0.22613047702E+03  0.26057237101E+03  0.12499887036E+03 0.  0.
          5    1    4    4  502    0 -0.45792468211E+02  0.64224657443E+02  0.15719553454E+03  0.17593829273E+03  0.47000000000E+01 0.  1.
         -5    1    4    4    0  502  0.37311412709E+02 -0.31570071178E+02  0.68934942475E+02  0.84634078282E+02  0.47000000000E+01 0.  1.
        -11    1    3    3    0    0  0.23288590286E+01  0.28443138217E+02  0.51384459835E+02  0.58777533196E+02  0.00000000000E+00 0.  1.
         11    1    3    3    0    0  0.61521964734E+01 -0.61097724482E+02  0.30539787437E+02  0.68581776552E+02  0.00000000000E+00 0. -1.
<mgrwt>
<rscale>  0 0.12061390E+03</rscale>
<asrwt>0</asrwt>
<pdfrwt beam="1">  1        2 0.53537414E-01 0.12947188E+03</pdfrwt>
<pdfrwt beam="2">  1       -2 0.61443815E-02 0.12947188E+03</pdfrwt>
<totfact> 0.12476745E+04</totfact>
</mgrwt>
</event>
<event>
 8    1  0.1273312E-005  0.1453381E+03  0.7546771E-02  0.1216685E+00
          2   -1    0    0  501    0  0.00000000000E+00  0.00000000000E+00  0.18833219237E+03  0.18833219237E+03  0.00000000000E+00 0.  1.
         -2   -1    0    0    0  501 -0.00000000000E+00 -0.00000000000E+00 -0.97597780103E+02  0.97597780103E+02  0.00000000000E+00 0. -1.
         23    2    1    2    0    0 -0.57898475036E+02  0.46348269610E+02  0.38761370180E+01  0.11661509246E+03  0.89909175523E+02 0.  0.
         23    2    1    2    0    0  0.57898475036E+02 -0.46348269610E+02  0.86858275249E+02  0.16931488002E+03  0.12499109211E+03 0.  0.
          5    1    4    4  502    0  0.53828947242E+02  0.25518905668E+00  0.10566284218E+03  0.11867749113E+03  0.47000000000E+01 0. -1.
         -5    1    4    4    0  502  0.40695277938E+01 -0.46603458667E+02 -0.18804566929E+02  0.50637388890E+02  0.47000000000E+01 0. -1.
        -11    1    3    3    0    0 -0.46684998963E+02 -0.13790124954E+02 -0.17625145282E+02  0.51771637221E+02  0.00000000000E+00 0. -1.
         11    1    3    3    0    0 -0.11213476073E+02  0.60138394564E+02  0.21501282300E+02  0.64843455236E+02  0.00000000000E+00 0.  1.
<mgrwt>
<rscale>  0 0.13753503E+03</rscale>
<asrwt>0</asrwt>
<pdfrwt beam="1">  1        2 0.28974183E-01 0.14533812E+03</pdfrwt>
<pdfrwt beam="2">  1       -2 0.15015043E-01 0.14533812E+03</pdfrwt>
<totfact> 0.59598744E+03</totfact>
</mgrwt>
</event>
<event>
 8    1  0.1273312E-005  0.2425348E+03  0.7546771E-02  0.1120738E+00
          2   -1    0    0  501    0  0.00000000000E+00  0.00000000000E+00  0.71987999865E+03  0.71987999865E+03  0.00000000000E+00 0. -1.
         -2   -1    0    0    0  501 -0.00000000000E+00 -0.00000000000E+00 -0.11242250006E+03  0.11242250006E+03  0.00000000000E+00 0.  1.
         23    2    1    2    0    0 -0.95318134041E+02  0.18469726537E+03  0.62121949534E+02  0.23546585347E+03  0.91577317208E+02 0.  0.
         23    2    1    2    0    0  0.95318134041E+02 -0.18469726537E+03  0.54533554906E+03  0.59683664524E+03  0.12499797405E+03 0.  0.
          5    1    4    4  502    0  0.94206553633E+01 -0.51215433694E+02  0.30047186708E+03  0.30498721662E+03  0.47000000000E+01 0.  1.
         -5    1    4    4    0  502  0.85897478677E+02 -0.13348183167E+03  0.24486368198E+03  0.29184942862E+03  0.47000000000E+01 0.  1.
        -11    1    3    3    0    0 -0.87667567371E+02  0.13886694968E+03  0.83598681527E+02  0.18427797382E+03  0.00000000000E+00 0. -1.
         11    1    3    3    0    0 -0.76505666697E+01  0.45830315684E+02 -0.21476731993E+02  0.51187879651E+02  0.00000000000E+00 0.  1.
<mgrwt>
<rscale>  0 0.23858656E+03</rscale>
<asrwt>0</asrwt>
<pdfrwt beam="1">  1        2 0.11075077E+00 0.24253478E+03</pdfrwt>
<pdfrwt beam="2">  1       -2 0.17295770E-01 0.24253478E+03</pdfrwt>
<totfact> 0.10935033E+03</totfact>
</mgrwt>
</event>
<event>
 7    1  0.1273312E-005  0.1224973E+03  0.7546771E-02  0.1313871E+00
          2   -1    0    0  501    0  0.00000000000E+00  0.00000000000E+00  0.14440389423E+04  0.14440389423E+04  0.00000000000E+00 0. -1.
         -2   -1    0    0    0  501 -0.00000000000E+00 -0.00000000000E+00 -0.46757553026E+01  0.46757553026E+01  0.00000000000E+00 0.  1.
         23    2    1    2    0    0 -0.17228496537E+02 -0.55924589325E+01  0.13261012876E+04  0.13317470501E+04  0.12115066628E+03 0.  0.
          5    1    3    3  502    0 -0.25707103936E+02  0.14466220931E+01  0.13154685975E+04  0.13157289496E+04  0.47000000000E+01 0. -1.
         -5    1    3    3    0  502  0.84786073994E+01 -0.70390810256E+01  0.10632690066E+02  0.16018100485E+02  0.47000000000E+01 0.  1.
        -11    1    1    2    0    0  0.51717520525E+01 -0.85620759057E+01  0.28934353720E+02  0.30614587835E+02  0.00000000000E+00 0. -1.
         11    1    1    2    0    0  0.12056744484E+02  0.14154534838E+02  0.84327545684E+02  0.86353059616E+02  0.00000000000E+00 0.  1.
<mgrwt>
<rscale>  0 0.85600129E+02</rscale>
<asrwt>0</asrwt>
<pdfrwt beam="1">  1        2 0.22215948E+00 0.12249727E+03</pdfrwt>
<pdfrwt beam="2">  1       -2 0.71934812E-03 0.12249727E+03</pdfrwt>
<totfact> 0.47334894E+04</totfact>
</mgrwt>
</event>
<event>
 8    1  0.1273312E-005  0.1783498E+03  0.7546771E-02  0.1175064E+00
         -2   -1    0    0    0  501 -0.00000000000E+00  0.00000000000E+00  0.68494489562E+02  0.68494489562E+02  0.00000000000E+00 0.  1.
          2   -1    0    0  501    0  0.00000000000E+00 -0.00000000000E+00 -0.41972726817E+03  0.41972726817E+03  0.00000000000E+00 0. -1.
         23    2    1    2    0    0 -0.98728157233E+02  0.80228336448E+02 -0.12741891127E+03  0.20203771538E+03  0.91650556408E+02 0.  0.
         23    2    1    2    0    0  0.98728157233E+02 -0.80228336448E+02 -0.22381386734E+03  0.28618404234E+03  0.12499929551E+03 0.  0.
          5    1    4    4  502    0  0.14772015939E+02  0.32150341632E+02 -0.65637372692E+02  0.74714199560E+02  0.47000000000E+01 0.  1.
         -5    1    4    4    0  502  0.83956141294E+02 -0.11237867808E+03 -0.15817649465E+03  0.21146984278E+03  0.47000000000E+01 0.  1.
        -11    1    3    3    0    0  0.82785025457E+01  0.33734173650E+02 -0.53939494577E+02  0.64156037529E+02  0.00000000000E+00 0. -1.
         11    1    3    3    0    0 -0.10700665978E+03  0.46494162798E+02 -0.73479416688E+02  0.13788167786E+03  0.00000000000E+00 0.  1.
<mgrwt>
<rscale>  0 0.17269721E+03</rscale>
<asrwt>0</asrwt>
<pdfrwt beam="2">  1        2 0.64573426E-01 0.17834982E+03</pdfrwt>
<pdfrwt beam="1">  1       -2 0.10537614E-01 0.17834982E+03</pdfrwt>
<totfact> 0.45127230E+03</totfact>
</mgrwt>
</event>
<event>
 8    1  0.1273312E-005  0.1527300E+03  0.7546771E-02  0.1205678E+00
         -1   -1    0    0    0  501 -0.00000000000E+00  0.00000000000E+00  0.13641716096E+02  0.13641716096E+02  0.00000000000E+00 0.  1.
          1   -1    0    0  501    0  0.00000000000E+00 -0.00000000000E+00 -0.15465221337E+04  0.15465221337E+04  0.00000000000E+00 0. -1.
         23    2    1    2    0    0 -0.66829540448E+02  0.56884705543E+02 -0.49129939462E+03  0.50744476292E+03  0.91777094390E+02 0.  0.
         23    2    1    2    0    0  0.66829540448E+02 -0.56884705543E+02 -0.10415810230E+04  0.10527190869E+04  0.12499756495E+03 0.  0.
          5    1    4    4  502    0  0.79721484320E+02 -0.33649192521E+02 -0.99589867445E+03  0.99966196436E+03  0.47000000000E+01 0. -1.
         -5    1    4    4    0  502 -0.12891943872E+02 -0.23235513022E+02 -0.45682348508E+02  0.53057122495E+02  0.47000000000E+01 0. -1.
        -11    1    3    3    0    0 -0.22707649913E+02  0.69278381278E+02 -0.38251685041E+03  0.38940245547E+03  0.00000000000E+00 0. -1.
         11    1    3    3    0    0 -0.44121890535E+02 -0.12393675735E+02 -0.10878254422E+03  0.11804230745E+03  0.00000000000E+00 0.  1.
<mgrwt>
<rscale>  0 0.14584146E+03</rscale>
<asrwt>0</asrwt>
<pdfrwt beam="2">  1        1 0.23792629E+00 0.15272999E+03</pdfrwt>
<pdfrwt beam="1">  1       -1 0.20987273E-02 0.15272999E+03</pdfrwt>
<totfact> 0.42139018E+03</totfact>
</mgrwt>
</event>
<event>
 8    1  0.1273312E-005  0.1502293E+03  0.7546771E-02  0.1209587E+00
         -2   -1    0    0    0  501 -0.00000000000E+00  0.00000000000E+00  0.54102359966E+02  0.54102359966E+02  0.00000000000E+00 0.  1.
          2   -1    0    0  501    0  0.00000000000E+00 -0.00000000000E+00 -0.77991803302E+03  0.77991803302E+03  0.00000000000E+00 0. -1.
         23    2    1    2    0    0 -0.58166258948E+02 -0.59663566458E+02 -0.35771969484E+02  0.12781281137E+03  0.90074558605E+02 0.  0.
         23    2    1    2    0    0  0.58166258948E+02  0.59663566458E+02 -0.69004370357E+03  0.70620758161E+03  0.12500312255E+03 0.  0.
          5    1    4    4  502    0  0.16693253448E+02 -0.36393656516E+01 -0.71354133412E+01  0.19102717518E+02  0.47000000000E+01 0.  1.
         -5    1    4    4    0  502  0.41473005500E+02  0.63302932110E+02 -0.68290829023E+03  0.68710486409E+03  0.47000000000E+01 0.  1.
        -11    1    3    3    0    0  0.40218112051E+01 -0.13211764646E+02 -0.47358569451E+02  0.49331123957E+02  0.00000000000E+00 0. -1.
         11    1    3    3    0    0 -0.62188070153E+02 -0.46451801812E+02  0.11586599967E+02  0.78481687416E+02  0.00000000000E+00 0.  1.
<mgrwt>
<rscale>  0 0.14281748E+03</rscale>
<asrwt>0</asrwt>
<pdfrwt beam="2">  1        2 0.11998738E+00 0.15022928E+03</pdfrwt>
<pdfrwt beam="1">  1       -2 0.83234407E-02 0.15022928E+03</pdfrwt>
<totfact> 0.31979969E+03</totfact>
</mgrwt>
</event>
<event>
 8    1  0.1273312E-005  0.1374129E+03  0.7546771E-02  0.1228317E+00
          3   -1    0    0  501    0  0.00000000000E+00  0.00000000000E+00  0.12585321704E+03  0.12585321704E+03  0.00000000000E+00 0. -1.
         -3   -1    0    0    0  501 -0.00000000000E+00 -0.00000000000E+00 -0.13993627655E+03  0.13993627655E+03  0.00000000000E+00 0.  1.
         23    2    1    2    0    0  0.35393812661E+02 -0.44820196689E+02 -0.56472471189E+02  0.12198694496E+03  0.91815590907E+02 0.  0.
         23    2    1    2    0    0 -0.35393812661E+02  0.44820196689E+02  0.42389411678E+02  0.14380254863E+03  0.12498295390E+03 0.  0.
          5    1    4    4  502    0  0.49175545195E+01  0.81235907675E+02  0.15402065049E+02  0.82962453231E+02  0.47000000000E+01 0. -1.
         -5    1    4    4    0  502 -0.40311367181E+02 -0.36415710986E+02  0.26987346629E+02  0.60840095403E+02  0.47000000000E+01 0. -1.
        -11    1    3    3    0    0 -0.30922095116E+02 -0.67174997681E+01 -0.16195229996E+02  0.35546958296E+02  0.00000000000E+00 0.  1.
         11    1    3    3    0    0  0.66315907777E+02 -0.38102696921E+02 -0.40277241193E+02  0.86439986668E+02  0.00000000000E+00 0. -1.
<mgrwt>
<rscale>  0 0.12942115E+03</rscale>
<asrwt>0</asrwt>
<pdfrwt beam="1">  1        3 0.19362033E-01 0.13741292E+03</pdfrwt>
<pdfrwt beam="2">  1       -3 0.21528658E-01 0.13741292E+03</pdfrwt>
<totfact> 0.10800071E+03</totfact>
</mgrwt>
</event>
<event>
 8    1  0.1273312E-005  0.1545550E+03  0.7546771E-02  0.1202907E+00
          3   -1    0    0  501    0  0.00000000000E+00  0.00000000000E+00  0.38274076951E+03  0.38274076951E+03  0.00000000000E+00 0. -1.
         -3   -1    0    0    0  501 -0.00000000000E+00 -0.00000000000E+00 -0.53181521385E+02  0.53181521385E+02  0.00000000000E+00 0.  1.
         23    2    1    2    0    0 -0.89996455005E+02  0.12795278731E+02  0.13545981921E+03  0.18780573048E+03  0.93051322998E+02 0.  0.
         23    2    1    2    0    0  0.89996455005E+02 -0.12795278731E+02  0.19409942892E+03  0.24811656041E+03  0.12499663264E+03 0.  0.
          5    1    4    4  502    0  0.91182961890E+02  0.40892969354E+02  0.13637344075E+03  0.16913418585E+03  0.47000000000E+01 0.  1.
         -5    1    4    4    0  502 -0.11865068847E+01 -0.53688248085E+02  0.57725988165E+02  0.78982374558E+02  0.47000000000E+01 0.  1.
        -11    1    3    3    0    0  0.17350394203E+02 -0.44195650673E+01  0.62999424739E+01  0.18980463892E+02  0.00000000000E+00 0.  1.
         11    1    3    3    0    0 -0.10734684921E+03  0.17214843799E+02  0.12915987673E+03  0.16882526659E+03  0.00000000000E+00 0. -1.
<mgrwt>
<rscale>  0 0.14803606E+03</rscale>
<asrwt>0</asrwt>
<pdfrwt beam="1">  1        3 0.58883193E-01 0.15455497E+03</pdfrwt>
<pdfrwt beam="2">  1       -3 0.81817728E-02 0.15455497E+03</pdfrwt>
<totfact> 0.69435003E+02</totfact>
</mgrwt>
</event>
<event>
 8    1  0.1273312E-005  0.1482550E+03  0.7546771E-02  0.1214067E+00
         -1   -1    0    0    0  501 -0.00000000000E+00  0.00000000000E+00  0.29530435358E+02  0.29530435358E+02  0.00000000000E+00 0.  1.
          1   -1    0    0  501    0  0.00000000000E+00 -0.00000000000E+00 -0.59148506136E+03  0.59148506136E+03  0.00000000000E+00 0. -1.
         23    2    1    2    0    0  0.23282899930E+02 -0.76232883861E+02 -0.24408143285E+03  0.27026925954E+03  0.84357458362E+02 0.  0.
         23    2    1    2    0    0 -0.23282899930E+02  0.76232883861E+02 -0.31787319315E+03  0.35074623717E+03  0.12500403976E+03 0.  0.
          5    1    4    4  502    0 -0.65951845025E+02  0.66733909893E+01 -0.14756540612E+03  0.16183886769E+03  0.47000000000E+01 0. -1.
         -5    1    4    4    0  502  0.42668945094E+02  0.69559492872E+02 -0.17030778703E+03  0.18890736948E+03  0.47000000000E+01 0. -1.
        -11    1    3    3    0    0  0.65751053605E+01 -0.50458207156E+02 -0.23158324206E+03  0.23710769849E+03  0.00000000000E+00 0. -1.
         11    1    3    3    0    0  0.16707794570E+02 -0.25774676705E+02 -0.12498190792E+02  0.33161561057E+02  0.00000000000E+00 0.  1.
<mgrwt>
<rscale>  0 0.13945270E+03</rscale>
<asrwt>0</asrwt>
<pdfrwt beam="2">  1        1 0.90997694E-01 0.14825504E+03</pdfrwt>
<pdfrwt beam="1">  1       -1 0.45431443E-02 0.14825504E+03</pdfrwt>
<totfact> 0.70434843E+03</totfact>
</mgrwt>
</event>
<event>
 8    1  0.1273312E-005  0.1804983E+03  0.7546771E-02  0.1173705E+00
          4   -1    0    0  501    0  0.00000000000E+00  0.00000000000E+00  0.11596023989E+03  0.11596023989E+03  0.00000000000E+00 0. -1.
         -4   -1    0    0    0  501 -0.00000000000E+00 -0.00000000000E+00 -0.30405935862E+03  0.30405935862E+03  0.00000000000E+00 0.  1.
         23    2    1    2    0    0  0.24350640051E+02  0.12789765813E+03 -0.18160161637E+03  0.23940437633E+03  0.85933367860E+02 0.  0.
         23    2    1    2    0    0 -0.24350640051E+02 -0.12789765813E+03 -0.64975023602E+01  0.18061522218E+03  0.12501550432E+03 0.  0.
          5    1    4    4  502    0  0.29132330764E+02 -0.12036629277E+03 -0.17893088027E+02  0.12521577269E+03  0.47000000000E+01 0. -1.
         -5    1    4    4    0  502 -0.53482970815E+02 -0.75313653582E+01  0.11395585666E+02  0.55399449492E+02  0.47000000000E+01 0. -1.
        -11    1    3    3    0    0  0.48648682580E+02  0.99194604281E+02 -0.97795805272E+02  0.14754756306E+03  0.00000000000E+00 0. -1.
         11    1    3    3    0    0 -0.24298042529E+02  0.28703053848E+02 -0.83805811094E+02  0.91856813270E+02  0.00000000000E+00 0.  1.
<mgrwt>
<rscale>  0 0.17403415E+03</rscale>
<asrwt>0</asrwt>
<pdfrwt beam="1">  1        4 0.17840037E-01 0.18049831E+03</pdfrwt>
<pdfrwt beam="2">  1       -4 0.46778363E-01 0.18049831E+03</pdfrwt>
<totfact> 0.21554093E+02</totfact>
</mgrwt>
</event>
<event>
 8    1  0.1273312E-005  0.1333371E+03  0.7546771E-02  0.1235965E+00
         -1   -1    0    0    0  501 -0.00000000000E+00  0.00000000000E+00  0.87371070137E+02  0.87371070137E+02  0.00000000000E+00 0.  1.
          1   -1    0    0  501    0  0.00000000000E+00 -0.00000000000E+00 -0.18591057147E+03  0.18591057147E+03  0.00000000000E+00 0. -1.
         23    2    1    2    0    0 -0.10139133869E+02 -0.45326553801E+02  0.96456257299E+01  0.10157603845E+03  0.89818455650E+02 0.  0.
         23    2    1    2    0    0  0.10139133869E+02  0.45326553801E+02 -0.10818512706E+03  0.17170560316E+03  0.12498597491E+03 0.  0.
          5    1    4    4  502    0  0.58446730364E+01  0.79500006705E+02 -0.11110242989E+03  0.13682196899E+03  0.47000000000E+01 0. -1.
         -5    1    4    4    0  502  0.42944608322E+01 -0.34173452904E+02  0.29173028340E+01  0.34883634172E+02  0.47000000000E+01 0. -1.
        -11    1    3    3    0    0 -0.12907211024E+02 -0.31692019285E+02 -0.38471320445E+02  0.51488082889E+02  0.00000000000E+00 0. -1.
         11    1    3    3    0    0  0.27680771550E+01 -0.13634534517E+02  0.48116946175E+02  0.50087955557E+02  0.00000000000E+00 0.  1.
<mgrwt>
<rscale>  0 0.12442837E+03</rscale>
<asrwt>0</asrwt>
<pdfrwt beam="2">  1        1 0.28601626E-01 0.13333714E+03</pdfrwt>
<pdfrwt beam="1">  1       -1 0.13441703E-01 0.13333714E+03</pdfrwt>
<totfact> 0.58658276E+03</totfact>
</mgrwt>
</event>
<event>
 8    1  0.1273312E-005  0.2188765E+03  0.7546771E-02  0.1136765E+00
         -1   -1    0    0    0  501 -0.00000000000E+00  0.00000000000E+00  0.15724949774E+03  0.15724949774E+03  0.00000000000E+00 0.  1.
          1   -1    0    0  501    0  0.00000000000E+00 -0.00000000000E+00 -0.46336689359E+03  0.46336689359E+03  0.00000000000E+00 0. -1.
         23    2    1    2    0    0  0.16033262643E+03 -0.81080912349E+02  0.39040353908E+02  0.21191014931E+03  0.10536174212E+03 0.  0.
         23    2    1    2    0    0 -0.16033262643E+03  0.81080912349E+02 -0.34515774976E+03  0.40870624202E+03  0.12500501829E+03 0.  0.
          5    1    4    4  502    0 -0.22274859540E+01  0.12466231404E+02 -0.14030064760E+03  0.14094938927E+03  0.47000000000E+01 0.  1.
         -5    1    4    4    0  502 -0.15810514048E+03  0.68614680945E+02 -0.20485710216E+03  0.26775685275E+03  0.47000000000E+01 0.  1.
        -11    1    3    3    0    0  0.93466530686E+02 -0.97704884188E+02  0.45607075449E+02  0.14269632821E+03  0.00000000000E+00 0.  1.
         11    1    3    3    0    0  0.66866095747E+02  0.16623971839E+02 -0.65667215410E+01  0.69213821105E+02  0.00000000000E+00 0. -1.
<mgrwt>
<rscale>  0 0.21617862E+03</rscale>
<asrwt>0</asrwt>
<pdfrwt beam="2">  1        1 0.71287212E-01 0.21887649E+03</pdfrwt>
<pdfrwt beam="1">  1       -1 0.24192231E-01 0.21887649E+03</pdfrwt>
<totfact> 0.73810163E+02</totfact>
</mgrwt>
</event>
<event>
 8    1  0.1273312E-005  0.1390225E+03  0.7546771E-02  0.1236856E+00
          1   -1    0    0  501    0  0.00000000000E+00  0.00000000000E+00  0.26239786892E+03  0.26239786892E+03  0.00000000000E+00 0. -1.
         -1   -1    0    0    0  501 -0.00000000000E+00 -0.00000000000E+00 -0.55708196578E+02  0.55708196578E+02  0.00000000000E+00 0.  1.
         23    2    1    2    0    0 -0.55906953204E+02  0.24014217791E+02  0.28546233981E+02  0.92136295425E+02  0.63023324154E+02 0.  0.
         23    2    1    2    0    0  0.55906953204E+02 -0.24014217791E+02  0.17814343836E+03  0.22596977007E+03  0.12499992913E+03 0.  0.
          5    1    4    4  502    0  0.72204911694E+01  0.42391711320E+02  0.20099014261E+02  0.47699612740E+02  0.47000000000E+01 0. -1.
         -5    1    4    4    0  502  0.48686462035E+02 -0.66405929111E+02  0.15804442410E+03  0.17827015733E+03  0.47000000000E+01 0. -1.
        -11    1    3    3    0    0 -0.56246794656E+00  0.20176472024E+02  0.30558090171E+02  0.36622442142E+02  0.00000000000E+00 0. -1.
         11    1    3    3    0    0 -0.55344485258E+02  0.38377457676E+01 -0.20118561898E+01  0.55513853283E+02  0.00000000000E+00 0.  1.
<mgrwt>
<rscale>  0 0.12386340E+03</rscale>
<asrwt>0</asrwt>
<pdfrwt beam="1">  1        1 0.40368902E-01 0.13902249E+03</pdfrwt>
<pdfrwt beam="2">  1       -1 0.85704920E-02 0.13902249E+03</pdfrwt>
<totfact> 0.76489597E+03</totfact>
</mgrwt>
</event>
<event>
 8    1  0.1273312E-005  0.1312806E+03  0.7546771E-02  0.1238875E+00
         -2   -1    0    0    0  501 -0.00000000000E+00  0.00000000000E+00  0.12930780322E+03  0.12930780322E+03  0.00000000000E+00 0.  1.
          2   -1    0    0  501    0  0.00000000000E+00 -0.00000000000E+00 -0.14881710197E+03  0.14881710197E+03  0.00000000000E+00 0. -1.
         23    2    1    2    0    0 -0.14448931425E+02 -0.37426109318E+02  0.67600032809E+02  0.12057291895E+03  0.91425264947E+02 0.  0.
         23    2    1    2    0    0  0.14448931425E+02  0.37426109318E+02 -0.87109331565E+02  0.15755198624E+03  0.12500042977E+03 0.  0.
          5    1    4    4  502    0 -0.11101547131E+02  0.58441956458E+02  0.46936236712E+01  0.59856718307E+02  0.47000000000E+01 0.  1.
         -5    1    4    4    0  502  0.25550478557E+02 -0.21015847141E+02 -0.91802955236E+02  0.97695267929E+02  0.47000000000E+01 0.  1.
        -11    1    3    3    0    0 -0.87138998113E+01  0.30454307869E+02  0.19848670398E+02  0.37381367475E+02  0.00000000000E+00 0. -1.
         11    1    3    3    0    0 -0.57350316140E+01 -0.67880417186E+02  0.47751362411E+02  0.83191551477E+02  0.00000000000E+00 0.  1.
<mgrwt>
<rscale>  0 0.12259612E+03</rscale>
<asrwt>0</asrwt>
<pdfrwt beam="2">  1        2 0.22894939E-01 0.13128059E+03</pdfrwt>
<pdfrwt beam="1">  1       -2 0.19893508E-01 0.13128059E+03</pdfrwt>
<totfact> 0.48075052E+03</totfact>
</mgrwt>
</event>
<event>
 8    1  0.1273312E-005  0.1568413E+03  0.7546771E-02  0.1201140E+00
         -2   -1    0    0    0  501 -0.00000000000E+00  0.00000000000E+00  0.22552673507E+03  0.22552673507E+03  0.00000000000E+00 0.  1.
          2   -1    0    0  501    0  0.00000000000E+00 -0.00000000000E+00 -0.91208650471E+02  0.91208650471E+02  0.00000000000E+00 0. -1.
         23    2    1    2    0    0 -0.20953984595E+02 -0.92383245035E+02  0.71532196037E+02  0.14779379048E+03  0.88047805207E+02 0.  0.
         23    2    1    2    0    0  0.20953984595E+02  0.92383245035E+02  0.62785888560E+02  0.16894159506E+03  0.12500184520E+03 0.  0.
          5    1    4    4  502    0 -0.38884866297E+02 -0.78451961434E+01  0.13834108845E+02  0.42273543701E+02  0.47000000000E+01 0. -1.
         -5    1    4    4    0  502  0.59838850892E+02  0.10022844118E+03  0.48951779715E+02  0.12666805136E+03  0.47000000000E+01 0. -1.
        -11    1    3    3    0    0  0.58822750225E+01 -0.75559421479E+02  0.84553525499E+02  0.11354790182E+03  0.00000000000E+00 0.  1.
         11    1    3    3    0    0 -0.26836259617E+02 -0.16823823556E+02 -0.13021329462E+02  0.34245888662E+02  0.00000000000E+00 0. -1.
<mgrwt>
<rscale>  0 0.14945823E+03</rscale>
<asrwt>0</asrwt>
<pdfrwt beam="2">  1        2 0.14032100E-01 0.15684130E+03</pdfrwt>
<pdfrwt beam="1">  1       -2 0.34696421E-01 0.15684130E+03</pdfrwt>
<totfact> 0.31934021E+03</totfact>
</mgrwt>
</event>
<event>
 8    1  0.1273312E-005  0.1383456E+03  0.7546771E-02  0.1226668E+00
         -2   -1    0    0    0  501 -0.00000000000E+00  0.00000000000E+00  0.25100129049E+02  0.25100129049E+02  0.00000000000E+00 0.  1.
          2   -1    0    0  501    0  0.00000000000E+00 -0.00000000000E+00 -0.81088248236E+03  0.81088248236E+03  0.00000000000E+00 0. -1.
         23    2    1    2    0    0  0.54804827998E+02 -0.22613721837E+02 -0.15285225051E+03  0.18810914307E+03  0.92229548580E+02 0.  0.
         23    2    1    2    0    0 -0.54804827998E+02  0.22613721837E+02 -0.63293010280E+03  0.64787346834E+03  0.12499826546E+03 0.  0.
          5    1    4    4  502    0 -0.45325825040E+02  0.60967725782E+02 -0.55675450284E+03  0.56193341281E+03  0.47000000000E+01 0.  1.
         -5    1    4    4    0  502 -0.94790029578E+01 -0.38354003945E+02 -0.76175599961E+02  0.85940055534E+02  0.47000000000E+01 0.  1.
        -11    1    3    3    0    0  0.25891059925E+02 -0.34948322782E+02 -0.13923290762E+02  0.45668263323E+02  0.00000000000E+00 0.  1.
         11    1    3    3    0    0  0.28913768073E+02  0.12334600945E+02 -0.13892895975E+03  0.14244087974E+03  0.00000000000E+00 0. -1.
<mgrwt>
<rscale>  0 0.13053223E+03</rscale>
<asrwt>0</asrwt>
<pdfrwt beam="2">  1        2 0.12475115E+00 0.13834564E+03</pdfrwt>
<pdfrwt beam="1">  1       -2 0.38615585E-02 0.13834564E+03</pdfrwt>
<totfact> 0.97199602E+03</totfact>
</mgrwt>
</event>
<event>
 8    1  0.1273312E-005  0.1574800E+03  0.7546771E-02  0.1200259E+00
          1   -1    0    0  501    0  0.00000000000E+00  0.00000000000E+00  0.38652675999E+03  0.38652675999E+03  0.00000000000E+00 0. -1.
         -1   -1    0    0    0  501 -0.00000000000E+00 -0.00000000000E+00 -0.56939615612E+02  0.56939615612E+02  0.00000000000E+00 0.  1.
         23    2    1    2    0    0  0.95651945727E+02 -0.50724425161E+01  0.96150313365E+02  0.16187674991E+03  0.88227971789E+02 0.  0.
         23    2    1    2    0    0 -0.95651945727E+02  0.50724425161E+01  0.23343683101E+03  0.28158962569E+03  0.12499975532E+03 0.  0.
          5    1    4    4  502    0 -0.11157144406E+03  0.40133533764E+02  0.17374539169E+03  0.21040066254E+03  0.47000000000E+01 0.  1.
         -5    1    4    4    0  502  0.15919498337E+02 -0.35061091248E+02  0.59691439315E+02  0.71188963150E+02  0.47000000000E+01 0.  1.
        -11    1    3    3    0    0  0.10962103928E+03 -0.29271601543E+01  0.64520260549E+02  0.12723287524E+03  0.00000000000E+00 0.  1.
         11    1    3    3    0    0 -0.13969093553E+02 -0.21452823618E+01  0.31630052817E+02  0.34643874672E+02  0.00000000000E+00 0. -1.
<mgrwt>
<rscale>  0 0.15017402E+03</rscale>
<asrwt>0</asrwt>
<pdfrwt beam="1">  1        1 0.59465654E-01 0.15748004E+03</pdfrwt>
<pdfrwt beam="2">  1       -1 0.87599411E-02 0.15748004E+03</pdfrwt>
<totfact> 0.46006779E+03</totfact>
</mgrwt>
</event>
<event>
 8    1  0.1273312E-005  0.1453249E+03  0.7546771E-02  0.1215370E+00
         -2   -1    0    0    0  501 -0.00000000000E+00  0.00000000000E+00  0.18825324625E+02  0.18825324625E+02  0.00000000000E+00 0.  1.
          2   -1    0    0  501    0  0.00000000000E+00 -0.00000000000E+00 -0.11373365589E+04  0.11373365589E+04  0.00000000000E+00 0. -1.
         23    2    1    2    0    0  0.73931290250E+01  0.73718793562E+02 -0.27163339784E+03  0.29690557857E+03  0.94228981125E+02 0.  0.
         23    2    1    2    0    0 -0.73931290250E+01 -0.73718793562E+02 -0.84687783644E+03  0.85925630496E+03  0.12502083377E+03 0.  0.
          5    1    4    4  502    0  0.52990020549E+02 -0.58884725274E+02 -0.37719830286E+03  0.38545557828E+03  0.47000000000E+01 0. -1.
         -5    1    4    4    0  502 -0.60383149574E+02 -0.14834068288E+02 -0.46967953359E+03  0.47380072668E+03  0.47000000000E+01 0. -1.
        -11    1    3    3    0    0 -0.79197806715E+01  0.93695997238E+02 -0.20060801521E+03  0.22155188691E+03  0.00000000000E+00 0.  1.
         11    1    3    3    0    0  0.15312909697E+02 -0.19977203677E+02 -0.71025382629E+02  0.75353691666E+02  0.00000000000E+00 0. -1.
<mgrwt>
<rscale>  0 0.13849382E+03</rscale>
<asrwt>0</asrwt>
<pdfrwt beam="2">  1        2 0.17497489E+00 0.14532490E+03</pdfrwt>
<pdfrwt beam="1">  1       -2 0.28962031E-02 0.14532490E+03</pdfrwt>
<totfact> 0.94226116E+03</totfact>
</mgrwt>
</event>
<event>
 8    1  0.1273312E-005  0.1322141E+03  0.7546771E-02  0.1236643E+00
         -1   -1    0    0    0  501 -0.00000000000E+00  0.00000000000E+00  0.61146173563E+02  0.61146173563E+02  0.00000000000E+00 0.  1.
          1   -1    0    0  501    0  0.00000000000E+00 -0.00000000000E+00 -0.25428720178E+03  0.25428720178E+03  0.00000000000E+00 0. -1.
         23    2    1    2    0    0  0.35465538931E+02  0.24355454175E+02 -0.32389649508E+02  0.10729500857E+03  0.92801599498E+02 0.  0.
         23    2    1    2    0    0 -0.35465538931E+02 -0.24355454175E+02 -0.16075137871E+03  0.20813836678E+03  0.12501832412E+03 0.  0.
          5    1    4    4  502    0 -0.37280330038E+02 -0.26907749647E+02 -0.18116022133E+03  0.18696247161E+03  0.47000000000E+01 0. -1.
         -5    1    4    4    0  502  0.18147911067E+01  0.25522954714E+01  0.20408842618E+02  0.21175895162E+02  0.47000000000E+01 0. -1.
        -11    1    3    3    0    0 -0.11346983838E+02 -0.16150933315E+02  0.18579680544E+02  0.27107401540E+02  0.00000000000E+00 0.  1.
         11    1    3    3    0    0  0.46812522769E+02  0.40506387490E+02 -0.50969330052E+02  0.80187607031E+02  0.00000000000E+00 0. -1.
<mgrwt>
<rscale>  0 0.12399840E+03</rscale>
<asrwt>0</asrwt>
<pdfrwt beam="2">  1        1 0.39121108E-01 0.13221412E+03</pdfrwt>
<pdfrwt beam="1">  1       -1 0.94071036E-02 0.13221412E+03</pdfrwt>
<totfact> 0.68804065E+03</totfact>
</mgrwt>
</event>
<event>
 8    1  0.1273312E-005  0.1427633E+03  0.7546771E-02  0.1220083E+00
         -1   -1    0    0    0  501 -0.00000000000E+00  0.00000000000E+00  0.13804830291E+03  0.13804830291E+03  0.00000000000E+00 0.  1.
          1   -1    0    0  501    0  0.00000000000E+00 -0.00000000000E+00 -0.13354308176E+03  0.13354308176E+03  0.00000000000E+00 0. -1.
         23    2    1    2    0    0 -0.21478061030E+02 -0.65543139040E+02  0.45293709971E+02  0.12311555227E+03  0.91371269368E+02 0.  0.
         23    2    1    2    0    0  0.21478061030E+02  0.65543139040E+02 -0.40788488820E+02  0.14847583241E+03  0.12499664719E+03 0.  0.
          5    1    4    4  502    0  0.68925185773E+02  0.52238364862E+02 -0.38239146491E+01  0.86696253210E+02  0.47000000000E+01 0.  1.
         -5    1    4    4    0  502 -0.47447124743E+02  0.13304774178E+02 -0.36964574171E+02  0.61779579199E+02  0.47000000000E+01 0.  1.
        -11    1    3    3    0    0  0.14675206504E+02 -0.37154349674E+02  0.62380640128E+02  0.74075310654E+02  0.00000000000E+00 0.  1.
         11    1    3    3    0    0 -0.36153267535E+02 -0.28388789366E+02 -0.17086930158E+02  0.49040241612E+02  0.00000000000E+00 0. -1.
<mgrwt>
<rscale>  0 0.13509708E+03</rscale>
<asrwt>0</asrwt>
<pdfrwt beam="2">  1        1 0.20545090E-01 0.14276334E+03</pdfrwt>
<pdfrwt beam="1">  1       -1 0.21238200E-01 0.14276334E+03</pdfrwt>
<totfact> 0.43280013E+03</totfact>
</mgrwt>
</event>
<event>
 8    1  0.1273312E-005  0.1662283E+03  0.7546771E-02  0.1189066E+00
          1   -1    0    0  501    0  0.00000000000E+00  0.00000000000E+00  0.17289076447E+04  0.17289076447E+04  0.00000000000E+00 0. -1.
         -1   -1    0    0    0  501 -0.00000000000E+00 -0.00000000000E+00 -0.18571588437E+02  0.18571588437E+02  0.00000000000E+00 0.  1.
         23    2    1    2    0    0  0.56106543037E+02 -0.94114220662E+02  0.35786670877E+03  0.38483284367E+03  0.89567324502E+02 0.  0.
         23    2    1    2    0    0 -0.56106543037E+02  0.94114220662E+02  0.13524693475E+04  0.13626463895E+04  0.12500566434E+03 0.  0.
          5    1    4    4  502    0 -0.90268246596E+02  0.44508660179E+02  0.99718777662E+03  0.10022648996E+04  0.47000000000E+01 0.  1.
         -5    1    4    4    0  502  0.34161703559E+02  0.49605560482E+02  0.35528157091E+03  0.36038148989E+03  0.47000000000E+01 0.  1.
        -11    1    3    3    0    0 -0.89066748507E+01 -0.70632589411E+02  0.15648677970E+03  0.17191975967E+03  0.00000000000E+00 0.  1.
         11    1    3    3    0    0  0.65013217887E+02 -0.23481631251E+02  0.20137992907E+03  0.21291308400E+03  0.00000000000E+00 0. -1.
<mgrwt>
<rscale>  0 0.15967345E+03</rscale>
<asrwt>0</asrwt>
<pdfrwt beam="1">  1        1 0.26598566E+00 0.16622830E+03</pdfrwt>
<pdfrwt beam="2">  1       -1 0.28571688E-02 0.16622830E+03</pdfrwt>
<totfact> 0.20542109E+03</totfact>
</mgrwt>
</event>
<event>
 8    1  0.1273312E-005  0.1202854E+03  0.7546771E-02  0.1260734E+00
          2   -1    0    0  501    0  0.00000000000E+00  0.00000000000E+00  0.13641451579E+04  0.13641451579E+04  0.00000000000E+00 0. -1.
         -2   -1    0    0    0  501 -0.00000000000E+00 -0.00000000000E+00 -0.23090385708E+02  0.23090385708E+02  0.00000000000E+00 0.  1.
         23    2    1    2    0    0  0.40800555131E+01 -0.17984553424E+02  0.66516206799E+02  0.10703355501E+03  0.81802720720E+02 0.  0.
         23    2    1    2    0    0 -0.40800555131E+01  0.17984553424E+02  0.12745385654E+04  0.12802019886E+04  0.11886330767E+03 0.  0.
          5    1    4    4  502    0  0.13532148340E+01  0.63818667217E+02  0.97429838822E+03  0.97639853173E+03  0.47000000000E+01 0. -1.
         -5    1    4    4    0  502 -0.54332703471E+01 -0.45834113792E+02  0.30024017715E+03  0.30380345684E+03  0.47000000000E+01 0.  1.
        -11    1    3    3    0    0 -0.17601358940E+02  0.26398664119E+02  0.13235871620E+02  0.34378563108E+02  0.00000000000E+00 0. -1.
         11    1    3    3    0    0  0.21681414453E+02 -0.44383217543E+02  0.53280335179E+02  0.72654991907E+02  0.00000000000E+00 0.  1.
<mgrwt>
<rscale>  0 0.10991142E+03</rscale>
<asrwt>0</asrwt>
<pdfrwt beam="1">  1        2 0.20986842E+00 0.12028540E+03</pdfrwt>
<pdfrwt beam="2">  1       -2 0.35523681E-02 0.12028540E+03</pdfrwt>
<totfact> 0.52059167E+03</totfact>
</mgrwt>
</event>
<event>
 8    1  0.1273312E-005  0.1749972E+03  0.7546771E-02  0.1178883E+00
         -1   -1    0    0    0  501 -0.00000000000E+00  0.00000000000E+00  0.22415437682E+03  0.22415437682E+03  0.00000000000E+00 0.  1.
          1   -1    0    0  501    0  0.00000000000E+00 -0.00000000000E+00 -0.11946241083E+03  0.11946241083E+03  0.00000000000E+00 0. -1.
         23    2    1    2    0    0  0.14392882262E+02  0.12161702165E+03  0.46399881641E+02  0.15916632742E+03  0.90460575685E+02 0.  0.
         23    2    1    2    0    0 -0.14392882262E+02 -0.12161702165E+03  0.58292084352E+02  0.18445046022E+03  0.12500460056E+03 0.  0.
          5    1    4    4  502    0 -0.25542665140E+02 -0.52826832101E+02  0.90161713988E+02  0.10767695483E+03  0.47000000000E+01 0.  1.
         -5    1    4    4    0  502  0.11149782878E+02 -0.68790189553E+02 -0.31869629636E+02  0.76773505392E+02  0.47000000000E+01 0.  1.
        -11    1    3    3    0    0 -0.72212323234E+00  0.64075218594E+02 -0.22702055525E+02  0.67981897774E+02  0.00000000000E+00 0. -1.
         11    1    3    3    0    0  0.15115005494E+02  0.57541803060E+02  0.69101937166E+02  0.91184429649E+02  0.00000000000E+00 0.  1.
<mgrwt>
<rscale>  0 0.16901089E+03</rscale>
<asrwt>0</asrwt>
<pdfrwt beam="2">  1        1 0.18378832E-01 0.17499716E+03</pdfrwt>
<pdfrwt beam="1">  1       -1 0.34485289E-01 0.17499716E+03</pdfrwt>
<totfact> 0.22469852E+03</totfact>
</mgrwt>
</event>
<event>
 8    1  0.1273312E-005  0.1266089E+03  0.7546771E-02  0.1245453E+00
          2   -1    0    0  501    0  0.00000000000E+00  0.00000000000E+00  0.59026707032E+02  0.59026707032E+02  0.00000000000E+00 0. -1.
         -2   -1    0    0    0  501 -0.00000000000E+00 -0.00000000000E+00 -0.22023880737E+03  0.22023880737E+03  0.00000000000E+00 0.  1.
         23    2    1    2    0    0 -0.20166098010E+02  0.32227343778E+00 -0.96278403624E+02  0.13697636072E+03  0.95321650335E+02 0.  0.
         23    2    1    2    0    0  0.20166098010E+02 -0.32227343778E+00 -0.64933696713E+02  0.14228915368E+03  0.12499217142E+03 0.  0.
          5    1    4    4  502    0  0.70857340071E+02  0.16287815731E+02 -0.33439311370E+02  0.80164413102E+02  0.47000000000E+01 0. -1.
         -5    1    4    4    0  502 -0.50691242060E+02 -0.16610089169E+02 -0.31494385343E+02  0.62124740579E+02  0.47000000000E+01 0. -1.
        -11    1    3    3    0    0 -0.18200772324E+02 -0.40519943296E+02 -0.16603376019E+02  0.47421577506E+02  0.00000000000E+00 0. -1.
         11    1    3    3    0    0 -0.19653256861E+01  0.40842216733E+02 -0.79675027604E+02  0.89554783214E+02  0.00000000000E+00 0.  1.
<mgrwt>
<rscale>  0 0.11858332E+03</rscale>
<asrwt>0</asrwt>
<pdfrwt beam="1">  1        2 0.90810319E-02 0.12660892E+03</pdfrwt>
<pdfrwt beam="2">  1       -2 0.33882893E-01 0.12660892E+03</pdfrwt>
<totfact> 0.55738264E+03</totfact>
</mgrwt>
</event>
<event>
 8    1  0.1273312E-005  0.1809201E+03  0.7546771E-02  0.1172163E+00
          2   -1    0    0  501    0  0.00000000000E+00  0.00000000000E+00  0.12395383280E+03  0.12395383280E+03  0.00000000000E+00 0. -1.
         -2   -1    0    0    0  501 -0.00000000000E+00 -0.00000000000E+00 -0.46457809287E+03  0.46457809287E+03  0.00000000000E+00 0.  1.
         23    2    1    2    0    0 -0.50805882317E+02  0.12052655880E+03 -0.37180456785E+03  0.40494465734E+03  0.92917435288E+02 0.  0.
         23    2    1    2    0    0  0.50805882317E+02 -0.12052655880E+03  0.31180307776E+02  0.18358726832E+03  0.12499673773E+03 0.  0.
          5    1    4    4  502    0  0.62000067035E+02 -0.11526909331E+03 -0.18414648681E+02  0.13225793538E+03  0.47000000000E+01 0. -1.
         -5    1    4    4    0  502 -0.11194184718E+02 -0.52574654926E+01  0.49594956457E+02  0.51329332948E+02  0.47000000000E+01 0. -1.
        -11    1    3    3    0    0  0.18368885019E+02  0.10437373677E+01 -0.80544954072E+02  0.82619579707E+02  0.00000000000E+00 0. -1.
         11    1    3    3    0    0 -0.69174767336E+02  0.11948282143E+03 -0.29125961378E+03  0.32232507763E+03  0.00000000000E+00 0.  1.
<mgrwt>
<rscale>  0 0.17556760E+03</rscale>
<asrwt>0</asrwt>
<pdfrwt beam="1">  1        2 0.19069820E-01 0.18092007E+03</pdfrwt>
<pdfrwt beam="2">  1       -2 0.71473553E-01 0.18092007E+03</pdfrwt>
<totfact> 0.53344483E+02</totfact>
</mgrwt>
</event>
<event>
 7    1  0.1273312E-005  0.1713546E+03  0.7546771E-02  0.1193899E+00
         -2   -1    0    0    0  501 -0.00000000000E+00  0.00000000000E+00  0.29120260654E+03  0.29120260654E+03  0.00000000000E+00 0.  1.
          2   -1    0    0  501    0  0.00000000000E+00 -0.00000000000E+00 -0.72705486999E+02  0.72705486999E+02  0.00000000000E+00 0. -1.
         23    2    1    2    0    0  0.72417520337E+02  0.11066335748E+02  0.11645770535E+03  0.16447278007E+03  0.90122900588E+02 0.  0.
          5    1    1    2  502    0 -0.31636898156E+02  0.68873941070E+02  0.72102403268E+02  0.10471561316E+03  0.47000000000E+01 0. -1.
         -5    1    1    2    0  502 -0.40780622182E+02 -0.79940276818E+02  0.29937010930E+02  0.94719700309E+02  0.47000000000E+01 0.  1.
        -11    1    3    3    0    0  0.33785282781E+02  0.38762627998E+02  0.16860125626E+02  0.54113311653E+02  0.00000000000E+00 0. -1.
         11    1    3    3    0    0  0.38632237557E+02 -0.27696292250E+02  0.99597579721E+02  0.11035946842E+03  0.00000000000E+00 0.  1.
<mgrwt>
<rscale>  0 0.15547799E+03</rscale>
<asrwt>0</asrwt>
<pdfrwt beam="2">  1        2 0.11185460E-01 0.17135461E+03</pdfrwt>
<pdfrwt beam="1">  1       -2 0.44800400E-01 0.17135461E+03</pdfrwt>
<totfact> 0.25961473E+03</totfact>
</mgrwt>
</event>
<event>
 8    1  0.1273312E-005  0.1299995E+03  0.7546771E-02  0.1241661E+00
          3   -1    0    0  501    0  0.00000000000E+00  0.00000000000E+00  0.88776475893E+02  0.88776475893E+02  0.00000000000E+00 0. -1.
         -3   -1    0    0    0  501 -0.00000000000E+00 -0.00000000000E+00 -0.15350306035E+03  0.15350306035E+03  0.00000000000E+00 0.  1.
         23    2    1    2    0    0  0.33688397812E+02 -0.11961176069E+02 -0.55624939049E+02  0.11196185146E+03  0.90351228321E+02 0.  0.
         23    2    1    2    0    0 -0.33688397812E+02  0.11961176069E+02 -0.91016454045E+01  0.13031768478E+03  0.12498752392E+03 0.  0.
          5    1    4    4  502    0 -0.61849044336E+02 -0.31151604173E+02  0.18320200378E+02  0.71787509148E+02  0.47000000000E+01 0. -1.
         -5    1    4    4    0  502  0.28160646524E+02  0.43112780242E+02 -0.27421845783E+02  0.58530175627E+02  0.47000000000E+01 0. -1.
        -11    1    3    3    0    0 -0.46254638599E+01  0.28520286165E+02 -0.47553133638E+02  0.55642628961E+02  0.00000000000E+00 0.  1.
         11    1    3    3    0    0  0.38313861672E+02 -0.40481462234E+02 -0.80718054104E+01  0.56319222504E+02  0.00000000000E+00 0. -1.
<mgrwt>
<rscale>  0 0.12087466E+03</rscale>
<asrwt>0</asrwt>
<pdfrwt beam="1">  1        3 0.13657920E-01 0.12999946E+03</pdfrwt>
<pdfrwt beam="2">  1       -3 0.23615855E-01 0.12999946E+03</pdfrwt>
<totfact> 0.16556295E+03</totfact>
</mgrwt>
</event>
<event>
 8    1  0.1273312E-005  0.1886924E+03  0.7546771E-02  0.1163890E+00
         -1   -1    0    0    0  501 -0.00000000000E+00  0.00000000000E+00  0.12243623524E+03  0.12243623524E+03  0.00000000000E+00 0.  1.
          1   -1    0    0  501    0  0.00000000000E+00 -0.00000000000E+00 -0.28420299733E+03  0.28420299733E+03  0.00000000000E+00 0. -1.
         23    2    1    2    0    0 -0.23007684424E+02  0.13947269180E+03 -0.23257944921E+02  0.17256766666E+03  0.96211653521E+02 0.  0.
         23    2    1    2    0    0  0.23007684424E+02 -0.13947269180E+03 -0.13850881717E+03  0.23407156592E+03  0.12499128065E+03 0.  0.
          5    1    4    4  502    0 -0.48328392941E+02 -0.37104502329E+02 -0.64834943210E+02  0.89095664981E+02  0.47000000000E+01 0. -1.
         -5    1    4    4    0  502  0.71336077366E+02 -0.10236818947E+03 -0.73673873958E+02  0.14497590094E+03  0.47000000000E+01 0. -1.
        -11    1    3    3    0    0  0.33573297778E+02  0.40523620116E+02  0.10558646219E+02  0.53673225364E+02  0.00000000000E+00 0.  1.
         11    1    3    3    0    0 -0.56580982203E+02  0.98949071683E+02 -0.33816591140E+02  0.11889444129E+03  0.00000000000E+00 0. -1.
<mgrwt>
<rscale>  0 0.18410281E+03</rscale>
<asrwt>0</asrwt>
<pdfrwt beam="2">  1        1 0.43723537E-01 0.18869236E+03</pdfrwt>
<pdfrwt beam="1">  1       -1 0.18836344E-01 0.18869236E+03</pdfrwt>
<totfact> 0.20619961E+03</totfact>
</mgrwt>
</event>
<event>
 8    1  0.1273312E-005  0.1976296E+03  0.7546771E-02  0.1156022E+00
         -2   -1    0    0    0  501 -0.00000000000E+00  0.00000000000E+00  0.31918873373E+02  0.31918873373E+02  0.00000000000E+00 0.  1.
          2   -1    0    0  501    0  0.00000000000E+00 -0.00000000000E+00 -0.11145959819E+04  0.11145959819E+04  0.00000000000E+00 0. -1.
         23    2    1    2    0    0  0.10753604905E+03  0.10894010895E+03 -0.55292744753E+03  0.58110158286E+03  0.92294843779E+02 0.  0.
         23    2    1    2    0    0 -0.10753604905E+03 -0.10894010895E+03 -0.52974966097E+03  0.56541327238E+03  0.12500206442E+03 0.  0.
          5    1    4    4  502    0 -0.35828751645E+02 -0.11840968468E+03 -0.30137277164E+03  0.32581005257E+03  0.47000000000E+01 0. -1.
         -5    1    4    4    0  502 -0.71707297400E+02  0.94695757338E+01 -0.22837688933E+03  0.23960321981E+03  0.47000000000E+01 0. -1.
        -11    1    3    3    0    0  0.67478953960E+02  0.34659859234E+02 -0.39319068180E+03  0.40044179019E+03  0.00000000000E+00 0. -1.
         11    1    3    3    0    0  0.40057095085E+02  0.74280249716E+02 -0.15973676573E+03  0.18065979267E+03  0.00000000000E+00 0.  1.
<mgrwt>
<rscale>  0 0.19272958E+03</rscale>
<asrwt>0</asrwt>
<pdfrwt beam="2">  1        2 0.17147630E+00 0.19762962E+03</pdfrwt>
<pdfrwt beam="1">  1       -2 0.49105960E-02 0.19762962E+03</pdfrwt>
<totfact> 0.44683119E+03</totfact>
</mgrwt>
</event>
<event>
 8    1  0.1273312E-005  0.1703033E+03  0.7546771E-02  0.1183104E+00
         -1   -1    0    0    0  501 -0.00000000000E+00  0.00000000000E+00  0.14532915594E+03  0.14532915594E+03  0.00000000000E+00 0.  1.
          1   -1    0    0  501    0  0.00000000000E+00 -0.00000000000E+00 -0.22068102371E+03  0.22068102371E+03  0.00000000000E+00 0. -1.
         23    2    1    2    0    0  0.11227221364E+03 -0.27826921424E+02  0.45710071616E+02  0.15706233176E+03  0.95915472688E+02 0.  0.
         23    2    1    2    0    0 -0.11227221364E+03  0.27826921424E+02 -0.12106193938E+03  0.20894784788E+03  0.12499528975E+03 0.  0.
          5    1    4    4  502    0 -0.10893918379E+03  0.51843189150E+02 -0.13457239844E+03  0.18079624567E+03  0.47000000000E+01 0. -1.
         -5    1    4    4    0  502 -0.33330298474E+01 -0.24016267726E+02  0.13510459059E+02  0.28151602218E+02  0.47000000000E+01 0. -1.
        -11    1    3    3    0    0  0.48817911057E+02 -0.64339689095E+01 -0.28671060842E+02  0.56979067434E+02  0.00000000000E+00 0. -1.
         11    1    3    3    0    0  0.63454302580E+02 -0.21392952514E+02  0.74381132457E+02  0.10008326433E+03  0.00000000000E+00 0.  1.
<mgrwt>
<rscale>  0 0.16505579E+03</rscale>
<asrwt>0</asrwt>
<pdfrwt beam="2">  1        1 0.33950927E-01 0.17030329E+03</pdfrwt>
<pdfrwt beam="1">  1       -1 0.22358332E-01 0.17030329E+03</pdfrwt>
<totfact> 0.21341987E+03</totfact>
</mgrwt>
</event>
<event>
 8    1  0.1273312E-005  0.1449171E+03  0.7546771E-02  0.1217016E+00
          2   -1    0    0  501    0  0.00000000000E+00  0.00000000000E+00  0.20197263329E+04  0.20197263329E+04  0.00000000000E+00 0. -1.
         -2   -1    0    0    0  501 -0.00000000000E+00 -0.00000000000E+00 -0.15538954100E+02  0.15538954100E+02  0.00000000000E+00 0.  1.
         23    2    1    2    0    0 -0.65491054761E+02 -0.32971353055E+02  0.25930886360E+03  0.28437922814E+03  0.90853014707E+02 0.  0.
         23    2    1    2    0    0  0.65491054761E+02  0.32971353055E+02  0.17448785152E+04  0.17508860588E+04  0.12499907968E+03 0.  0.
          5    1    4    4  502    0  0.18125721358E+01  0.46618694529E+02  0.23697241840E+03  0.24156697866E+03  0.47000000000E+01 0.  1.
         -5    1    4    4    0  502  0.63678482626E+02 -0.13647341474E+02  0.15079060968E+04  0.15093190801E+04  0.47000000000E+01 0.  1.
        -11    1    3    3    0    0  0.13391699393E+02 -0.35350495003E+02  0.86964189966E+02  0.94824919963E+02  0.00000000000E+00 0.  1.
         11    1    3    3    0    0 -0.78882754154E+02  0.23791419482E+01  0.17234467363E+03  0.18955430818E+03  0.00000000000E+00 0. -1.
<mgrwt>
<rscale>  0 0.13729461E+03</rscale>
<asrwt>0</asrwt>
<pdfrwt beam="1">  1        2 0.31072692E+00 0.14491707E+03</pdfrwt>
<pdfrwt beam="2">  1       -2 0.23906099E-02 0.14491707E+03</pdfrwt>
<totfact> 0.42943731E+03</totfact>
</mgrwt>
</event>
<event>
 8    1  0.1273312E-005  0.1312793E+03  0.7546771E-02  0.1238719E+00
         -1   -1    0    0    0  501 -0.00000000000E+00  0.00000000000E+00  0.46293976938E+03  0.46293976938E+03  0.00000000000E+00 0.  1.
          1   -1    0    0  501    0  0.00000000000E+00 -0.00000000000E+00 -0.32975189294E+02  0.32975189294E+02  0.00000000000E+00 0. -1.
         23    2    1    2    0    0 -0.45190939927E+00  0.40127927502E+02  0.27582251820E+03  0.29344513324E+03  0.91768893890E+02 0.  0.
         23    2    1    2    0    0  0.45190939927E+00 -0.40127927502E+02  0.15414206189E+03  0.20246982544E+03  0.12499520064E+03 0.  0.
          5    1    4    4  502    0 -0.45543891530E+02  0.21249583545E+02  0.86231022998E+02  0.99918317559E+02  0.47000000000E+01 0.  1.
         -5    1    4    4    0  502  0.45995800930E+02 -0.61377511048E+02  0.67911038890E+02  0.10255150788E+03  0.47000000000E+01 0.  1.
        -11    1    3    3    0    0  0.40455704377E+02  0.29431091589E+02  0.20450406933E+03  0.21053448065E+03  0.00000000000E+00 0.  1.
         11    1    3    3    0    0 -0.40907613777E+02  0.10696835913E+02  0.71318448871E+02  0.82910652589E+02  0.00000000000E+00 0. -1.
<mgrwt>
<rscale>  0 0.12269322E+03</rscale>
<asrwt>0</asrwt>
<pdfrwt beam="2">  1        1 0.50731064E-02 0.13127930E+03</pdfrwt>
<pdfrwt beam="1">  1       -1 0.71221498E-01 0.13127930E+03</pdfrwt>
<totfact> 0.32441723E+03</totfact>
</mgrwt>
</event>
<event>
 8    1  0.1273312E-005  0.1411868E+03  0.7546771E-02  0.1222374E+00
          2   -1    0    0  501    0  0.00000000000E+00  0.00000000000E+00  0.53141475312E+03  0.53141475312E+03  0.00000000000E+00 0. -1.
         -2   -1    0    0    0  501 -0.00000000000E+00 -0.00000000000E+00 -0.34601532328E+02  0.34601532328E+02  0.00000000000E+00 0.  1.
         23    2    1    2    0    0 -0.59194895696E+02 -0.28367880516E+02  0.12541188343E+03  0.16868436417E+03  0.91746944856E+02 0.  0.
         23    2    1    2    0    0  0.59194895696E+02  0.28367880516E+02  0.37140133737E+03  0.39733192128E+03  0.12499971978E+03 0.  0.
          5    1    4    4  502    0  0.86221806160E+02  0.48831165057E+02  0.20878904531E+03  0.23115717159E+03  0.47000000000E+01 0.  1.
         -5    1    4    4    0  502 -0.27026910464E+02 -0.20463284541E+02  0.16261229206E+03  0.16617474968E+03  0.47000000000E+01 0.  1.
        -11    1    3    3    0    0  0.90409689960E+01 -0.58916528375E+01 -0.10434408205E+02  0.15010914967E+02  0.00000000000E+00 0.  1.
         11    1    3    3    0    0 -0.68235864692E+02 -0.22476227679E+02  0.13584629163E+03  0.15367344921E+03  0.00000000000E+00 0. -1.
<mgrwt>
<rscale>  0 0.13348521E+03</rscale>
<asrwt>0</asrwt>
<pdfrwt beam="1">  1        2 0.81756110E-01 0.14118676E+03</pdfrwt>
<pdfrwt beam="2">  1       -2 0.53233131E-02 0.14118676E+03</pdfrwt>
<totfact> 0.98764939E+03</totfact>
</mgrwt>
</event>
<event>
 8    1  0.1273312E-005  0.1674844E+03  0.7546771E-02  0.1186831E+00
          1   -1    0    0  501    0  0.00000000000E+00  0.00000000000E+00  0.15490220738E+04  0.15490220738E+04  0.00000000000E+00 0. -1.
         -1   -1    0    0    0  501 -0.00000000000E+00 -0.00000000000E+00 -0.16096421545E+02  0.16096421545E+02  0.00000000000E+00 0.  1.
         23    2    1    2    0    0  0.46755868978E+01 -0.11131787044E+03  0.60710970510E+03  0.62427516160E+03  0.93401038384E+02 0.  0.
         23    2    1    2    0    0 -0.46755868978E+01  0.11131787044E+03  0.92581594711E+03  0.94084333370E+03  0.12504991504E+03 0.  0.
          5    1    4    4  502    0 -0.34974230587E+02  0.27113866165E+02  0.91706702534E+02  0.10193413478E+03  0.47000000000E+01 0.  1.
         -5    1    4    4    0  502  0.30298643689E+02  0.84204004279E+02  0.83410924458E+03  0.83890919892E+03  0.47000000000E+01 0.  1.
        -11    1    3    3    0    0 -0.42857143637E+02 -0.39756848935E+02  0.28288237751E+03  0.28885944905E+03  0.00000000000E+00 0.  1.
         11    1    3    3    0    0  0.47532730534E+02 -0.71561021510E+02  0.32422732759E+03  0.33541571255E+03  0.00000000000E+00 0. -1.
<mgrwt>
<rscale>  0 0.16166345E+03</rscale>
<asrwt>0</asrwt>
<pdfrwt beam="1">  1        1 0.23831097E+00 0.16748436E+03</pdfrwt>
<pdfrwt beam="2">  1       -1 0.24763738E-02 0.16748436E+03</pdfrwt>
<totfact> 0.33069486E+03</totfact>
</mgrwt>
</event>
<event>
 7    1  0.1273312E-005  0.1755673E+03  0.7546771E-02  0.1190764E+00
          1   -1    0    0  501    0  0.00000000000E+00  0.00000000000E+00  0.57272563673E+03  0.57272563673E+03  0.00000000000E+00 0. -1.
         -1   -1    0    0    0  501 -0.00000000000E+00 -0.00000000000E+00 -0.22998939629E+03  0.22998939629E+03  0.00000000000E+00 0.  1.
         23    2    1    2    0    0 -0.68096522042E+02  0.23107682199E+02 -0.20068050937E+03  0.23164092626E+03  0.90629744486E+02 0.  0.
          5    1    1    2  502    0  0.64134287937E+02  0.22921927330E+02  0.50827126539E+03  0.51283563727E+03  0.47000000000E+01 0. -1.
         -5    1    1    2    0  502  0.39622341048E+01 -0.46029609529E+02  0.35145484433E+02  0.58238469490E+02  0.47000000000E+01 0.  1.
        -11    1    3    3    0    0 -0.62882952028E+02 -0.98418111891E+01 -0.18327764103E+03  0.19401500098E+03  0.00000000000E+00 0.  1.
         11    1    3    3    0    0 -0.52135700141E+01  0.32949493388E+02 -0.17402868345E+02  0.37625925283E+02  0.00000000000E+00 0. -1.
<mgrwt>
<rscale>  0 0.15818285E+03</rscale>
<asrwt>0</asrwt>
<pdfrwt beam="1">  1        1 0.88111637E-01 0.17556728E+03</pdfrwt>
<pdfrwt beam="2">  1       -1 0.35382984E-01 0.17556728E+03</pdfrwt>
<totfact> 0.29362602E+02</totfact>
</mgrwt>
</event>
<event>
 8    1  0.1273312E-005  0.1283747E+03  0.7546771E-02  0.1244291E+00
          1   -1    0    0  501    0  0.00000000000E+00  0.00000000000E+00  0.82977165454E+02  0.82977165454E+02  0.00000000000E+00 0. -1.
         -1   -1    0    0    0  501 -0.00000000000E+00 -0.00000000000E+00 -0.15965494015E+03  0.15965494015E+03  0.00000000000E+00 0.  1.
         23    2    1    2    0    0 -0.99309796220E+01  0.27473711479E+02 -0.60596694859E+02  0.11325409923E+03  0.91110385720E+02 0.  0.
         23    2    1    2    0    0  0.99309796220E+01 -0.27473711479E+02 -0.16081079838E+02  0.12937800637E+03  0.12500655273E+03 0.  0.
          5    1    4    4  502    0  0.37156303387E+02 -0.56253587949E+02  0.25053303548E+02  0.72075065434E+02  0.47000000000E+01 0. -1.
         -5    1    4    4    0  502 -0.27225323765E+02  0.28779876470E+02 -0.41134383387E+02  0.57302940940E+02  0.47000000000E+01 0. -1.
        -11    1    3    3    0    0  0.20982477362E+02  0.14989799036E+02 -0.73202388653E+02  0.77611520639E+02  0.00000000000E+00 0.  1.
         11    1    3    3    0    0 -0.30913456984E+02  0.12483912444E+02  0.12605693795E+02  0.35642578592E+02  0.00000000000E+00 0. -1.
<mgrwt>
<rscale>  0 0.11927904E+03</rscale>
<asrwt>0</asrwt>
<pdfrwt beam="1">  1        1 0.12765718E-01 0.12837471E+03</pdfrwt>
<pdfrwt beam="2">  1       -1 0.24562298E-01 0.12837471E+03</pdfrwt>
<totfact> 0.62628842E+03</totfact>
</mgrwt>
</event>
<event>
 8    1  0.1273312E-005  0.1227123E+03  0.7546771E-02  0.1247004E+00
         -1   -1    0    0    0  501 -0.00000000000E+00  0.00000000000E+00  0.45310610243E+02  0.45310610243E+02  0.00000000000E+00 0.  1.
          1   -1    0    0  501    0  0.00000000000E+00 -0.00000000000E+00 -0.29296206390E+03  0.29296206390E+03  0.00000000000E+00 0. -1.
         23    2    1    2    0    0  0.41586520696E+02 -0.14297350668E+02 -0.82564545072E+02  0.13257388099E+03  0.93941880317E+02 0.  0.
         23    2    1    2    0    0 -0.41586520696E+02  0.14297350668E+02 -0.16508690858E+03  0.20569879315E+03  0.11456200583E+03 0.  0.
          5    1    4    4  502    0 -0.24077779926E+02  0.64084160073E+02 -0.10664483461E+03  0.12681376032E+03  0.47000000000E+01 0. -1.
         -5    1    4    4    0  502 -0.17508740769E+02 -0.49786809406E+02 -0.58442073971E+02  0.78885032828E+02  0.47000000000E+01 0.  1.
        -11    1    3    3    0    0  0.25960597826E+02 -0.44927562556E+02 -0.10805802927E+02  0.53001923490E+02  0.00000000000E+00 0.  1.
         11    1    3    3    0    0  0.15625922869E+02  0.30630211888E+02 -0.71758742145E+02  0.79571957498E+02  0.00000000000E+00 0. -1.
<mgrwt>
<rscale>  0 0.11766226E+03</rscale>
<asrwt>0</asrwt>
<pdfrwt beam="2">  1        1 0.45071088E-01 0.12271229E+03</pdfrwt>
<pdfrwt beam="1">  1       -1 0.69708630E-02 0.12271229E+03</pdfrwt>
<totfact> 0.90285136E+03</totfact>
</mgrwt>
</event>
<event>
 8    1  0.1273312E-005  0.1285554E+03  0.7546771E-02  0.1243166E+00
          4   -1    0    0  501    0  0.00000000000E+00  0.00000000000E+00  0.22251163764E+03  0.22251163764E+03  0.00000000000E+00 0. -1.
         -4   -1    0    0    0  501 -0.00000000000E+00 -0.00000000000E+00 -0.83081796062E+02  0.83081796062E+02  0.00000000000E+00 0.  1.
         23    2    1    2    0    0  0.15266386147E+02 -0.25897512654E+02 -0.21311110991E+02  0.99767942861E+02  0.92713188185E+02 0.  0.
         23    2    1    2    0    0 -0.15266386147E+02  0.25897512654E+02  0.16074095257E+03  0.20582549084E+03  0.12499094023E+03 0.  0.
          5    1    4    4  502    0 -0.26736572979E+02 -0.47076182578E+02  0.73671047877E+02  0.91545205205E+02  0.47000000000E+01 0.  1.
         -5    1    4    4    0  502  0.11470186833E+02  0.72973695231E+02  0.87069904689E+02  0.11428028563E+03  0.47000000000E+01 0.  1.
        -11    1    3    3    0    0  0.90073632906E+01  0.33861956350E+02  0.25160588118E+01  0.35129691619E+02  0.00000000000E+00 0. -1.
         11    1    3    3    0    0  0.62590228562E+01 -0.59759469004E+02 -0.23827169803E+02  0.64638251241E+02  0.00000000000E+00 0.  1.
<mgrwt>
<rscale>  0 0.11995824E+03</rscale>
<asrwt>0</asrwt>
<pdfrwt beam="1">  1        4 0.34232559E-01 0.12855535E+03</pdfrwt>
<pdfrwt beam="2">  1       -4 0.12781815E-01 0.12855535E+03</pdfrwt>
<totfact> 0.67326228E+02</totfact>
</mgrwt>
</event>
<event>
 8    1  0.1273312E-005  0.1374618E+03  0.7546771E-02  0.1232900E+00
          2   -1    0    0  501    0  0.00000000000E+00  0.00000000000E+00  0.12447677732E+03  0.12447677732E+03  0.00000000000E+00 0. -1.
         -2   -1    0    0    0  501 -0.00000000000E+00 -0.00000000000E+00 -0.11883030521E+03  0.11883030521E+03  0.00000000000E+00 0.  1.
         23    2    1    2    0    0  0.55380178441E+02  0.14276555353E+02 -0.27223457271E+02  0.10197001519E+03  0.79912346823E+02 0.  0.
         23    2    1    2    0    0 -0.55380178441E+02 -0.14276555353E+02  0.32869929384E+02  0.14133706735E+03  0.12499980061E+03 0.  0.
          5    1    4    4  502    0 -0.89468168407E+02 -0.44781204630E+01  0.48861349185E+02  0.10214758032E+03  0.47000000000E+01 0. -1.
         -5    1    4    4    0  502  0.34087989966E+02 -0.97984348901E+01 -0.15991419801E+02  0.39189487027E+02  0.47000000000E+01 0. -1.
        -11    1    3    3    0    0  0.22103427854E+02  0.35263478345E+02 -0.42761374262E+02  0.59670843438E+02  0.00000000000E+00 0.  1.
         11    1    3    3    0    0  0.33276750587E+02 -0.20986922992E+02  0.15537916990E+02  0.42299171750E+02  0.00000000000E+00 0. -1.
<mgrwt>
<rscale>  0 0.12639805E+03</rscale>
<asrwt>0</asrwt>
<pdfrwt beam="1">  1        2 0.19150273E-01 0.13746176E+03</pdfrwt>
<pdfrwt beam="2">  1       -2 0.18281585E-01 0.13746176E+03</pdfrwt>
<totfact> 0.67943892E+03</totfact>
</mgrwt>
</event>
<event>
 8    1  0.1273312E-005  0.1390248E+03  0.7546771E-02  0.1234556E+00
         -1   -1    0    0    0  501 -0.00000000000E+00  0.00000000000E+00  0.19226717600E+02  0.19226717600E+02  0.00000000000E+00 0.  1.
          1   -1    0    0  501    0  0.00000000000E+00 -0.00000000000E+00 -0.83492308824E+03  0.83492308824E+03  0.00000000000E+00 0. -1.
         23    2    1    2    0    0 -0.25682909682E+02  0.55187071993E+02 -0.16557475104E+03  0.18932951466E+03  0.68741851695E+02 0.  0.
         23    2    1    2    0    0  0.25682909682E+02 -0.55187071993E+02 -0.65012161960E+03  0.66482029118E+03  0.12499069777E+03 0.  0.
          5    1    4    4  502    0 -0.32647752731E+02 -0.39937686063E+01 -0.43162720107E+03  0.43290409637E+03  0.47000000000E+01 0.  1.
         -5    1    4    4    0  502  0.58330662413E+02 -0.51193303387E+02 -0.21849441853E+03  0.23191619482E+03  0.47000000000E+01 0.  1.
        -11    1    3    3    0    0 -0.20205682100E+02 -0.71434591427E+00 -0.10415322632E+03  0.10609747609E+03  0.00000000000E+00 0. -1.
         11    1    3    3    0    0 -0.54772275820E+01  0.55901417908E+02 -0.61421524722E+02  0.83232038574E+02  0.00000000000E+00 0.  1.
<mgrwt>
<rscale>  0 0.12532912E+03</rscale>
<asrwt>0</asrwt>
<pdfrwt beam="2">  1        1 0.12844967E+00 0.13902482E+03</pdfrwt>
<pdfrwt beam="1">  1       -1 0.29579573E-02 0.13902482E+03</pdfrwt>
<totfact> 0.80192564E+03</totfact>
</mgrwt>
</event>
<event>
 8    1  0.1273312E-005  0.1505086E+03  0.7546771E-02  0.1208885E+00
         -2   -1    0    0    0  501 -0.00000000000E+00  0.00000000000E+00  0.29381359366E+02  0.29381359366E+02  0.00000000000E+00 0.  1.
          2   -1    0    0  501    0  0.00000000000E+00 -0.00000000000E+00 -0.64658909081E+03  0.64658909081E+03  0.00000000000E+00 0. -1.
         23    2    1    2    0    0 -0.79724585051E+02  0.25898218742E+02 -0.24644558182E+03  0.27582372927E+03  0.91195271996E+02 0.  0.
         23    2    1    2    0    0  0.79724585051E+02 -0.25898218742E+02 -0.37076214963E+03  0.40014672091E+03  0.12500439777E+03 0.  0.
          5    1    4    4  502    0 -0.18585168262E+02  0.18703248714E+02 -0.20884099788E+02  0.33962561973E+02  0.47000000000E+01 0.  1.
         -5    1    4    4    0  502  0.98309753314E+02 -0.44601467456E+02 -0.34987804984E+03  0.36618415894E+03  0.47000000000E+01 0.  1.
        -11    1    3    3    0    0  0.19293757659E+02 -0.38147325705E+01 -0.52177976678E+02  0.55761478813E+02  0.00000000000E+00 0.  1.
         11    1    3    3    0    0 -0.99018342710E+02  0.29712951312E+02 -0.19426760514E+03  0.22006225045E+03  0.00000000000E+00 0. -1.
<mgrwt>
<rscale>  0 0.14335431E+03</rscale>
<asrwt>0</asrwt>
<pdfrwt beam="2">  1        2 0.99475245E-01 0.15050856E+03</pdfrwt>
<pdfrwt beam="1">  1       -2 0.45202091E-02 0.15050856E+03</pdfrwt>
<totfact> 0.10147648E+04</totfact>
</mgrwt>
</event>
<event>
 8    1  0.1273312E-005  0.1415922E+03  0.7546771E-02  0.1222318E+00
         -1   -1    0    0    0  501 -0.00000000000E+00  0.00000000000E+00  0.78367969207E+02  0.78367969207E+02  0.00000000000E+00 0.  1.
          1   -1    0    0  501    0  0.00000000000E+00 -0.00000000000E+00 -0.21987890840E+03  0.21987890840E+03  0.00000000000E+00 0. -1.
         23    2    1    2    0    0 -0.66501837056E+02 -0.28400908773E+00 -0.24649229584E+02  0.11465762557E+03  0.90090019363E+02 0.  0.
         23    2    1    2    0    0  0.66501837056E+02  0.28400908773E+00 -0.11686170961E+03  0.18358925204E+03  0.12500311716E+03 0.  0.
          5    1    4    4  502    0  0.34326482884E+02 -0.28841799954E+01 -0.13954842006E+03  0.14381403778E+03  0.47000000000E+01 0.  1.
         -5    1    4    4    0  502  0.32175354173E+02  0.31681890831E+01  0.22686710451E+02  0.39775214258E+02  0.47000000000E+01 0.  1.
        -11    1    3    3    0    0 -0.70626693421E+02 -0.33713517653E+02 -0.15952257109E+02  0.79869929279E+02  0.00000000000E+00 0. -1.
         11    1    3    3    0    0  0.41248563646E+01  0.33429508565E+02 -0.86969724756E+01  0.34787696290E+02  0.00000000000E+00 0.  1.
<mgrwt>
<rscale>  0 0.13352465E+03</rscale>
<asrwt>0</asrwt>
<pdfrwt beam="2">  1        1 0.33827524E-01 0.14159221E+03</pdfrwt>
<pdfrwt beam="1">  1       -1 0.12056611E-01 0.14159221E+03</pdfrwt>
<totfact> 0.56565949E+03</totfact>
</mgrwt>
</event>
<event>
 8    1  0.1273312E-005  0.1354543E+03  0.7546771E-02  0.1231702E+00
         -2   -1    0    0    0  501 -0.00000000000E+00  0.00000000000E+00  0.25952705473E+02  0.25952705473E+02  0.00000000000E+00 0.  1.
          2   -1    0    0  501    0  0.00000000000E+00 -0.00000000000E+00 -0.56112247012E+03  0.56112247012E+03  0.00000000000E+00 0. -1.
         23    2    1    2    0    0  0.38506082778E+02  0.35237044560E+02 -0.21315527645E+03  0.23773121976E+03  0.91414403944E+02 0.  0.
         23    2    1    2    0    0 -0.38506082778E+02 -0.35237044560E+02 -0.32201448820E+03  0.34934395583E+03  0.12499400446E+03 0.  0.
          5    1    4    4  502    0 -0.47681847163E+02  0.38160057699E+02 -0.15186346429E+03  0.16375087890E+03  0.47000000000E+01 0.  1.
         -5    1    4    4    0  502  0.91757643854E+01 -0.73397102259E+02 -0.17015102390E+03  0.18559307694E+03  0.47000000000E+01 0.  1.
        -11    1    3    3    0    0  0.24680355781E+02 -0.10428237093E+02 -0.92912756974E+01  0.28358347879E+02  0.00000000000E+00 0.  1.
         11    1    3    3    0    0  0.13825726997E+02  0.45665281653E+02 -0.20386400076E+03  0.20937287188E+03  0.00000000000E+00 0. -1.
<mgrwt>
<rscale>  0 0.12717940E+03</rscale>
<asrwt>0</asrwt>
<pdfrwt beam="2">  1        2 0.86326532E-01 0.13545431E+03</pdfrwt>
<pdfrwt beam="1">  1       -2 0.39927240E-02 0.13545431E+03</pdfrwt>
<totfact> 0.14252842E+04</totfact>
</mgrwt>
</event>
<event>
 8    1  0.1273312E-005  0.1657363E+03  0.7546771E-02  0.1189408E+00
          1   -1    0    0  501    0  0.00000000000E+00  0.00000000000E+00  0.70577005345E+03  0.70577005345E+03  0.00000000000E+00 0. -1.
         -1   -1    0    0    0  501 -0.00000000000E+00 -0.00000000000E+00 -0.34533618015E+02  0.34533618015E+02  0.00000000000E+00 0.  1.
         23    2    1    2    0    0  0.32403812770E+02 -0.10388609433E+03  0.24577484167E+03  0.28370089991E+03  0.90766734709E+02 0.  0.
         23    2    1    2    0    0 -0.32403812770E+02  0.10388609433E+03  0.42546159376E+03  0.45660277156E+03  0.12500478212E+03 0.  0.
          5    1    4    4  502    0 -0.71512070443E+02  0.80584281307E+02  0.20709019811E+03  0.23348713619E+03  0.47000000000E+01 0. -1.
         -5    1    4    4    0  502  0.39108257673E+02  0.23301813023E+02  0.21837139565E+03  0.22311563537E+03  0.47000000000E+01 0. -1.
        -11    1    3    3    0    0 -0.54113740172E+01 -0.59855790414E+02  0.46050641981E+02  0.75714333133E+02  0.00000000000E+00 0.  1.
         11    1    3    3    0    0  0.37815186788E+02 -0.44030303916E+02  0.19972419969E+03  0.20798656677E+03  0.00000000000E+00 0. -1.
<mgrwt>
<rscale>  0 0.15937170E+03</rscale>
<asrwt>0</asrwt>
<pdfrwt beam="1">  1        1 0.10858000E+00 0.16573631E+03</pdfrwt>
<pdfrwt beam="2">  1       -1 0.53128648E-02 0.16573631E+03</pdfrwt>
<totfact> 0.43836346E+03</totfact>
</mgrwt>
</event>
<event>
 8    1  0.1273312E-005  0.1359754E+03  0.7546771E-02  0.1230610E+00
         -2   -1    0    0    0  501 -0.00000000000E+00  0.00000000000E+00  0.30610489096E+02  0.30610489096E+02  0.00000000000E+00 0.  1.
          2   -1    0    0  501    0  0.00000000000E+00 -0.00000000000E+00 -0.49940026099E+03  0.49940026099E+03  0.00000000000E+00 0. -1.
         23    2    1    2    0    0  0.27434645414E+01 -0.53451662840E+02 -0.15494788325E+03  0.18797852659E+03  0.91991701134E+02 0.  0.
         23    2    1    2    0    0 -0.27434645414E+01  0.53451662840E+02 -0.31384188865E+03  0.34203222350E+03  0.12499881593E+03 0.  0.
          5    1    4    4  502    0 -0.58862119740E+02  0.88776665366E+01 -0.10022466597E+03  0.11666462948E+03  0.47000000000E+01 0. -1.
         -5    1    4    4    0  502  0.56118655199E+02  0.44573996303E+02 -0.21361722268E+03  0.22536759402E+03  0.47000000000E+01 0. -1.
        -11    1    3    3    0    0  0.22713643798E+02 -0.29918757351E+02 -0.87649691915E+01  0.38572870531E+02  0.00000000000E+00 0.  1.
         11    1    3    3    0    0 -0.19970179257E+02 -0.23532905489E+02 -0.14618291405E+03  0.14940565606E+03  0.00000000000E+00 0. -1.
<mgrwt>
<rscale>  0 0.12789690E+03</rscale>
<asrwt>0</asrwt>
<pdfrwt beam="2">  1        2 0.76830812E-01 0.13597541E+03</pdfrwt>
<pdfrwt beam="1">  1       -2 0.47093058E-02 0.13597541E+03</pdfrwt>
<totfact> 0.12683275E+04</totfact>
</mgrwt>
</event>
<event>
 7    1  0.1273312E-005  0.1615130E+03  0.7546771E-02  0.1207777E+00
          2   -1    0    0  501    0  0.00000000000E+00  0.00000000000E+00  0.75525219097E+03  0.75525219097E+03  0.00000000000E+00 0. -1.
         -2   -1    0    0    0  501 -0.00000000000E+00 -0.00000000000E+00 -0.35602626051E+02  0.35602626051E+02  0.00000000000E+00 0.  1.
         23    2    1    2    0    0 -0.38842404819E+02 -0.27239874183E+02  0.77255205568E+02  0.12846749674E+03  0.91020809562E+02 0.  0.
          5    1    1    2  502    0  0.10463033199E+02 -0.63152681262E+02  0.31775431768E+03  0.32417222678E+03  0.47000000000E+01 0. -1.
         -5    1    1    2    0  502  0.28379371620E+02  0.90392555445E+02  0.32464004168E+03  0.33821509351E+03  0.47000000000E+01 0.  1.
        -11    1    3    3    0    0 -0.24762356241E+02  0.24143104731E+02 -0.46913091507E-01  0.34584187044E+02  0.00000000000E+00 0.  1.
         11    1    3    3    0    0 -0.14080048578E+02 -0.51382978914E+02  0.77302118660E+02  0.93883309695E+02  0.00000000000E+00 0. -1.
<mgrwt>
<rscale>  0 0.14420744E+03</rscale>
<asrwt>0</asrwt>
<pdfrwt beam="1">  1        2 0.11619263E+00 0.16151300E+03</pdfrwt>
<pdfrwt beam="2">  1       -2 0.54773276E-02 0.16151300E+03</pdfrwt>
<totfact> 0.63364500E+03</totfact>
</mgrwt>
</event>
<event>
 7    1  0.1273312E-005  0.1638181E+03  0.7546771E-02  0.1201384E+00
         -2   -1    0    0    0  501 -0.00000000000E+00  0.00000000000E+00  0.64639884383E+02  0.64639884383E+02  0.00000000000E+00 0.  1.
          2   -1    0    0  501    0  0.00000000000E+00 -0.00000000000E+00 -0.33135727633E+03  0.33135727633E+03  0.00000000000E+00 0. -1.
         23    2    1    2    0    0  0.42584296262E+02 -0.34808619256E+02 -0.47877502822E+02  0.12263429027E+03  0.98599450363E+02 0.  0.
          5    1    1    2  502    0 -0.19218071422E+02 -0.28318733286E+01 -0.22716267650E+03  0.22804018368E+03  0.47000000000E+01 0. -1.
         -5    1    1    2    0  502 -0.23366224840E+02  0.37640492584E+02  0.83227873797E+01  0.45322686758E+02  0.47000000000E+01 0.  1.
        -11    1    3    3    0    0  0.52603036116E+02  0.14703050471E+02 -0.47085187127E+02  0.72112924976E+02  0.00000000000E+00 0.  1.
         11    1    3    3    0    0 -0.10018739854E+02 -0.49511669727E+02 -0.79231569413E+00  0.50521365298E+02  0.00000000000E+00 0. -1.
<mgrwt>
<rscale>  0 0.14926122E+03</rscale>
<asrwt>0</asrwt>
<pdfrwt beam="2">  1        2 0.50978043E-01 0.16381808E+03</pdfrwt>
<pdfrwt beam="1">  1       -2 0.99445975E-02 0.16381808E+03</pdfrwt>
<totfact> 0.63477221E+03</totfact>
</mgrwt>
</event>
<event>
 8    1  0.1273312E-005  0.1313334E+03  0.7546771E-02  0.1239094E+00
         -2   -1    0    0    0  501 -0.00000000000E+00  0.00000000000E+00  0.16994604089E+02  0.16994604089E+02  0.00000000000E+00 0.  1.
          2   -1    0    0  501    0  0.00000000000E+00 -0.00000000000E+00 -0.85191001688E+03  0.85191001688E+03  0.00000000000E+00 0. -1.
         23    2    1    2    0    0  0.72738425141E+01 -0.39640529109E+02 -0.24110254160E+03  0.26074166540E+03  0.90727615294E+02 0.  0.
         23    2    1    2    0    0 -0.72738425141E+01  0.39640529109E+02 -0.59381287119E+03  0.60816295557E+03  0.12499669676E+03 0.  0.
          5    1    4    4  502    0 -0.39231603509E+02  0.94335183010E+01 -0.52366216356E+03  0.52523543437E+03  0.47000000000E+01 0. -1.
         -5    1    4    4    0  502  0.31957760994E+02  0.30207010808E+02 -0.70150707634E+02  0.82927521193E+02  0.47000000000E+01 0. -1.
        -11    1    3    3    0    0  0.42715605904E+02 -0.44128501413E+02 -0.17705518317E+03  0.18740460376E+03  0.00000000000E+00 0. -1.
         11    1    3    3    0    0 -0.35441763390E+02  0.44879723031E+01 -0.64047358427E+02  0.73337061634E+02  0.00000000000E+00 0.  1.
<mgrwt>
<rscale>  0 0.12245956E+03</rscale>
<asrwt>0</asrwt>
<pdfrwt beam="2">  1        2 0.13106306E+00 0.13133337E+03</pdfrwt>
<pdfrwt beam="1">  1       -2 0.26145548E-02 0.13133337E+03</pdfrwt>
<totfact> 0.16164163E+04</totfact>
</mgrwt>
</event>
<event>
 8    1  0.1273312E-005  0.1509713E+03  0.7546771E-02  0.1208348E+00
         -4   -1    0    0    0  501 -0.00000000000E+00  0.00000000000E+00  0.98584628661E+02  0.98584628661E+02  0.00000000000E+00 0.  1.
          4   -1    0    0  501    0  0.00000000000E+00 -0.00000000000E+00 -0.25537893587E+03  0.25537893587E+03  0.00000000000E+00 0. -1.
         23    2    1    2    0    0  0.62605705948E+02  0.56997196735E+02  0.15233643271E+02  0.12508377802E+03  0.90806017338E+02 0.  0.
         23    2    1    2    0    0 -0.62605705948E+02 -0.56997196735E+02 -0.17202795048E+03  0.22887978651E+03  0.12499674425E+03 0.  0.
          5    1    4    4  502    0 -0.90764484238E+02 -0.69924263297E+02 -0.15619276899E+03  0.19376755477E+03  0.47000000000E+01 0.  1.
         -5    1    4    4    0  502  0.28158778290E+02  0.12927066562E+02 -0.15835181488E+02  0.35112231736E+02  0.47000000000E+01 0.  1.
        -11    1    3    3    0    0  0.79131585540E+02  0.21503636549E+02  0.23006221311E+02  0.85167484605E+02  0.00000000000E+00 0.  1.
         11    1    3    3    0    0 -0.16525879593E+02  0.35493560186E+02 -0.77725780399E+01  0.39916293419E+02  0.00000000000E+00 0. -1.
<mgrwt>
<rscale>  0 0.14376722E+03</rscale>
<asrwt>0</asrwt>
<pdfrwt beam="2">  1        4 0.39289067E-01 0.15097132E+03</pdfrwt>
<pdfrwt beam="1">  1       -4 0.15166866E-01 0.15097132E+03</pdfrwt>
<totfact> 0.39485553E+02</totfact>
</mgrwt>
</event>
<event>
 8    1  0.1273312E-005  0.1477178E+03  0.7546771E-02  0.1212458E+00
         -1   -1    0    0    0  501 -0.00000000000E+00  0.00000000000E+00  0.24546465542E+02  0.24546465542E+02  0.00000000000E+00 0.  1.
          1   -1    0    0  501    0  0.00000000000E+00 -0.00000000000E+00 -0.77258248330E+03  0.77258248330E+03  0.00000000000E+00 0. -1.
         23    2    1    2    0    0  0.19074922064E-01 -0.78715156798E+02 -0.25476624306E+03  0.28221574558E+03  0.92432744056E+02 0.  0.
         23    2    1    2    0    0 -0.19074922064E-01  0.78715156798E+02 -0.49326977469E+03  0.51491320326E+03  0.12499783996E+03 0.  0.
          5    1    4    4  502    0  0.22123972565E+02 -0.74230971498E+01 -0.14377752341E+02  0.27809751810E+02  0.47000000000E+01 0.  1.
         -5    1    4    4    0  502 -0.22143047487E+02  0.86138253948E+02 -0.47889202235E+03  0.48710345145E+03  0.47000000000E+01 0.  1.
        -11    1    3    3    0    0 -0.15952917174E+02 -0.39978129045E+02 -0.27408279799E+02  0.51029013021E+02  0.00000000000E+00 0.  1.
         11    1    3    3    0    0  0.15971992096E+02 -0.38737027752E+02 -0.22735796326E+03  0.23118673255E+03  0.00000000000E+00 0. -1.
<mgrwt>
<rscale>  0 0.14064889E+03</rscale>
<asrwt>0</asrwt>
<pdfrwt beam="2">  1        1 0.11885883E+00 0.14771776E+03</pdfrwt>
<pdfrwt beam="1">  1       -1 0.37763797E-02 0.14771776E+03</pdfrwt>
<totfact> 0.63290156E+03</totfact>
</mgrwt>
</event>
<event>
 8    1  0.1273312E-005  0.1378369E+03  0.7546771E-02  0.1228915E+00
         -2   -1    0    0    0  501 -0.00000000000E+00  0.00000000000E+00  0.42353890089E+02  0.42353890089E+02  0.00000000000E+00 0.  1.
          2   -1    0    0  501    0  0.00000000000E+00 -0.00000000000E+00 -0.40715800662E+03  0.40715800662E+03  0.00000000000E+00 0. -1.
         23    2    1    2    0    0 -0.15750441701E+02  0.55912161697E+02 -0.78496267112E+02  0.13175224091E+03  0.88446270667E+02 0.  0.
         23    2    1    2    0    0  0.15750441701E+02 -0.55912161697E+02 -0.28630784942E+03  0.31775965580E+03  0.12499907190E+03 0.  0.
          5    1    4    4  502    0  0.11299722355E+02 -0.71836829309E+02 -0.29096375710E+03  0.29995034875E+03  0.47000000000E+01 0.  1.
         -5    1    4    4    0  502  0.44507193464E+01  0.15924667612E+02  0.46559076788E+01  0.17809307049E+02  0.47000000000E+01 0.  1.
        -11    1    3    3    0    0 -0.72868712005E+01  0.39547967894E+02  0.99345843848E+01  0.41422653504E+02  0.00000000000E+00 0.  1.
         11    1    3    3    0    0 -0.84635705006E+01  0.16364193803E+02 -0.88430851497E+02  0.90329587405E+02  0.00000000000E+00 0. -1.
<mgrwt>
<rscale>  0 0.12902142E+03</rscale>
<asrwt>0</asrwt>
<pdfrwt beam="2">  1        2 0.62639695E-01 0.13783691E+03</pdfrwt>
<pdfrwt beam="1">  1       -2 0.65159830E-02 0.13783691E+03</pdfrwt>
<totfact> 0.96994660E+03</totfact>
</mgrwt>
</event>
<event>
 8    1  0.1273312E-005  0.1304922E+03  0.7546771E-02  0.1241607E+00
         -1   -1    0    0    0  501 -0.00000000000E+00  0.00000000000E+00  0.38076127747E+02  0.38076127747E+02  0.00000000000E+00 0.  1.
          1   -1    0    0  501    0  0.00000000000E+00 -0.00000000000E+00 -0.35209915938E+03  0.35209915938E+03  0.00000000000E+00 0. -1.
         23    2    1    2    0    0  0.20713645388E+02 -0.31207247339E+02 -0.94735593008E+02  0.13499848875E+03  0.88582232926E+02 0.  0.
         23    2    1    2    0    0 -0.20713645388E+02  0.31207247339E+02 -0.21928743862E+03  0.25517679837E+03  0.12500108119E+03 0.  0.
          5    1    4    4  502    0 -0.38700695751E+02  0.41968927697E+02 -0.22562295887E+03  0.23278089335E+03  0.47000000000E+01 0. -1.
         -5    1    4    4    0  502  0.17987050363E+02 -0.10761680357E+02  0.63355202451E+01  0.22395905019E+02  0.47000000000E+01 0. -1.
        -11    1    3    3    0    0 -0.14617166108E+02 -0.49670784485E+02 -0.73281972915E+02  0.89727899400E+02  0.00000000000E+00 0.  1.
         11    1    3    3    0    0  0.35330811496E+02  0.18463537146E+02 -0.21453620093E+02  0.45270589349E+02  0.00000000000E+00 0. -1.
<mgrwt>
<rscale>  0 0.12090792E+03</rscale>
<asrwt>0</asrwt>
<pdfrwt beam="2">  1        1 0.54169100E-01 0.13049221E+03</pdfrwt>
<pdfrwt beam="1">  1       -1 0.58578660E-02 0.13049221E+03</pdfrwt>
<totfact> 0.93612517E+03</totfact>
</mgrwt>
</event>
<event>
 8    1  0.1273312E-005  0.2890042E+03  0.7546771E-02  0.1092713E+00
         -2   -1    0    0    0  501 -0.00000000000E+00  0.00000000000E+00  0.72753027371E+02  0.72753027371E+02  0.00000000000E+00 0.  1.
          2   -1    0    0  501    0  0.00000000000E+00 -0.00000000000E+00 -0.12022074669E+04  0.12022074669E+04  0.00000000000E+00 0. -1.
         23    2    1    2    0    0 -0.81588934833E+02  0.24746868518E+03 -0.36130823971E+03  0.45424615013E+03  0.88873035275E+02 0.  0.
         23    2    1    2    0    0  0.81588934833E+02 -0.24746868518E+03 -0.76814619978E+03  0.82071434409E+03  0.12500378368E+03 0.  0.
          5    1    4    4  502    0 -0.20189617425E+02 -0.94621951940E+02 -0.36598409298E+03  0.37858602821E+03  0.47000000000E+01 0.  1.
         -5    1    4    4    0  502  0.10177855226E+03 -0.15284673324E+03 -0.40216210680E+03  0.44212831588E+03  0.47000000000E+01 0.  1.
        -11    1    3    3    0    0 -0.27929319614E+02  0.17349699883E+02 -0.82294197676E+02  0.88619376839E+02  0.00000000000E+00 0. -1.
         11    1    3    3    0    0 -0.53659615219E+02  0.23011898530E+03 -0.27901404203E+03  0.36562677329E+03  0.00000000000E+00 0.  1.
<mgrwt>
<rscale>  0 0.28551826E+03</rscale>
<asrwt>0</asrwt>
<pdfrwt beam="2">  1        2 0.18495500E+00 0.28900424E+03</pdfrwt>
<pdfrwt beam="1">  1       -2 0.11192773E-01 0.28900424E+03</pdfrwt>
<totfact> 0.11035560E+03</totfact>
</mgrwt>
</event>
<event>
 8    1  0.1273312E-005  0.1316936E+03  0.7546771E-02  0.1241666E+00
          1   -1    0    0  501    0  0.00000000000E+00  0.00000000000E+00  0.57375770404E+03  0.57375770404E+03  0.00000000000E+00 0. -1.
         -1   -1    0    0    0  501 -0.00000000000E+00 -0.00000000000E+00 -0.22856637674E+02  0.22856637674E+02  0.00000000000E+00 0.  1.
         23    2    1    2    0    0  0.96923594045E+01 -0.40324096276E+02  0.17629674278E+03  0.19953551026E+03  0.83749052363E+02 0.  0.
         23    2    1    2    0    0 -0.96923594045E+01  0.40324096276E+02  0.37460432358E+03  0.39707883145E+03  0.12499289805E+03 0.  0.
          5    1    4    4  502    0 -0.81899748163E+00  0.64791692547E+02  0.36199556245E+03  0.36777916120E+03  0.47000000000E+01 0. -1.
         -5    1    4    4    0  502 -0.88733619229E+01 -0.24467596272E+02  0.12608761136E+02  0.29299670246E+02  0.47000000000E+01 0. -1.
        -11    1    3    3    0    0 -0.33420282814E+02 -0.36406031496E+02  0.10642999419E+03  0.11734418646E+03  0.00000000000E+00 0. -1.
         11    1    3    3    0    0  0.43112642219E+02 -0.39180647801E+01  0.69866748584E+02  0.82191323803E+02  0.00000000000E+00 0.  1.
<mgrwt>
<rscale>  0 0.12087162E+03</rscale>
<asrwt>0</asrwt>
<pdfrwt beam="1">  1        1 0.88270405E-01 0.13169358E+03</pdfrwt>
<pdfrwt beam="2">  1       -1 0.35164062E-02 0.13169358E+03</pdfrwt>
<totfact> 0.10614350E+04</totfact>
</mgrwt>
</event>
<event>
 8    1  0.1273312E-005  0.1405501E+03  0.7546771E-02  0.1223522E+00
          1   -1    0    0  501    0  0.00000000000E+00  0.00000000000E+00  0.54855436919E+03  0.54855436919E+03  0.00000000000E+00 0. -1.
         -1   -1    0    0    0  501 -0.00000000000E+00 -0.00000000000E+00 -0.33531203731E+02  0.33531203731E+02  0.00000000000E+00 0.  1.
         23    2    1    2    0    0  0.42877550109E+02 -0.47852862816E+02  0.12544154866E+03  0.16792598742E+03  0.91297175961E+02 0.  0.
         23    2    1    2    0    0 -0.42877550109E+02  0.47852862816E+02  0.38958161681E+03  0.41415958550E+03  0.12500378126E+03 0.  0.
          5    1    4    4  502    0  0.39114232835E+02  0.39151365137E+02  0.19552252930E+03  0.20325821525E+03  0.47000000000E+01 0. -1.
         -5    1    4    4    0  502 -0.81991782944E+02  0.87014976788E+01  0.19405908751E+03  0.21090137026E+03  0.47000000000E+01 0. -1.
        -11    1    3    3    0    0  0.38660062820E+02 -0.74733523339E+02  0.89421463544E+02  0.12278394891E+03  0.00000000000E+00 0.  1.
         11    1    3    3    0    0  0.42174872894E+01  0.26880660523E+02  0.36020085113E+02  0.45142038509E+02  0.00000000000E+00 0. -1.
<mgrwt>
<rscale>  0 0.13268706E+03</rscale>
<asrwt>0</asrwt>
<pdfrwt beam="1">  1        1 0.84392973E-01 0.14055008E+03</pdfrwt>
<pdfrwt beam="2">  1       -1 0.51586471E-02 0.14055008E+03</pdfrwt>
<totfact> 0.64395883E+03</totfact>
</mgrwt>
</event>
<event>
 8    1  0.1273312E-005  0.1622879E+03  0.7546771E-02  0.1195418E+00
          2   -1    0    0  501    0  0.00000000000E+00  0.00000000000E+00  0.33437943419E+02  0.33437943419E+02  0.00000000000E+00 0. -1.
         -2   -1    0    0    0  501 -0.00000000000E+00 -0.00000000000E+00 -0.66086966470E+03  0.66086966470E+03  0.00000000000E+00 0.  1.
         23    2    1    2    0    0 -0.10027038674E+03 -0.25599459127E+02 -0.32945979439E+03  0.35500740755E+03  0.82322661108E+02 0.  0.
         23    2    1    2    0    0  0.10027038674E+03  0.25599459127E+02 -0.29797192689E+03  0.33930020057E+03  0.12501149598E+03 0.  0.
          5    1    4    4  502    0  0.12627959238E+03  0.28106135595E+01 -0.24793502816E+03  0.27829535244E+03  0.47000000000E+01 0.  1.
         -5    1    4    4    0  502 -0.26009205645E+02  0.22788845567E+02 -0.50036898729E+02  0.61004848127E+02  0.47000000000E+01 0.  1.
        -11    1    3    3    0    0 -0.38173330300E+02 -0.49805298891E+02 -0.12342653559E+03  0.13846256040E+03  0.00000000000E+00 0. -1.
         11    1    3    3    0    0 -0.62097056440E+02  0.24205839765E+02 -0.20603325881E+03  0.21654484716E+03  0.00000000000E+00 0.  1.
<mgrwt>
<rscale>  0 0.15418866E+03</rscale>
<asrwt>0</asrwt>
<pdfrwt beam="1">  1        2 0.51442988E-02 0.16228788E+03</pdfrwt>
<pdfrwt beam="2">  1       -2 0.10167226E+00 0.16228788E+03</pdfrwt>
<totfact> 0.12198943E+03</totfact>
</mgrwt>
</event>
<event>
 8    1  0.1273312E-005  0.1742431E+03  0.7546771E-02  0.1179954E+00
          2   -1    0    0  501    0  0.00000000000E+00  0.00000000000E+00  0.22577129095E+04  0.22577129095E+04  0.00000000000E+00 0. -1.
         -2   -1    0    0    0  501 -0.00000000000E+00 -0.00000000000E+00 -0.14378696807E+02  0.14378696807E+02  0.00000000000E+00 0.  1.
         23    2    1    2    0    0  0.33132636662E+02 -0.11680384127E+03  0.56434350083E+03  0.58408376188E+03  0.89046869808E+02 0.  0.
         23    2    1    2    0    0 -0.33132636662E+02  0.11680384127E+03  0.16789907119E+04  0.16880078444E+04  0.12497905168E+03 0.  0.
          5    1    4    4  502    0 -0.16579903680E+02 -0.19080153461E+02  0.57171234459E+03  0.57229017152E+03  0.47000000000E+01 0.  1.
         -5    1    4    4    0  502 -0.16552732982E+02  0.13588399473E+03  0.11072783673E+04  0.11157176729E+04  0.47000000000E+01 0.  1.
        -11    1    3    3    0    0  0.27834844925E+02 -0.17023648364E+02  0.47225781223E+02  0.57400850235E+02  0.00000000000E+00 0. -1.
         11    1    3    3    0    0  0.52977917373E+01 -0.99780192905E+02  0.51711771960E+03  0.52668291165E+03  0.00000000000E+00 0.  1.
<mgrwt>
<rscale>  0 0.16799595E+03</rscale>
<asrwt>0</asrwt>
<pdfrwt beam="1">  1        2 0.34734017E+00 0.17424314E+03</pdfrwt>
<pdfrwt beam="2">  1       -2 0.22121090E-02 0.17424314E+03</pdfrwt>
<totfact> 0.36211725E+03</totfact>
</mgrwt>
</event>
<event>
 8    1  0.1273312E-005  0.1456044E+03  0.7546771E-02  0.1215830E+00
          1   -1    0    0  501    0  0.00000000000E+00  0.00000000000E+00  0.32021104895E+03  0.32021104895E+03  0.00000000000E+00 0. -1.
         -1   -1    0    0    0  501 -0.00000000000E+00 -0.00000000000E+00 -0.54296958062E+02  0.54296958062E+02  0.00000000000E+00 0.  1.
         23    2    1    2    0    0  0.61414863860E+02  0.42446235509E+02  0.12382727314E+03  0.17106435605E+03  0.91413083994E+02 0.  0.
         23    2    1    2    0    0 -0.61414863860E+02 -0.42446235509E+02  0.14208681775E+03  0.20344365096E+03  0.12500874740E+03 0.  0.
          5    1    4    4  502    0  0.30507999650E+02  0.14563747350E+02  0.17398694923E+02  0.38309859886E+02  0.47000000000E+01 0. -1.
         -5    1    4    4    0  502 -0.91922863510E+02 -0.57009982859E+02  0.12468812282E+03  0.16513379107E+03  0.47000000000E+01 0. -1.
        -11    1    3    3    0    0  0.45553032725E+02  0.45476822523E+02  0.13625055518E+03  0.15068986019E+03  0.00000000000E+00 0. -1.
         11    1    3    3    0    0  0.15861831135E+02 -0.30305870136E+01 -0.12423282044E+02  0.20374495855E+02  0.00000000000E+00 0.  1.
<mgrwt>
<rscale>  0 0.13815741E+03</rscale>
<asrwt>0</asrwt>
<pdfrwt beam="1">  1        1 0.49263237E-01 0.14560445E+03</pdfrwt>
<pdfrwt beam="2">  1       -1 0.83533784E-02 0.14560445E+03</pdfrwt>
<totfact> 0.62320231E+03</totfact>
</mgrwt>
</event>
<event>
 8    1  0.1273312E-005  0.1328284E+03  0.7546771E-02  0.1236789E+00
         -2   -1    0    0    0  501 -0.00000000000E+00  0.00000000000E+00  0.22912430613E+03  0.22912430613E+03  0.00000000000E+00 0.  1.
          2   -1    0    0  501    0  0.00000000000E+00 -0.00000000000E+00 -0.94070782953E+02  0.94070782953E+02  0.00000000000E+00 0. -1.
         23    2    1    2    0    0  0.42785760617E+02  0.13461638173E+02  0.15908410211E+03  0.18821044359E+03  0.90019900668E+02 0.  0.
         23    2    1    2    0    0 -0.42785760617E+02 -0.13461638173E+02 -0.24030578938E+02  0.13498464549E+03  0.12502619238E+03 0.  0.
          5    1    4    4  502    0 -0.74093634037E+02  0.21240187084E+02  0.87337346740E+01  0.77713449760E+02  0.47000000000E+01 0. -1.
         -5    1    4    4    0  502  0.31307873420E+02 -0.34701825257E+02 -0.32764313613E+02  0.57271195734E+02  0.47000000000E+01 0. -1.
        -11    1    3    3    0    0  0.50145142794E+02  0.29847634742E+02  0.15991352264E+03  0.17022852689E+03  0.00000000000E+00 0.  1.
         11    1    3    3    0    0 -0.73593821770E+01 -0.16385996569E+02 -0.82942052566E+00  0.17981916694E+02  0.00000000000E+00 0. -1.
<mgrwt>
<rscale>  0 0.12390568E+03</rscale>
<asrwt>0</asrwt>
<pdfrwt beam="2">  1        2 0.14472428E-01 0.13282841E+03</pdfrwt>
<pdfrwt beam="1">  1       -2 0.35249893E-01 0.13282841E+03</pdfrwt>
<totfact> 0.29630878E+03</totfact>
</mgrwt>
</event>
<event>
 8    1  0.1273312E-005  0.1408805E+03  0.7546771E-02  0.1224405E+00
          2   -1    0    0  501    0  0.00000000000E+00  0.00000000000E+00  0.15443900886E+04  0.15443900886E+04  0.00000000000E+00 0. -1.
         -2   -1    0    0    0  501 -0.00000000000E+00 -0.00000000000E+00 -0.11312359291E+02  0.11312359291E+02  0.00000000000E+00 0.  1.
         23    2    1    2    0    0 -0.26350981273E+02  0.59392895319E+02  0.42538660130E+03  0.43908838566E+03  0.87309562087E+02 0.  0.
         23    2    1    2    0    0  0.26350981273E+02 -0.59392895319E+02  0.11076911280E+04  0.11166140622E+04  0.12500175464E+03 0.  0.
          5    1    4    4  502    0  0.62792788014E+02 -0.28655914646E+02  0.93028602433E+03  0.93285490444E+03  0.47000000000E+01 0. -1.
         -5    1    4    4    0  502 -0.36441806741E+02 -0.30736980674E+02  0.17740510368E+03  0.18375915778E+03  0.47000000000E+01 0. -1.
        -11    1    3    3    0    0 -0.50307879977E+02  0.58003451261E+02  0.38070533590E+03  0.38837074546E+03  0.00000000000E+00 0.  1.
         11    1    3    3    0    0  0.23956898703E+02  0.13894440586E+01  0.44681265398E+02  0.50717640204E+02  0.00000000000E+00 0. -1.
<mgrwt>
<rscale>  0 0.13207769E+03</rscale>
<asrwt>0</asrwt>
<pdfrwt beam="1">  1        2 0.23759831E+00 0.14088055E+03</pdfrwt>
<pdfrwt beam="2">  1       -2 0.17403642E-02 0.14088055E+03</pdfrwt>
<totfact> 0.11945171E+04</totfact>
</mgrwt>
</event>
<event>
 8    1  0.1273312E-005  0.1902970E+03  0.7546771E-02  0.1162906E+00
          2   -1    0    0  501    0  0.00000000000E+00  0.00000000000E+00  0.44912765844E+03  0.44912765844E+03  0.00000000000E+00 0. -1.
         -2   -1    0    0    0  501 -0.00000000000E+00 -0.00000000000E+00 -0.92279032704E+02  0.92279032704E+02  0.00000000000E+00 0.  1.
         23    2    1    2    0    0  0.44959886334E+02 -0.13625908195E+03  0.45500072298E+02  0.17650825245E+03  0.92179052986E+02 0.  0.
         23    2    1    2    0    0 -0.44959886334E+02  0.13625908195E+03  0.31134855344E+03  0.36489843870E+03  0.12500008018E+03 0.  0.
          5    1    4    4  502    0  0.35438491389E+01 -0.19036445587E+02  0.77248622859E+02  0.79777094839E+02  0.47000000000E+01 0. -1.
         -5    1    4    4    0  502 -0.48503735473E+02  0.15529552754E+03  0.23409993058E+03  0.28512134386E+03  0.47000000000E+01 0. -1.
        -11    1    3    3    0    0  0.34376433951E+02 -0.14937097201E+03  0.37202917635E+02  0.15772597621E+03  0.00000000000E+00 0.  1.
         11    1    3    3    0    0  0.10583452383E+02  0.13111890058E+02  0.82971546635E+01  0.18782276240E+02  0.00000000000E+00 0. -1.
<mgrwt>
<rscale>  0 0.18515371E+03</rscale>
<asrwt>0</asrwt>
<pdfrwt beam="1">  1        2 0.69096562E-01 0.19029700E+03</pdfrwt>
<pdfrwt beam="2">  1       -2 0.14196774E-01 0.19029700E+03</pdfrwt>
<totfact> 0.25995170E+03</totfact>
</mgrwt>
</event>
<event>
 8    1  0.1273312E-005  0.1230019E+03  0.7546771E-02  0.1248012E+00
          2   -1    0    0  501    0  0.00000000000E+00  0.00000000000E+00  0.48180983570E+03  0.48180983570E+03  0.00000000000E+00 0. -1.
         -2   -1    0    0    0  501 -0.00000000000E+00 -0.00000000000E+00 -0.28701706586E+02  0.28701706586E+02  0.00000000000E+00 0.  1.
         23    2    1    2    0    0  0.23675233264E+02  0.47184169822E+02  0.12863204529E+03  0.16350406072E+03  0.86026229981E+02 0.  0.
         23    2    1    2    0    0 -0.23675233264E+02 -0.47184169822E+02  0.32447608383E+03  0.34700748157E+03  0.11109725801E+03 0.  0.
          5    1    4    4  502    0 -0.46569397965E+02  0.16811331057E+02  0.89919402441E+02  0.10275659888E+03  0.47000000000E+01 0. -1.
         -5    1    4    4    0  502  0.22894164701E+02 -0.63995500879E+02  0.23455668138E+03  0.24425088268E+03  0.47000000000E+01 0.  1.
        -11    1    3    3    0    0  0.52760365841E+02  0.12755336018E+02  0.84452173165E+02  0.10039185402E+03  0.00000000000E+00 0.  1.
         11    1    3    3    0    0 -0.29085132577E+02  0.34428833803E+02  0.44179872128E+02  0.63112206706E+02  0.00000000000E+00 0. -1.
<mgrwt>
<rscale>  0 0.11706892E+03</rscale>
<asrwt>0</asrwt>
<pdfrwt beam="1">  1        2 0.74124584E-01 0.12300188E+03</pdfrwt>
<pdfrwt beam="2">  1       -2 0.44156475E-02 0.12300188E+03</pdfrwt>
<totfact> 0.14407279E+04</totfact>
</mgrwt>
</event>
<event>
 8    1  0.1273312E-005  0.1574070E+03  0.7546771E-02  0.1196773E+00
         -1   -1    0    0    0  501 -0.00000000000E+00  0.00000000000E+00  0.54019062053E+02  0.54019062053E+02  0.00000000000E+00 0.  1.
          1   -1    0    0  501    0  0.00000000000E+00 -0.00000000000E+00 -0.49474770670E+03  0.49474770670E+03  0.00000000000E+00 0. -1.
         23    2    1    2    0    0  0.30556010973E+02  0.10143467867E+03 -0.97526795885E+02  0.17118967935E+03  0.92583835291E+02 0.  0.
         23    2    1    2    0    0 -0.30556010973E+02 -0.10143467867E+03 -0.34320184876E+03  0.37757708940E+03  0.11642287405E+03 0.  0.
          5    1    4    4  502    0  0.25882946030E+01 -0.88335175648E+02 -0.32586292230E+03  0.33766630962E+03  0.47000000000E+01 0. -1.
         -5    1    4    4    0  502 -0.33144305576E+02 -0.13099503024E+02 -0.17338926465E+02  0.39910779778E+02  0.47000000000E+01 0.  1.
        -11    1    3    3    0    0 -0.31147206176E+02  0.26195168387E+02 -0.14270054105E+02  0.43127366526E+02  0.00000000000E+00 0.  1.
         11    1    3    3    0    0  0.61703217148E+02  0.75239510286E+02 -0.83256741780E+02  0.12806231283E+03  0.00000000000E+00 0. -1.
<mgrwt>
<rscale>  0 0.15305087E+03</rscale>
<asrwt>0</asrwt>
<pdfrwt beam="2">  1        1 0.76115032E-01 0.15740695E+03</pdfrwt>
<pdfrwt beam="1">  1       -1 0.83106249E-02 0.15740695E+03</pdfrwt>
<totfact> 0.36309902E+03</totfact>
</mgrwt>
</event>
<event>
 8    1  0.1273312E-005  0.1918271E+03  0.7546771E-02  0.1161583E+00
         -2   -1    0    0    0  501 -0.00000000000E+00  0.00000000000E+00  0.16448884571E+03  0.16448884571E+03  0.00000000000E+00 0.  1.
          2   -1    0    0  501    0  0.00000000000E+00 -0.00000000000E+00 -0.53874068956E+03  0.53874068956E+03  0.00000000000E+00 0. -1.
         23    2    1    2    0    0 -0.12196509676E+03 -0.79351031328E+02  0.95048835829E+02  0.19623767213E+03  0.91120095323E+02 0.  0.
         23    2    1    2    0    0  0.12196509676E+03  0.79351031328E+02 -0.46930067968E+03  0.50699186313E+03  0.12500220132E+03 0.  0.
          5    1    4    4  502    0  0.32905999501E+02  0.54595116714E+02 -0.61078426100E+02  0.88408685699E+02  0.47000000000E+01 0. -1.
         -5    1    4    4    0  502  0.89059097255E+02  0.24755914614E+02 -0.40822225358E+03  0.41858317743E+03  0.47000000000E+01 0. -1.
        -11    1    3    3    0    0 -0.92669434655E+02 -0.27326736184E+02  0.96447645996E+02  0.13651565129E+03  0.00000000000E+00 0. -1.
         11    1    3    3    0    0 -0.29295662101E+02 -0.52024295144E+02 -0.13988101669E+01  0.59722020839E+02  0.00000000000E+00 0.  1.
<mgrwt>
<rscale>  0 0.18657954E+03</rscale>
<asrwt>0</asrwt>
<pdfrwt beam="2">  1        2 0.82883184E-01 0.19182706E+03</pdfrwt>
<pdfrwt beam="1">  1       -2 0.25305976E-01 0.19182706E+03</pdfrwt>
<totfact> 0.79748087E+02</totfact>
</mgrwt>
</event>
<event>
 8    1  0.3311854E-005  0.1931401E+03  0.7546771E-02  0.1163589E+00
         -2   -1    0    0    0  501 -0.00000000000E+00  0.00000000000E+00  0.22746330807E+03  0.22746330807E+03  0.00000000000E+00 0. -1.
          2   -1    0    0  501    0  0.00000000000E+00 -0.00000000000E+00 -0.13750422308E+03  0.13750422308E+03  0.00000000000E+00 0.  1.
         23    2    1    2    0    0  0.14723036117E+03  0.11444709095E+01  0.41022656782E+02  0.16572430986E+03  0.64059343165E+02 0.  0.
         23    2    1    2    0    0 -0.14723036117E+03 -0.11444709095E+01  0.48936428211E+02  0.19924322129E+03  0.12499999265E+03 0.  0.
          5    1    4    4  502    0 -0.81837623118E+02 -0.62570433625E+02  0.30377980610E+02  0.10750519721E+03  0.47000000000E+01 0. -1.
         -5    1    4    4    0  502 -0.65392738049E+02  0.61425962715E+02  0.18558447601E+02  0.91738024082E+02  0.47000000000E+01 0. -1.
        -11    1    3    3    0    0  0.31501398250E+02  0.40775134516E+00 -0.17499346266E+02  0.36037917152E+02  0.00000000000E+00 0.  1.
         11    1    3    3    0    0  0.11572896292E+03  0.73671956436E+00  0.58522003048E+02  0.12968639271E+03  0.00000000000E+00 0. -1.
<mgrwt>
<rscale>  0 0.18442433E+03</rscale>
<asrwt>0</asrwt>
<pdfrwt beam="2">  1        2 0.21154496E-01 0.19314007E+03</pdfrwt>
<pdfrwt beam="1">  1       -2 0.34994355E-01 0.19314007E+03</pdfrwt>
<totfact> 0.19713701E+03</totfact>
</mgrwt>
</event>
<event>
 8    1  0.1273312E-005  0.1385614E+03  0.7546771E-02  0.1226142E+00
         -1   -1    0    0    0  501 -0.00000000000E+00  0.00000000000E+00  0.74735369393E+02  0.74735369393E+02  0.00000000000E+00 0.  1.
          1   -1    0    0  501    0  0.00000000000E+00 -0.00000000000E+00 -0.20865752863E+03  0.20865752863E+03  0.00000000000E+00 0. -1.
         23    2    1    2    0    0  0.10151955892E+02  0.58917876265E+02 -0.71100648327E+02  0.13125540590E+03  0.92727024293E+02 0.  0.
         23    2    1    2    0    0 -0.10151955892E+02 -0.58917876265E+02 -0.62821510914E+02  0.15213749212E+03  0.12499958370E+03 0.  0.
          5    1    4    4  502    0 -0.44920584826E+02 -0.13343659312E+02 -0.79368621737E+02  0.92289654357E+02  0.47000000000E+01 0. -1.
         -5    1    4    4    0  502  0.34768628933E+02 -0.45574216953E+02  0.16547110822E+02  0.59847837767E+02  0.47000000000E+01 0. -1.
        -11    1    3    3    0    0 -0.80503543119E+01 -0.23914879092E+02 -0.12420717950E+02  0.28124791216E+02  0.00000000000E+00 0.  1.
         11    1    3    3    0    0  0.18202310204E+02  0.82832755357E+02 -0.58679930376E+02  0.10313061469E+03  0.00000000000E+00 0. -1.
<mgrwt>
<rscale>  0 0.13088958E+03</rscale>
<asrwt>0</asrwt>
<pdfrwt beam="2">  1        1 0.32101158E-01 0.13856145E+03</pdfrwt>
<pdfrwt beam="1">  1       -1 0.11497749E-01 0.13856145E+03</pdfrwt>
<totfact> 0.64861604E+03</totfact>
</mgrwt>
</event>
<event>
 8    1  0.1273312E-005  0.1544385E+03  0.7546771E-02  0.1203380E+00
         -4   -1    0    0    0  501 -0.00000000000E+00  0.00000000000E+00  0.26229752406E+03  0.26229752406E+03  0.00000000000E+00 0.  1.
          4   -1    0    0  501    0  0.00000000000E+00 -0.00000000000E+00 -0.12079797592E+03  0.12079797592E+03  0.00000000000E+00 0. -1.
         23    2    1    2    0    0 -0.89085422310E+02  0.16926469424E+02  0.18230202469E+03  0.22335797405E+03  0.91826132073E+02 0.  0.
         23    2    1    2    0    0  0.89085422310E+02 -0.16926469424E+02 -0.40802476542E+02  0.15973752593E+03  0.12501406826E+03 0.  0.
          5    1    4    4  502    0  0.51262456006E+02 -0.13370630710E+02 -0.85622026951E+02  0.10079600518E+03  0.47000000000E+01 0.  1.
         -5    1    4    4    0  502  0.37822966304E+02 -0.35558387142E+01  0.44819550409E+02  0.58941520746E+02  0.47000000000E+01 0.  1.
        -11    1    3    3    0    0 -0.36799728785E+01  0.27421492134E+02  0.10191127273E+03  0.10560013230E+03  0.00000000000E+00 0.  1.
         11    1    3    3    0    0 -0.85405449432E+02 -0.10495022711E+02  0.80390751951E+02  0.11775784175E+03  0.00000000000E+00 0. -1.
<mgrwt>
<rscale>  0 0.14765864E+03</rscale>
<asrwt>0</asrwt>
<pdfrwt beam="2">  1        4 0.18584304E-01 0.15443845E+03</pdfrwt>
<pdfrwt beam="1">  1       -4 0.40353465E-01 0.15443845E+03</pdfrwt>
<totfact> 0.26249041E+02</totfact>
</mgrwt>
</event>
<event>
 8    1  0.1273312E-005  0.1502333E+03  0.7546771E-02  0.1210332E+00
          1   -1    0    0  501    0  0.00000000000E+00  0.00000000000E+00  0.13164264312E+04  0.13164264312E+04  0.00000000000E+00 0. -1.
         -1   -1    0    0    0  501 -0.00000000000E+00 -0.00000000000E+00 -0.15025930547E+02  0.15025930547E+02  0.00000000000E+00 0.  1.
         23    2    1    2    0    0 -0.40972621299E+02 -0.68656936727E+02  0.40755764301E+03  0.42507213679E+03  0.90501704059E+02 0.  0.
         23    2    1    2    0    0  0.40972621299E+02  0.68656936727E+02  0.89384285762E+03  0.90638022494E+03  0.12719090921E+03 0.  0.
          5    1    4    4  502    0 -0.16109862570E+02  0.45110213050E+01  0.13919737625E+02  0.22264906934E+02  0.47000000000E+01 0.  1.
         -5    1    4    4    0  502  0.57082483869E+02  0.64145915422E+02  0.87992312000E+03  0.88411531801E+03  0.47000000000E+01 0.  1.
        -11    1    3    3    0    0  0.70951821536E+01 -0.70633967385E+02  0.20734855498E+03  0.21916414445E+03  0.00000000000E+00 0. -1.
         11    1    3    3    0    0 -0.48067803453E+02  0.19770306585E+01  0.20020908804E+03  0.20590799234E+03  0.00000000000E+00 0.  1.
<mgrwt>
<rscale>  0 0.14225120E+03</rscale>
<asrwt>0</asrwt>
<pdfrwt beam="1">  1        1 0.20252705E+00 0.15023335E+03</pdfrwt>
<pdfrwt beam="2">  1       -1 0.23116827E-02 0.15023335E+03</pdfrwt>
<totfact> 0.51859387E+03</totfact>
</mgrwt>
</event>
<event>
 8    1  0.1273312E-005  0.1296489E+03  0.7546771E-02  0.1241748E+00
          2   -1    0    0  501    0  0.00000000000E+00  0.00000000000E+00  0.13109852858E+04  0.13109852858E+04  0.00000000000E+00 0. -1.
         -2   -1    0    0    0  501 -0.00000000000E+00 -0.00000000000E+00 -0.14019843236E+02  0.14019843236E+02  0.00000000000E+00 0.  1.
         23    2    1    2    0    0  0.27461138415E+02  0.20706392050E+02  0.22635555638E+03  0.24657369725E+03  0.91536230382E+02 0.  0.
         23    2    1    2    0    0 -0.27461138415E+02 -0.20706392050E+02  0.10706098861E+04  0.10784314318E+04  0.12500382351E+03 0.  0.
          5    1    4    4  502    0 -0.34959920755E+02  0.48078928048E+02  0.54978149953E+03  0.55300593722E+03  0.47000000000E+01 0.  1.
         -5    1    4    4    0  502  0.74987823399E+01 -0.68785320097E+02  0.52082838662E+03  0.52542549453E+03  0.47000000000E+01 0.  1.
        -11    1    3    3    0    0 -0.21858864227E+02  0.38936831535E+02  0.11706469404E+03  0.12529177701E+03  0.00000000000E+00 0.  1.
         11    1    3    3    0    0  0.49320002642E+02 -0.18230439485E+02  0.10929086234E+03  0.12128192023E+03  0.00000000000E+00 0. -1.
<mgrwt>
<rscale>  0 0.12082135E+03</rscale>
<asrwt>0</asrwt>
<pdfrwt beam="1">  1        2 0.20168995E+00 0.12964885E+03</pdfrwt>
<pdfrwt beam="2">  1       -2 0.21569000E-02 0.12964885E+03</pdfrwt>
<totfact> 0.11566043E+04</totfact>
</mgrwt>
</event>
<event>
 8    1  0.1273312E-005  0.1719712E+03  0.7546771E-02  0.1182100E+00
         -2   -1    0    0    0  501 -0.00000000000E+00  0.00000000000E+00  0.16161924237E+02  0.16161924237E+02  0.00000000000E+00 0.  1.
          2   -1    0    0  501    0  0.00000000000E+00 -0.00000000000E+00 -0.17323902169E+04  0.17323902169E+04  0.00000000000E+00 0. -1.
         23    2    1    2    0    0 -0.11780771738E+03 -0.83350072224E+01 -0.55752962511E+03  0.57716121159E+03  0.91255962411E+02 0.  0.
         23    2    1    2    0    0  0.11780771738E+03  0.83350072224E+01 -0.11586986676E+04  0.11713909296E+04  0.12500390796E+03 0.  0.
          5    1    4    4  502    0  0.65321541393E+02  0.66500930947E+02 -0.60497492823E+03  0.61213236426E+03  0.47000000000E+01 0.  1.
         -5    1    4    4    0  502  0.52486175984E+02 -0.58165923724E+02 -0.55372373936E+03  0.55925856532E+03  0.47000000000E+01 0.  1.
        -11    1    3    3    0    0 -0.96156346149E+02  0.31910667501E+02 -0.33488119165E+03  0.34987104213E+03  0.00000000000E+00 0.  1.
         11    1    3    3    0    0 -0.21651371227E+02 -0.40245674723E+02 -0.22264843346E+03  0.22729016946E+03  0.00000000000E+00 0. -1.
<mgrwt>
<rscale>  0 0.16598582E+03</rscale>
<asrwt>0</asrwt>
<pdfrwt beam="2">  1        2 0.26652171E+00 0.17197124E+03</pdfrwt>
<pdfrwt beam="1">  1       -2 0.24864486E-02 0.17197124E+03</pdfrwt>
<totfact> 0.57105881E+03</totfact>
</mgrwt>
</event>
<event>
 7    1  0.1273312E-005  0.2094723E+03  0.7546771E-02  0.1152913E+00
         -1   -1    0    0    0  501 -0.00000000000E+00  0.00000000000E+00  0.35121436485E+03  0.35121436485E+03  0.00000000000E+00 0.  1.
          1   -1    0    0  501    0  0.00000000000E+00 -0.00000000000E+00 -0.11067768012E+03  0.11067768012E+03  0.00000000000E+00 0. -1.
         23    2    1    2    0    0 -0.13261892676E+03  0.66306123881E+01  0.18421343489E+03  0.24497970118E+03  0.91916917044E+02 0.  0.
          5    1    1    2  502    0  0.13601916536E+03  0.15862787362E+02 -0.18776403397E+02  0.13830214999E+03  0.47000000000E+01 0. -1.
         -5    1    1    2    0  502 -0.34002385967E+01 -0.22493399750E+02  0.75099653230E+02  0.78610193805E+02  0.47000000000E+01 0.  1.
        -11    1    3    3    0    0  0.13176489437E+02  0.83374349238E+01  0.15383110117E+02  0.21903715937E+02  0.00000000000E+00 0. -1.
         11    1    3    3    0    0 -0.14579541620E+03 -0.17068225357E+01  0.16883032478E+03  0.22307598524E+03  0.00000000000E+00 0.  1.
<mgrwt>
<rscale>  0 0.19628378E+03</rscale>
<asrwt>0</asrwt>
<pdfrwt beam="2">  1        1 0.17027335E-01 0.20947233E+03</pdfrwt>
<pdfrwt beam="1">  1       -1 0.54032979E-01 0.20947233E+03</pdfrwt>
<totfact> 0.11141872E+03</totfact>
</mgrwt>
</event>
<event>
 8    1  0.1273312E-005  0.1834086E+03  0.7546771E-02  0.1170083E+00
         -1   -1    0    0    0  501 -0.00000000000E+00  0.00000000000E+00  0.18794308518E+02  0.18794308518E+02  0.00000000000E+00 0.  1.
          1   -1    0    0  501    0  0.00000000000E+00 -0.00000000000E+00 -0.16054866644E+04  0.16054866644E+04  0.00000000000E+00 0. -1.
         23    2    1    2    0    0 -0.99256257008E+01 -0.13384995900E+03 -0.64628323354E+03  0.66615361769E+03  0.89801418904E+02 0.  0.
         23    2    1    2    0    0  0.99256257008E+01  0.13384995900E+03 -0.94040912231E+03  0.95812735520E+03  0.12499752751E+03 0.  0.
          5    1    4    4  502    0  0.42681253338E+02  0.11887048475E+03 -0.48246350472E+03  0.49874342594E+03  0.47000000000E+01 0.  1.
         -5    1    4    4    0  502 -0.32755627638E+02  0.14979474252E+02 -0.45794561759E+03  0.45938392926E+03  0.47000000000E+01 0.  1.
        -11    1    3    3    0    0 -0.43884271800E+02 -0.33130900437E+02 -0.23682393451E+03  0.24312355261E+03  0.00000000000E+00 0. -1.
         11    1    3    3    0    0  0.33958646100E+02 -0.10071905856E+03 -0.40945929903E+03  0.42303006508E+03  0.00000000000E+00 0.  1.
<mgrwt>
<rscale>  0 0.17766437E+03</rscale>
<asrwt>0</asrwt>
<pdfrwt beam="2">  1        1 0.24699793E+00 0.18340859E+03</pdfrwt>
<pdfrwt beam="1">  1       -1 0.28914323E-02 0.18340859E+03</pdfrwt>
<totfact> 0.24256131E+03</totfact>
</mgrwt>
</event>
<event>
 8    1  0.1273312E-005  0.1273164E+03  0.7546771E-02  0.1246365E+00
          2   -1    0    0  501    0  0.00000000000E+00  0.00000000000E+00  0.57327848803E+03  0.57327848803E+03  0.00000000000E+00 0. -1.
         -2   -1    0    0    0  501 -0.00000000000E+00 -0.00000000000E+00 -0.21620031361E+02  0.21620031361E+02  0.00000000000E+00 0.  1.
         23    2    1    2    0    0  0.17279475517E+02 -0.16927166451E+02  0.20354207571E+03  0.22423089293E+03  0.90912086762E+02 0.  0.
         23    2    1    2    0    0 -0.17279475517E+02  0.16927166451E+02  0.34811638096E+03  0.37066762646E+03  0.12499746150E+03 0.  0.
          5    1    4    4  502    0  0.38714508891E+02  0.28332663346E+02  0.60318065581E+02  0.77213418823E+02  0.47000000000E+01 0.  1.
         -5    1    4    4    0  502 -0.55993984407E+02 -0.11405496895E+02  0.28779831538E+03  0.29345420764E+03  0.47000000000E+01 0.  1.
        -11    1    3    3    0    0  0.28699383766E+02 -0.50360477787E+02  0.11205930743E+03  0.12616307198E+03  0.00000000000E+00 0. -1.
         11    1    3    3    0    0 -0.11419908250E+02  0.33433311336E+02  0.91482768287E+02  0.98067820945E+02  0.00000000000E+00 0.  1.
<mgrwt>
<rscale>  0 0.11804075E+03</rscale>
<asrwt>0</asrwt>
<pdfrwt beam="1">  1        2 0.88196679E-01 0.12731643E+03</pdfrwt>
<pdfrwt beam="2">  1       -2 0.33261591E-02 0.12731643E+03</pdfrwt>
<totfact> 0.18139848E+04</totfact>
</mgrwt>
</event>
<event>
 8    1  0.1273312E-005  0.1298024E+03  0.7546771E-02  0.1238240E+00
          2   -1    0    0  501    0  0.00000000000E+00  0.00000000000E+00  0.13420446002E+04  0.13420446002E+04  0.00000000000E+00 0. -1.
         -2   -1    0    0    0  501 -0.00000000000E+00 -0.00000000000E+00 -0.12567272016E+02  0.12567272016E+02  0.00000000000E+00 0.  1.
         23    2    1    2    0    0 -0.34995449727E+02 -0.37941164370E+00  0.31638340773E+03  0.33323635274E+03  0.98606189700E+02 0.  0.
         23    2    1    2    0    0  0.34995449727E+02  0.37941164370E+00  0.10130939205E+04  0.10213755195E+04  0.12499533857E+03 0.  0.
          5    1    4    4  502    0  0.34994660607E+02  0.26022425381E+02  0.11778105944E+03  0.12568317650E+03  0.47000000000E+01 0.  1.
         -5    1    4    4    0  502  0.78912030857E-03 -0.25643013738E+02  0.89531286106E+03  0.89569234301E+03  0.47000000000E+01 0.  1.
        -11    1    3    3    0    0 -0.39216983411E+02  0.44619349791E+02  0.17557191591E+03  0.18534928060E+03  0.00000000000E+00 0. -1.
         11    1    3    3    0    0  0.42215336840E+01 -0.44998761435E+02  0.14081149182E+03  0.14788707214E+03  0.00000000000E+00 0.  1.
<mgrwt>
<rscale>  0 0.12299257E+03</rscale>
<asrwt>0</asrwt>
<pdfrwt beam="1">  1        2 0.20646829E+00 0.12980239E+03</pdfrwt>
<pdfrwt beam="2">  1       -2 0.19334275E-02 0.12980239E+03</pdfrwt>
<totfact> 0.13047355E+04</totfact>
</mgrwt>
</event>
<event>
 8    1  0.1273312E-005  0.1298956E+03  0.7546771E-02  0.1241895E+00
         -2   -1    0    0    0  501 -0.00000000000E+00  0.00000000000E+00  0.35504985016E+02  0.35504985016E+02  0.00000000000E+00 0. -1.
          2   -1    0    0  501    0  0.00000000000E+00 -0.00000000000E+00 -0.37897194668E+03  0.37897194668E+03  0.00000000000E+00 0.  1.
         23    2    1    2    0    0  0.92430241895E+01 -0.34109302066E+02 -0.10486078473E+03  0.14280472941E+03  0.90269200633E+02 0.  0.
         23    2    1    2    0    0 -0.92430241895E+01  0.34109302066E+02 -0.23860617693E+03  0.27167220229E+03  0.12499599931E+03 0.  0.
          5    1    4    4  502    0  0.79797230356E+01  0.40559686521E+02 -0.10674027826E+02  0.42951007211E+02  0.47000000000E+01 0.  1.
         -5    1    4    4    0  502 -0.17222747225E+02 -0.64503844544E+01 -0.22793214911E+03  0.22872119508E+03  0.47000000000E+01 0.  1.
        -11    1    3    3    0    0  0.47499562048E+02 -0.25248419675E+02 -0.79739055618E+02  0.96187359262E+02  0.00000000000E+00 0. -1.
         11    1    3    3    0    0 -0.38256537858E+02 -0.88608823911E+01 -0.25121729114E+02  0.46617370146E+02  0.00000000000E+00 0.  1.
<mgrwt>
<rscale>  0 0.12073187E+03</rscale>
<asrwt>0</asrwt>
<pdfrwt beam="2">  1        2 0.58303375E-01 0.12989564E+03</pdfrwt>
<pdfrwt beam="1">  1       -2 0.54623056E-02 0.12989564E+03</pdfrwt>
<totfact> 0.13618046E+04</totfact>
</mgrwt>
</event>
<event>
 8    1  0.1273312E-005  0.1517547E+03  0.7546771E-02  0.1207498E+00
         -2   -1    0    0    0  501 -0.00000000000E+00  0.00000000000E+00  0.38290578774E+02  0.38290578774E+02  0.00000000000E+00 0. -1.
          2   -1    0    0  501    0  0.00000000000E+00 -0.00000000000E+00 -0.50520692860E+03  0.50520692860E+03  0.00000000000E+00 0.  1.
         23    2    1    2    0    0 -0.81962426580E+02 -0.26169161136E+02 -0.17894925391E+03  0.21799092261E+03  0.89969675456E+02 0.  0.
         23    2    1    2    0    0  0.81962426580E+02  0.26169161136E+02 -0.28796709592E+03  0.32550658476E+03  0.12500729589E+03 0.  0.
          5    1    4    4  502    0  0.56454532954E+02  0.68776713309E+02 -0.11493814130E+03  0.14543114148E+03  0.47000000000E+01 0.  1.
         -5    1    4    4    0  502  0.25507893625E+02 -0.42607552173E+02 -0.17302895462E+03  0.18007544329E+03  0.47000000000E+01 0.  1.
        -11    1    3    3    0    0 -0.27493083392E+02  0.33584351900E+02 -0.56275415006E+02  0.71068281681E+02  0.00000000000E+00 0.  1.
         11    1    3    3    0    0 -0.54469343188E+02 -0.59753513036E+02 -0.12267383890E+03  0.14692264093E+03  0.00000000000E+00 0. -1.
<mgrwt>
<rscale>  0 0.14442364E+03</rscale>
<asrwt>0</asrwt>
<pdfrwt beam="2">  1        2 0.77724139E-01 0.15175470E+03</pdfrwt>
<pdfrwt beam="1">  1       -2 0.58908586E-02 0.15175470E+03</pdfrwt>
<totfact> 0.90033054E+03</totfact>
</mgrwt>
</event>
<event>
 8    1  0.1273312E-005  0.1693421E+03  0.7546771E-02  0.1184896E+00
         -3   -1    0    0    0  501 -0.00000000000E+00  0.00000000000E+00  0.65702763794E+02  0.65702763794E+02  0.00000000000E+00 0. -1.
          3   -1    0    0  501    0  0.00000000000E+00 -0.00000000000E+00 -0.52001546352E+03  0.52001546352E+03  0.00000000000E+00 0.  1.
         23    2    1    2    0    0 -0.11188311587E+03 -0.23096452082E+02 -0.63867103371E+02  0.16013098341E+03  0.92258588963E+02 0.  0.
         23    2    1    2    0    0  0.11188311587E+03  0.23096452082E+02 -0.39044559636E+03  0.42558724391E+03  0.12500184298E+03 0.  0.
          5    1    4    4  502    0  0.11787193836E+03  0.52929413842E+02 -0.24613229219E+03  0.27802609943E+03  0.47000000000E+01 0. -1.
         -5    1    4    4    0  502 -0.59888224883E+01 -0.29832961760E+02 -0.14431330416E+03  0.14756114448E+03  0.47000000000E+01 0. -1.
        -11    1    3    3    0    0 -0.64060392936E+02  0.14574957789E+02  0.77299933751E+01  0.66150707745E+02  0.00000000000E+00 0. -1.
         11    1    3    3    0    0 -0.47822722938E+02 -0.37671409872E+02 -0.71597096746E+02  0.93980275661E+02  0.00000000000E+00 0.  1.
<mgrwt>
<rscale>  0 0.16341319E+03</rscale>
<asrwt>0</asrwt>
<pdfrwt beam="2">  1        3 0.80002374E-01 0.16934208E+03</pdfrwt>
<pdfrwt beam="1">  1       -3 0.10108118E-01 0.16934208E+03</pdfrwt>
<totfact> 0.25926491E+02</totfact>
</mgrwt>
</event>
<event>
 8    1  0.1273312E-005  0.1353016E+03  0.7546771E-02  0.1233279E+00
          1   -1    0    0  501    0  0.00000000000E+00  0.00000000000E+00  0.31518953463E+03  0.31518953463E+03  0.00000000000E+00 0. -1.
         -1   -1    0    0    0  501 -0.00000000000E+00 -0.00000000000E+00 -0.91029957400E+02  0.91029957400E+02  0.00000000000E+00 0.  1.
         23    2    1    2    0    0 -0.51240492027E+02 -0.88195787421E+01 -0.39702782571E+02  0.10968978111E+03  0.88046374961E+02 0.  0.
         23    2    1    2    0    0  0.51240492027E+02  0.88195787421E+01  0.26386235980E+03  0.29652971092E+03  0.12491257561E+03 0.  0.
          5    1    4    4  502    0  0.20780646502E+02  0.30717687420E+02  0.25496267868E+03  0.25768870582E+03  0.47000000000E+01 0. -1.
         -5    1    4    4    0  502  0.30459845525E+02 -0.21898108678E+02  0.88996811235E+01  0.38841005100E+02  0.47000000000E+01 0. -1.
        -11    1    3    3    0    0 -0.10767048309E+02 -0.26890177524E+02 -0.55524958000E+02  0.62626128233E+02  0.00000000000E+00 0. -1.
         11    1    3    3    0    0 -0.40473443718E+02  0.18070598782E+02  0.15822175430E+02  0.47063652876E+02  0.00000000000E+00 0.  1.
<mgrwt>
<rscale>  0 0.12615240E+03</rscale>
<asrwt>0</asrwt>
<pdfrwt beam="1">  1        1 0.48490697E-01 0.13530161E+03</pdfrwt>
<pdfrwt beam="2">  1       -1 0.14004609E-01 0.13530161E+03</pdfrwt>
<totfact> 0.28642804E+03</totfact>
</mgrwt>
</event>
<event>
 7    1  0.1273312E-005  0.2230570E+03  0.7546771E-02  0.1135643E+00
         -1   -1    0    0    0  501 -0.00000000000E+00  0.00000000000E+00  0.26542511612E+03  0.26542511612E+03  0.00000000000E+00 0.  1.
          1   -1    0    0  501    0  0.00000000000E+00 -0.00000000000E+00 -0.17061788306E+03  0.17061788306E+03  0.00000000000E+00 0. -1.
         23    2    1    2    0    0  0.67073529986E+02  0.16792313807E+03  0.36508005747E+02  0.20549321158E+03  0.90540525712E+02 0.  0.
          5    1    1    2  502    0 -0.83592387646E+02 -0.50890577662E+02 -0.15386746892E+01  0.97989773379E+02  0.47000000000E+01 0. -1.
         -5    1    1    2    0  502  0.16518857659E+02 -0.11703256041E+03  0.59837901999E+02  0.13256001422E+03  0.47000000000E+01 0.  1.
        -11    1    3    3    0    0 -0.22285036596E+02  0.24611001327E+02  0.87916810728E+01  0.34345565922E+02  0.00000000000E+00 0. -1.
         11    1    3    3    0    0  0.89358566582E+02  0.14331213674E+03  0.27716324674E+02  0.17114764566E+03  0.00000000000E+00 0.  1.
<mgrwt>
<rscale>  0 0.21765573E+03</rscale>
<asrwt>0</asrwt>
<pdfrwt beam="2">  1        1 0.26248905E-01 0.22305695E+03</pdfrwt>
<pdfrwt beam="1">  1       -1 0.40834633E-01 0.22305695E+03</pdfrwt>
<totfact> 0.10667055E+03</totfact>
</mgrwt>
</event>
<event>
 8    1  0.1273312E-005  0.1729030E+03  0.7546771E-02  0.1178792E+00
         -2   -1    0    0    0  501 -0.00000000000E+00  0.00000000000E+00  0.39031547850E+02  0.39031547850E+02  0.00000000000E+00 0.  1.
          2   -1    0    0  501    0  0.00000000000E+00 -0.00000000000E+00 -0.13632986763E+04  0.13632986763E+04  0.00000000000E+00 0. -1.
         23    2    1    2    0    0 -0.11425282081E+03 -0.61069413401E+02 -0.15890372798E+03  0.22420997633E+03  0.90755376706E+02 0.  0.
         23    2    1    2    0    0  0.11425282081E+03  0.61069413401E+02 -0.11653634004E+04  0.11781202478E+04  0.11450887679E+03 0.  0.
          5    1    4    4  502    0  0.69061415680E+02  0.86766328893E+02 -0.95271869220E+03  0.95916258863E+03  0.47000000000E+01 0. -1.
         -5    1    4    4    0  502  0.45191405133E+02 -0.25696915491E+02 -0.21264470824E+03  0.21895765916E+03  0.47000000000E+01 0.  1.
        -11    1    3    3    0    0 -0.10059836690E+03 -0.52351784419E+02 -0.68760387942E+02  0.13262251583E+03  0.00000000000E+00 0.  1.
         11    1    3    3    0    0 -0.13654453910E+02 -0.87176289823E+01 -0.90143340038E+02  0.91587460495E+02  0.00000000000E+00 0. -1.
<mgrwt>
<rscale>  0 0.16909754E+03</rscale>
<asrwt>0</asrwt>
<pdfrwt beam="2">  1        2 0.20973824E+00 0.17290305E+03</pdfrwt>
<pdfrwt beam="1">  1       -2 0.60048539E-02 0.17290305E+03</pdfrwt>
<totfact> 0.23890134E+03</totfact>
</mgrwt>
</event>
<event>
 8    1  0.1273312E-005  0.1519776E+03  0.7546771E-02  0.1207291E+00
         -2   -1    0    0    0  501 -0.00000000000E+00  0.00000000000E+00  0.16942228954E+03  0.16942228954E+03  0.00000000000E+00 0.  1.
          2   -1    0    0  501    0  0.00000000000E+00 -0.00000000000E+00 -0.11318626068E+03  0.11318626068E+03  0.00000000000E+00 0. -1.
         23    2    1    2    0    0 -0.86426845306E+02  0.17093099291E+01  0.16990609986E+02  0.12564547221E+03  0.89585615644E+02 0.  0.
         23    2    1    2    0    0  0.86426845306E+02 -0.17093099291E+01  0.39245418869E+02  0.15696307801E+03  0.12499873450E+03 0.  0.
          5    1    4    4  502    0 -0.20340274891E+02  0.30866171837E+02 -0.33057801909E+01  0.37409431019E+02  0.47000000000E+01 0. -1.
         -5    1    4    4    0  502  0.10676712020E+03 -0.32575481766E+02  0.42551199060E+02  0.11955364699E+03  0.47000000000E+01 0. -1.
        -11    1    3    3    0    0  0.15604575330E+02  0.15370447301E+00 -0.11861683113E+02  0.19601681626E+02  0.00000000000E+00 0. -1.
         11    1    3    3    0    0 -0.10203142064E+03  0.15556054561E+01  0.28852293099E+02  0.10604379059E+03  0.00000000000E+00 0.  1.
<mgrwt>
<rscale>  0 0.14458379E+03</rscale>
<asrwt>0</asrwt>
<pdfrwt beam="2">  1        2 0.17413271E-01 0.15197765E+03</pdfrwt>
<pdfrwt beam="1">  1       -2 0.26064968E-01 0.15197765E+03</pdfrwt>
<totfact> 0.41494211E+03</totfact>
</mgrwt>
</event>
<event>
 8    1  0.1273312E-005  0.1378133E+03  0.7546771E-02  0.1228267E+00
          2   -1    0    0  501    0  0.00000000000E+00  0.00000000000E+00  0.66437910728E+03  0.66437910728E+03  0.00000000000E+00 0. -1.
         -2   -1    0    0    0  501 -0.00000000000E+00 -0.00000000000E+00 -0.23259870482E+02  0.23259870482E+02  0.00000000000E+00 0.  1.
         23    2    1    2    0    0 -0.12786743292E+02  0.56566301777E+02  0.22464806493E+03  0.24895829364E+03  0.90278633110E+02 0.  0.
         23    2    1    2    0    0  0.12786743292E+02 -0.56566301777E+02  0.41647117187E+03  0.43868068412E+03  0.12501703212E+03 0.  0.
          5    1    4    4  502    0  0.48221407856E+02 -0.18198916166E+01  0.30976544090E+03  0.31353681531E+03  0.47000000000E+01 0. -1.
         -5    1    4    4    0  502 -0.35434664563E+02 -0.54746410160E+02  0.10670573098E+03  0.12514386881E+03  0.47000000000E+01 0. -1.
        -11    1    3    3    0    0  0.72881268354E+01 -0.21812669910E+02  0.79767119182E+02  0.83016279511E+02  0.00000000000E+00 0. -1.
         11    1    3    3    0    0 -0.20074870128E+02  0.78378971686E+02  0.14488094575E+03  0.16594201413E+03  0.00000000000E+00 0.  1.
<mgrwt>
<rscale>  0 0.12945510E+03</rscale>
<asrwt>0</asrwt>
<pdfrwt beam="1">  1        2 0.10221216E+00 0.13781330E+03</pdfrwt>
<pdfrwt beam="2">  1       -2 0.35784421E-02 0.13781330E+03</pdfrwt>
<totfact> 0.13838514E+04</totfact>
</mgrwt>
</event>
<event>
 8    1  0.1273312E-005  0.1541059E+03  0.7546771E-02  0.1203641E+00
         -1   -1    0    0    0  501 -0.00000000000E+00  0.00000000000E+00  0.13158041150E+02  0.13158041150E+02  0.00000000000E+00 0.  1.
          1   -1    0    0  501    0  0.00000000000E+00 -0.00000000000E+00 -0.16230390665E+04  0.16230390665E+04  0.00000000000E+00 0. -1.
         23    2    1    2    0    0 -0.30425870780E+01 -0.90081914209E+02 -0.53753812369E+03  0.55283754710E+03  0.92510055973E+02 0.  0.
         23    2    1    2    0    0  0.30425870780E+01  0.90081914209E+02 -0.10723429017E+04  0.10833595606E+04  0.12499852039E+03 0.  0.
          5    1    4    4  502    0  0.42725464630E+02  0.45919482615E+02 -0.21662618771E+03  0.22557273642E+03  0.47000000000E+01 0.  1.
         -5    1    4    4    0  502 -0.39682877552E+02  0.44162431594E+02 -0.85571671399E+03  0.85778682418E+03  0.47000000000E+01 0.  1.
        -11    1    3    3    0    0  0.41676325109E+02 -0.40740757270E+02 -0.32253193139E+03  0.32775535410E+03  0.00000000000E+00 0. -1.
         11    1    3    3    0    0 -0.44718912187E+02 -0.49341156939E+02 -0.21500619231E+03  0.22508219300E+03  0.00000000000E+00 0.  1.
<mgrwt>
<rscale>  0 0.14745039E+03</rscale>
<asrwt>0</asrwt>
<pdfrwt beam="2">  1        1 0.24969849E+00 0.15410593E+03</pdfrwt>
<pdfrwt beam="1">  1       -1 0.20243127E-02 0.15410593E+03</pdfrwt>
<totfact> 0.39631920E+03</totfact>
</mgrwt>
</event>
<event>
 7    1  0.1273312E-005  0.1819454E+03  0.7546771E-02  0.1191534E+00
          1   -1    0    0  501    0  0.00000000000E+00  0.00000000000E+00  0.55493183927E+03  0.55493183927E+03  0.00000000000E+00 0. -1.
         -1   -1    0    0    0  501 -0.00000000000E+00 -0.00000000000E+00 -0.67649307634E+02  0.67649307634E+02  0.00000000000E+00 0.  1.
         23    2    1    2    0    0 -0.45668704711E+02  0.33094190919E+01 -0.25801510023E+00  0.10219677369E+03  0.91364824395E+02 0.  0.
          5    1    1    2  502    0  0.76234741877E+02  0.41694935970E+02  0.43830451934E+03  0.44685920067E+03  0.47000000000E+01 0. -1.
         -5    1    1    2    0  502 -0.30566037166E+02 -0.45004355062E+02  0.49236027396E+02  0.73525172535E+02  0.47000000000E+01 0.  1.
        -11    1    3    3    0    0 -0.60112227169E+02 -0.28891843029E+02 -0.32792231213E+01  0.66775532593E+02  0.00000000000E+00 0.  1.
         11    1    3    3    0    0  0.14443522458E+02  0.32201262121E+02  0.30212080211E+01  0.35421241100E+02  0.00000000000E+00 0. -1.
<mgrwt>
<rscale>  0 0.15751237E+03</rscale>
<asrwt>0</asrwt>
<pdfrwt beam="1">  1        1 0.85374126E-01 0.18194535E+03</pdfrwt>
<pdfrwt beam="2">  1       -1 0.10407586E-01 0.18194535E+03</pdfrwt>
<totfact> 0.22208304E+03</totfact>
</mgrwt>
</event>
<event>
 8    1  0.1273312E-005  0.1329306E+03  0.7546771E-02  0.1236934E+00
          2   -1    0    0  501    0  0.00000000000E+00  0.00000000000E+00  0.11826019848E+04  0.11826019848E+04  0.00000000000E+00 0. -1.
         -2   -1    0    0    0  501 -0.00000000000E+00 -0.00000000000E+00 -0.16041779160E+02  0.16041779160E+02  0.00000000000E+00 0.  1.
         23    2    1    2    0    0  0.90202548814E+01 -0.44289841151E+02  0.20689260427E+03  0.22981331408E+03  0.89256117988E+02 0.  0.
         23    2    1    2    0    0 -0.90202548814E+01  0.44289841151E+02  0.95966760139E+03  0.96883044990E+03  0.12501032147E+03 0.  0.
          5    1    4    4  502    0 -0.32557849186E+02 -0.58811831893E+01  0.71504929911E+02  0.78928111981E+02  0.47000000000E+01 0. -1.
         -5    1    4    4    0  502  0.23537594305E+02  0.50171024341E+02  0.88816267148E+03  0.88990233792E+03  0.47000000000E+01 0. -1.
        -11    1    3    3    0    0 -0.10888359328E+02  0.22649038849E+02  0.91911734417E+02  0.95285372713E+02  0.00000000000E+00 0. -1.
         11    1    3    3    0    0  0.19908614210E+02 -0.66938880000E+02  0.11498086985E+03  0.13452794136E+03  0.00000000000E+00 0.  1.
<mgrwt>
<rscale>  0 0.12381429E+03</rscale>
<asrwt>0</asrwt>
<pdfrwt beam="1">  1        2 0.18193870E+00 0.13293057E+03</pdfrwt>
<pdfrwt beam="2">  1       -2 0.24679669E-02 0.13293057E+03</pdfrwt>
<totfact> 0.11184276E+04</totfact>
</mgrwt>
</event>
<event>
 8    1  0.1273312E-005  0.1475963E+03  0.7546771E-02  0.1214683E+00
          2   -1    0    0  501    0  0.00000000000E+00  0.00000000000E+00  0.19850990439E+03  0.19850990439E+03  0.00000000000E+00 0.  1.
         -2   -1    0    0    0  501 -0.00000000000E+00 -0.00000000000E+00 -0.89135008601E+02  0.89135008601E+02  0.00000000000E+00 0. -1.
         23    2    1    2    0    0  0.61108550353E+02  0.49240319451E+02  0.67194984220E+02  0.13413984282E+03  0.85553886771E+02 0.  0.
         23    2    1    2    0    0 -0.61108550353E+02 -0.49240319451E+02  0.42179911571E+02  0.15350507017E+03  0.12500319053E+03 0.  0.
          5    1    4    4  502    0 -0.37787185679E+02  0.36703585891E+02 -0.40794091888E+01  0.53044850817E+02  0.47000000000E+01 0. -1.
         -5    1    4    4    0  502 -0.23321364674E+02 -0.85943905342E+02  0.46259320759E+02  0.10046021935E+03  0.47000000000E+01 0. -1.
        -11    1    3    3    0    0  0.13013158744E+02  0.60496544932E+02  0.18044839891E+02  0.64457664369E+02  0.00000000000E+00 0.  1.
         11    1    3    3    0    0  0.48095391610E+02 -0.11256225481E+02  0.49150144329E+02  0.69682178451E+02  0.00000000000E+00 0. -1.
<mgrwt>
<rscale>  0 0.13899881E+03</rscale>
<asrwt>0</asrwt>
<pdfrwt beam="1">  1        2 0.30539985E-01 0.14759628E+03</pdfrwt>
<pdfrwt beam="2">  1       -2 0.13713078E-01 0.14759628E+03</pdfrwt>
<totfact> 0.65314896E+03</totfact>
</mgrwt>
</event>
<event>
 8    1  0.1273312E-005  0.1341663E+03  0.7546771E-02  0.1233640E+00
          1   -1    0    0  501    0  0.00000000000E+00  0.00000000000E+00  0.28167214028E+03  0.28167214028E+03  0.00000000000E+00 0. -1.
         -1   -1    0    0    0  501 -0.00000000000E+00 -0.00000000000E+00 -0.64658008406E+02  0.64658008406E+02  0.00000000000E+00 0.  1.
         23    2    1    2    0    0 -0.37254386823E+02 -0.31432573731E+02  0.16985607161E+02  0.10547335739E+03  0.91979466402E+02 0.  0.
         23    2    1    2    0    0  0.37254386823E+02  0.31432573731E+02  0.20002852472E+03  0.24085679130E+03  0.12499874874E+03 0.  0.
          5    1    4    4  502    0 -0.20896311053E+02 -0.34279462865E+02  0.33227176865E+02  0.52324685115E+02  0.47000000000E+01 0. -1.
         -5    1    4    4    0  502  0.58150697877E+02  0.65712036597E+02  0.16680134785E+03  0.18853210619E+03  0.47000000000E+01 0. -1.
        -11    1    3    3    0    0 -0.37102900701E+02  0.12154443950E+02  0.40242366611E+02  0.56069633659E+02  0.00000000000E+00 0. -1.
         11    1    3    3    0    0 -0.15148612226E+00 -0.43587017681E+02 -0.23256759450E+02  0.49403723731E+02  0.00000000000E+00 0.  1.
<mgrwt>
<rscale>  0 0.12591912E+03</rscale>
<asrwt>0</asrwt>
<pdfrwt beam="1">  1        1 0.43334175E-01 0.13416625E+03</pdfrwt>
<pdfrwt beam="2">  1       -1 0.99473861E-02 0.13416625E+03</pdfrwt>
<totfact> 0.55749430E+03</totfact>
</mgrwt>
</event>
<event>
 8    1  0.1273312E-005  0.1357476E+03  0.7546771E-02  0.1231183E+00
          1   -1    0    0  501    0  0.00000000000E+00  0.00000000000E+00  0.18812006760E+03  0.18812006760E+03  0.00000000000E+00 0. -1.
         -1   -1    0    0    0  501 -0.00000000000E+00 -0.00000000000E+00 -0.90322917656E+02  0.90322917656E+02  0.00000000000E+00 0.  1.
         23    2    1    2    0    0 -0.10426767883E+02 -0.51891451206E+02 -0.84696000674E+01  0.10604796377E+03  0.91504078037E+02 0.  0.
         23    2    1    2    0    0  0.10426767883E+02  0.51891451206E+02  0.10626675001E+03  0.17239502149E+03  0.12500392425E+03 0.  0.
          5    1    4    4  502    0  0.45984538239E+02  0.43629482579E+02  0.11777411548E+03  0.13383176672E+03  0.47000000000E+01 0. -1.
         -5    1    4    4    0  502 -0.35557770356E+02  0.82619686269E+01 -0.11507365465E+02  0.38563254768E+02  0.47000000000E+01 0. -1.
        -11    1    3    3    0    0  0.14635268711E+02  0.31440001502E+01 -0.36458386052E+02  0.39411796974E+02  0.00000000000E+00 0.  1.
         11    1    3    3    0    0 -0.25062036594E+02 -0.55035451356E+02  0.27988785984E+02  0.66636166795E+02  0.00000000000E+00 0. -1.
<mgrwt>
<rscale>  0 0.12751974E+03</rscale>
<asrwt>0</asrwt>
<pdfrwt beam="1">  1        1 0.28941549E-01 0.13574764E+03</pdfrwt>
<pdfrwt beam="2">  1       -1 0.13895834E-01 0.13574764E+03</pdfrwt>
<totfact> 0.54950124E+03</totfact>
</mgrwt>
</event>
<event>
 8    1  0.1273312E-005  0.1476033E+03  0.7546771E-02  0.1215185E+00
         -2   -1    0    0    0  501 -0.00000000000E+00  0.00000000000E+00  0.99079722840E+01  0.99079722840E+01  0.00000000000E+00 0.  1.
          2   -1    0    0  501    0  0.00000000000E+00 -0.00000000000E+00 -0.24021335466E+04  0.24021335466E+04  0.00000000000E+00 0. -1.
         23    2    1    2    0    0 -0.42460876424E+02  0.66038182910E+02 -0.45759111840E+03  0.47178452035E+03  0.83827408232E+02 0.  0.
         23    2    1    2    0    0  0.42460876424E+02 -0.66038182910E+02 -0.19346344559E+04  0.19402569986E+04  0.12499109860E+03 0.  0.
          5    1    4    4  502    0 -0.43455159215E+02 -0.35322356993E+02 -0.75985587056E+03  0.76193113455E+03  0.47000000000E+01 0. -1.
         -5    1    4    4    0  502  0.85916035639E+02 -0.30715825917E+02 -0.11747785854E+04  0.11783258640E+04  0.47000000000E+01 0. -1.
        -11    1    3    3    0    0  0.10245448525E+02  0.60107373155E+02 -0.21609825367E+03  0.22453578949E+03  0.00000000000E+00 0.  1.
         11    1    3    3    0    0 -0.52706324949E+02  0.59308097548E+01 -0.24149286473E+03  0.24724873086E+03  0.00000000000E+00 0. -1.
<mgrwt>
<rscale>  0 0.13862988E+03</rscale>
<asrwt>0</asrwt>
<pdfrwt beam="2">  1        2 0.36955895E+00 0.14760333E+03</pdfrwt>
<pdfrwt beam="1">  1       -2 0.15243037E-02 0.14760333E+03</pdfrwt>
<totfact> 0.52229478E+03</totfact>
</mgrwt>
</event>
<event>
 8    1  0.1273312E-005  0.1945649E+03  0.7546771E-02  0.1158570E+00
         -2   -1    0    0    0  501 -0.00000000000E+00  0.00000000000E+00  0.42886291663E+02  0.42886291663E+02  0.00000000000E+00 0.  1.
          2   -1    0    0  501    0  0.00000000000E+00 -0.00000000000E+00 -0.31153564489E+04  0.31153564489E+04  0.00000000000E+00 0. -1.
         23    2    1    2    0    0 -0.45184504835E+02  0.14208764137E+03 -0.15677906106E+03  0.23606717266E+03  0.94432508786E+02 0.  0.
         23    2    1    2    0    0  0.45184504835E+02 -0.14208764137E+03 -0.29156910962E+04  0.29221755679E+04  0.12499977595E+03 0.  0.
          5    1    4    4  502    0  0.86580370210E+02 -0.10323709003E+03 -0.18072927140E+04  0.18123142943E+04  0.47000000000E+01 0.  1.
         -5    1    4    4    0  502 -0.41395865375E+02 -0.38850551336E+02 -0.11083983823E+04  0.11098612737E+04  0.47000000000E+01 0.  1.
        -11    1    3    3    0    0 -0.35181037193E+02  0.45216286469E+02 -0.11813446133E+03  0.13129344574E+03  0.00000000000E+00 0. -1.
         11    1    3    3    0    0 -0.10003467642E+02  0.96871354902E+02 -0.38644599726E+02  0.10477372692E+03  0.00000000000E+00 0.  1.
<mgrwt>
<rscale>  0 0.18987908E+03</rscale>
<asrwt>0</asrwt>
<pdfrwt beam="2">  1        2 0.47928576E+00 0.19456485E+03</pdfrwt>
<pdfrwt beam="1">  1       -2 0.65978890E-02 0.19456485E+03</pdfrwt>
<totfact> 0.23364472E+02</totfact>
</mgrwt>
</event>
<event>
 8    1  0.1273312E-005  0.1251785E+03  0.7546771E-02  0.1249275E+00
          1   -1    0    0  501    0  0.00000000000E+00  0.00000000000E+00  0.32042919615E+03  0.32042919615E+03  0.00000000000E+00 0. -1.
         -1   -1    0    0    0  501 -0.00000000000E+00 -0.00000000000E+00 -0.37438647288E+02  0.37438647288E+02  0.00000000000E+00 0.  1.
         23    2    1    2    0    0  0.58270962271E+01  0.31720007782E+01  0.10892994865E+03  0.14346925601E+03  0.93132577907E+02 0.  0.
         23    2    1    2    0    0 -0.58270962271E+01 -0.31720007782E+01  0.17406060022E+03  0.21439858743E+03  0.12500258040E+03 0.  0.
          5    1    4    4  502    0 -0.15742412777E+02  0.59410333234E+02  0.85202400767E+02  0.10516154407E+03  0.47000000000E+01 0. -1.
         -5    1    4    4    0  502  0.99153165497E+01 -0.62582334013E+02  0.88858199450E+02  0.10923704336E+03  0.47000000000E+01 0. -1.
        -11    1    3    3    0    0  0.45533049032E+02  0.23512456318E+01  0.28499435057E+02  0.53768064023E+02  0.00000000000E+00 0.  1.
         11    1    3    3    0    0 -0.39705952805E+02  0.82075514637E+00  0.80430513590E+02  0.89701191985E+02  0.00000000000E+00 0. -1.
<mgrwt>
<rscale>  0 0.11633156E+03</rscale>
<asrwt>0</asrwt>
<pdfrwt beam="1">  1        1 0.49296798E-01 0.12517852E+03</pdfrwt>
<pdfrwt beam="2">  1       -1 0.57597921E-02 0.12517852E+03</pdfrwt>
<totfact> 0.10756235E+04</totfact>
</mgrwt>
</event>
<event>
 8    1  0.1273312E-005  0.1310538E+03  0.7546771E-02  0.1239957E+00
          2   -1    0    0  501    0  0.00000000000E+00  0.00000000000E+00  0.68285413861E+03  0.68285413861E+03  0.00000000000E+00 0. -1.
         -2   -1    0    0    0  501 -0.00000000000E+00 -0.00000000000E+00 -0.19794605220E+02  0.19794605220E+02  0.00000000000E+00 0.  1.
         23    2    1    2    0    0 -0.84929879396E+00 -0.39357548236E+02  0.22696824213E+03  0.24729094906E+03  0.89936047512E+02 0.  0.
         23    2    1    2    0    0  0.84929879396E+00  0.39357548236E+02  0.43609129127E+03  0.45535779477E+03  0.12500147611E+03 0.  0.
          5    1    4    4  502    0  0.51904113024E+02  0.36543247749E+02  0.12730103561E+03  0.14232740274E+03  0.47000000000E+01 0.  1.
         -5    1    4    4    0  502 -0.51054814230E+02  0.28143004868E+01  0.30879025566E+03  0.31303039203E+03  0.47000000000E+01 0.  1.
        -11    1    3    3    0    0  0.72497740582E+01  0.23252881490E+02  0.22004316358E+02  0.32824467397E+02  0.00000000000E+00 0.  1.
         11    1    3    3    0    0 -0.80990728522E+01 -0.62610429725E+02  0.20496392577E+03  0.21446648166E+03  0.00000000000E+00 0. -1.
<mgrwt>
<rscale>  0 0.12192337E+03</rscale>
<asrwt>0</asrwt>
<pdfrwt beam="1">  1        2 0.10505447E+00 0.13105383E+03</pdfrwt>
<pdfrwt beam="2">  1       -2 0.30453244E-02 0.13105383E+03</pdfrwt>
<totfact> 0.16935165E+04</totfact>
</mgrwt>
</event>
<event>
 8    1  0.1273312E-005  0.2224502E+03  0.7546771E-02  0.1134162E+00
          1   -1    0    0  501    0  0.00000000000E+00  0.00000000000E+00  0.22031331247E+04  0.22031331247E+04  0.00000000000E+00 0. -1.
         -1   -1    0    0    0  501 -0.00000000000E+00 -0.00000000000E+00 -0.22037603805E+02  0.22037603805E+02  0.00000000000E+00 0.  1.
         23    2    1    2    0    0  0.11998014446E+03  0.13951296666E+03  0.86789557883E+03  0.89326300382E+03  0.10400459274E+03 0.  0.
         23    2    1    2    0    0 -0.11998014446E+03 -0.13951296666E+03  0.13131999421E+04  0.13319077247E+04  0.12499998521E+03 0.  0.
          5    1    4    4  502    0 -0.47656559092E+02 -0.98330805751E+01  0.66971175692E+03  0.67149368162E+03  0.47000000000E+01 0.  1.
         -5    1    4    4    0  502 -0.72323585365E+02 -0.12967988609E+03  0.64348818515E+03  0.66041404307E+03  0.47000000000E+01 0.  1.
        -11    1    3    3    0    0  0.75072295911E+02  0.19441761361E+02  0.23337603269E+03  0.24592316754E+03  0.00000000000E+00 0.  1.
         11    1    3    3    0    0  0.44907848546E+02  0.12007120530E+03  0.63451954614E+03  0.64733983628E+03  0.00000000000E+00 0. -1.
<mgrwt>
<rscale>  0 0.21962612E+03</rscale>
<asrwt>0</asrwt>
<pdfrwt beam="1">  1        1 0.33894338E+00 0.22245022E+03</pdfrwt>
<pdfrwt beam="2">  1       -1 0.33904023E-02 0.22245022E+03</pdfrwt>
<totfact> 0.78721364E+02</totfact>
</mgrwt>
</event>
<event>
 8    1  0.1273312E-005  0.1952160E+03  0.7546771E-02  0.1158352E+00
         -2   -1    0    0    0  501 -0.00000000000E+00  0.00000000000E+00  0.49947175897E+02  0.49947175897E+02  0.00000000000E+00 0.  1.
          2   -1    0    0  501    0  0.00000000000E+00 -0.00000000000E+00 -0.68902723089E+03  0.68902723089E+03  0.00000000000E+00 0. -1.
         23    2    1    2    0    0  0.13768780145E+03  0.59386389448E+02 -0.29085174474E+03  0.33975986144E+03  0.91418554496E+02 0.  0.
         23    2    1    2    0    0 -0.13768780145E+03 -0.59386389448E+02 -0.34822831025E+03  0.39921454535E+03  0.12499849295E+03 0.  0.
          5    1    4    4  502    0 -0.14333981449E+03 -0.85679787176E+02 -0.31123743272E+03  0.35323951913E+03  0.47000000000E+01 0.  1.
         -5    1    4    4    0  502  0.56520130429E+01  0.26293397728E+02 -0.36990877531E+02  0.45975026221E+02  0.47000000000E+01 0.  1.
        -11    1    3    3    0    0  0.10493080821E+03  0.45008277563E+02 -0.12173166393E+03  0.16689762600E+03  0.00000000000E+00 0.  1.
         11    1    3    3    0    0  0.32756993237E+02  0.14378111886E+02 -0.16912008082E+03  0.17286223544E+03  0.00000000000E+00 0. -1.
<mgrwt>
<rscale>  0 0.19012073E+03</rscale>
<asrwt>0</asrwt>
<pdfrwt beam="2">  1        2 0.10600418E+00 0.19521603E+03</pdfrwt>
<pdfrwt beam="1">  1       -2 0.76841812E-02 0.19521603E+03</pdfrwt>
<totfact> 0.42463732E+03</totfact>
</mgrwt>
</event>
<event>
 8    1  0.1273312E-005  0.1384349E+03  0.7546771E-02  0.1233810E+00
         -2   -1    0    0    0  501 -0.00000000000E+00  0.00000000000E+00  0.44758690010E+02  0.44758690010E+02  0.00000000000E+00 0.  1.
          2   -1    0    0  501    0  0.00000000000E+00 -0.00000000000E+00 -0.36660877764E+03  0.36660877764E+03  0.00000000000E+00 0. -1.
         23    2    1    2    0    0 -0.33528404407E+02  0.49139928224E+02 -0.51320394557E+02  0.10747517075E+03  0.73336505109E+02 0.  0.
         23    2    1    2    0    0  0.33528404407E+02 -0.49139928224E+02 -0.27052969308E+03  0.30389229691E+03  0.12500130734E+03 0.  0.
          5    1    4    4  502    0  0.34534163823E+02 -0.11919934129E+02 -0.26306096031E+03  0.26562728049E+03  0.47000000000E+01 0.  1.
         -5    1    4    4    0  502 -0.10057594157E+01 -0.37219994095E+02 -0.74687327671E+01  0.38265016419E+02  0.47000000000E+01 0.  1.
        -11    1    3    3    0    0 -0.39374617085E+02 -0.18202709693E+01 -0.37374422493E+02  0.54318701326E+02  0.00000000000E+00 0. -1.
         11    1    3    3    0    0  0.58462126778E+01  0.50960199193E+02 -0.13945972063E+02  0.53156469421E+02  0.00000000000E+00 0.  1.
<mgrwt>
<rscale>  0 0.12580916E+03</rscale>
<asrwt>0</asrwt>
<pdfrwt beam="2">  1        2 0.56401351E-01 0.13843487E+03</pdfrwt>
<pdfrwt beam="1">  1       -2 0.68859522E-02 0.13843487E+03</pdfrwt>
<totfact> 0.99740806E+03</totfact>
</mgrwt>
</event>
<event>
 8    1  0.1273312E-005  0.1198585E+03  0.7546771E-02  0.1256152E+00
          1   -1    0    0  501    0  0.00000000000E+00  0.00000000000E+00  0.51630174134E+02  0.51630174134E+02  0.00000000000E+00 0. -1.
         -1   -1    0    0    0  501 -0.00000000000E+00 -0.00000000000E+00 -0.26297459241E+03  0.26297459241E+03  0.00000000000E+00 0.  1.
         23    2    1    2    0    0 -0.12138826492E+01 -0.24711019410E+02 -0.15842134930E+03  0.18358219161E+03  0.89403518769E+02 0.  0.
         23    2    1    2    0    0  0.12138826492E+01  0.24711019410E+02 -0.52923068971E+02  0.13102257494E+03  0.11727726089E+03 0.  0.
          5    1    4    4  502    0 -0.39327880215E+02 -0.24914891403E+02  0.15031185682E+01  0.46816485785E+02  0.47000000000E+01 0. -1.
         -5    1    4    4    0  502  0.40541762864E+02  0.49625910813E+02 -0.54426187540E+02  0.84206089152E+02  0.47000000000E+01 0.  1.
        -11    1    3    3    0    0  0.43865989571E+02 -0.75894450227E+01 -0.78141733450E+02  0.89933059680E+02  0.00000000000E+00 0.  1.
         11    1    3    3    0    0 -0.45079872220E+02 -0.17121574387E+02 -0.80279615855E+02  0.93649131927E+02  0.00000000000E+00 0. -1.
<mgrwt>
<rscale>  0 0.11242066E+03</rscale>
<asrwt>0</asrwt>
<pdfrwt beam="1">  1        1 0.79431037E-02 0.11985852E+03</pdfrwt>
<pdfrwt beam="2">  1       -1 0.40457630E-01 0.11985852E+03</pdfrwt>
<totfact> 0.50217135E+03</totfact>
</mgrwt>
</event>
<event>
 8    1  0.1273312E-005  0.1767483E+03  0.7546771E-02  0.1176674E+00
         -2   -1    0    0    0  501 -0.00000000000E+00  0.00000000000E+00  0.21943221033E+02  0.21943221033E+02  0.00000000000E+00 0. -1.
          2   -1    0    0  501    0  0.00000000000E+00 -0.00000000000E+00 -0.20182196241E+04  0.20182196241E+04  0.00000000000E+00 0.  1.
         23    2    1    2    0    0 -0.19484771938E+02 -0.12343144192E+03 -0.33212214499E+03  0.36664877133E+03  0.92256301324E+02 0.  0.
         23    2    1    2    0    0  0.19484771938E+02  0.12343144192E+03 -0.16641542581E+04  0.16735140738E+04  0.12499993336E+03 0.  0.
          5    1    4    4  502    0  0.37746237233E+02  0.13421106927E+03 -0.15935580238E+04  0.15996520418E+04  0.47000000000E+01 0. -1.
         -5    1    4    4    0  502 -0.18261465295E+02 -0.10779627345E+02 -0.70596234216E+02  0.73862031964E+02  0.47000000000E+01 0. -1.
        -11    1    3    3    0    0 -0.51374481107E+02 -0.42789131989E+02 -0.11787189051E+03  0.13551394650E+03  0.00000000000E+00 0. -1.
         11    1    3    3    0    0  0.31889709169E+02 -0.80642309932E+02 -0.21425025448E+03  0.23113482482E+03  0.00000000000E+00 0.  1.
<mgrwt>
<rscale>  0 0.17113055E+03</rscale>
<asrwt>0</asrwt>
<pdfrwt beam="2">  1        2 0.31049541E+00 0.17674830E+03</pdfrwt>
<pdfrwt beam="1">  1       -2 0.33758792E-02 0.17674830E+03</pdfrwt>
<totfact> 0.25877405E+03</totfact>
</mgrwt>
</event>
<event>
 8    1  0.1273312E-005  0.1733785E+03  0.7546771E-02  0.1182378E+00
         -2   -1    0    0    0  501 -0.00000000000E+00  0.00000000000E+00  0.20094941791E+03  0.20094941791E+03  0.00000000000E+00 0.  1.
          2   -1    0    0  501    0  0.00000000000E+00 -0.00000000000E+00 -0.22009759653E+03  0.22009759653E+03  0.00000000000E+00 0. -1.
         23    2    1    2    0    0 -0.11852956468E+03 -0.19632508105E+02  0.12832301653E+03  0.19343365114E+03  0.80716093470E+02 0.  0.
         23    2    1    2    0    0  0.11852956468E+03  0.19632508105E+02 -0.14747119515E+03  0.22761336330E+03  0.12500158670E+03 0.  0.
          5    1    4    4  502    0  0.74209058814E+02 -0.32007550040E+02 -0.13624655706E+03  0.15848243430E+03  0.47000000000E+01 0.  1.
         -5    1    4    4    0  502  0.44320505861E+02  0.51640058145E+02 -0.11224638090E+02  0.69130929007E+02  0.47000000000E+01 0.  1.
        -11    1    3    3    0    0 -0.49094703054E+02 -0.48377139470E+02  0.70673597600E+02  0.98718766651E+02  0.00000000000E+00 0.  1.
         11    1    3    3    0    0 -0.69434861621E+02  0.28744631365E+02  0.57649418929E+02  0.94714884488E+02  0.00000000000E+00 0. -1.
<mgrwt>
<rscale>  0 0.16572720E+03</rscale>
<asrwt>0</asrwt>
<pdfrwt beam="2">  1        2 0.33861169E-01 0.17337846E+03</pdfrwt>
<pdfrwt beam="1">  1       -2 0.30915295E-01 0.17337846E+03</pdfrwt>
<totfact> 0.14662830E+03</totfact>
</mgrwt>
</event>
<event>
 8    1  0.1273312E-005  0.2433808E+03  0.7546771E-02  0.1120219E+00
          3   -1    0    0  501    0  0.00000000000E+00  0.00000000000E+00  0.12082261183E+04  0.12082261183E+04  0.00000000000E+00 0. -1.
         -3   -1    0    0    0  501 -0.00000000000E+00 -0.00000000000E+00 -0.93743558430E+02  0.93743558430E+02  0.00000000000E+00 0.  1.
         23    2    1    2    0    0 -0.12046243885E+03  0.17058142255E+03  0.83303600040E+02  0.24245834388E+03  0.90759780989E+02 0.  0.
         23    2    1    2    0    0  0.12046243885E+03 -0.17058142255E+03  0.10311789599E+04  0.10595113329E+04  0.12499998539E+03 0.  0.
          5    1    4    4  502    0  0.13980421291E+02 -0.11273853558E+03  0.36209948678E+03  0.37953070746E+03  0.47000000000E+01 0.  1.
         -5    1    4    4    0  502  0.10648201756E+03 -0.57842886965E+02  0.66907947308E+03  0.67998062541E+03  0.47000000000E+01 0.  1.
        -11    1    3    3    0    0 -0.87362403006E+02  0.14992224343E+03  0.99714397260E+02  0.20012953194E+03  0.00000000000E+00 0. -1.
         11    1    3    3    0    0 -0.33100035846E+02  0.20659179120E+02 -0.16410797221E+02  0.42328811941E+02  0.00000000000E+00 0.  1.
<mgrwt>
<rscale>  0 0.23936174E+03</rscale>
<asrwt>0</asrwt>
<pdfrwt beam="1">  1        3 0.18588093E+00 0.24338081E+03</pdfrwt>
<pdfrwt beam="2">  1       -3 0.14422087E-01 0.24338081E+03</pdfrwt>
<totfact> 0.19265541E+01</totfact>
</mgrwt>
</event>
<event>
 8    1  0.1273312E-005  0.1413944E+03  0.7546771E-02  0.1222984E+00
         -1   -1    0    0    0  501 -0.00000000000E+00  0.00000000000E+00  0.19321263619E+03  0.19321263619E+03  0.00000000000E+00 0.  1.
          1   -1    0    0  501    0  0.00000000000E+00 -0.00000000000E+00 -0.96016649859E+02  0.96016649859E+02  0.00000000000E+00 0. -1.
         23    2    1    2    0    0 -0.65719057111E+02 -0.68457889234E+01  0.97763703903E+02  0.14783375219E+03  0.89057381465E+02 0.  0.
         23    2    1    2    0    0  0.65719057111E+02  0.68457889234E+01 -0.56771756815E+00  0.14139553386E+03  0.12500606145E+03 0.  0.
          5    1    4    4  502    0  0.75932562479E+02 -0.22225598840E+02  0.41162506139E+02  0.89309423915E+02  0.47000000000E+01 0.  1.
         -5    1    4    4    0  502 -0.10213505368E+02  0.29071387763E+02 -0.41730223707E+02  0.52086109943E+02  0.47000000000E+01 0.  1.
        -11    1    3    3    0    0 -0.25620675879E+02 -0.42119494759E+02  0.19350350383E+02  0.52961372067E+02  0.00000000000E+00 0. -1.
         11    1    3    3    0    0 -0.40098381232E+02  0.35273705836E+02  0.78413353520E+02  0.94872380128E+02  0.00000000000E+00 0.  1.
<mgrwt>
<rscale>  0 0.13306057E+03</rscale>
<asrwt>0</asrwt>
<pdfrwt beam="2">  1        1 0.14771792E-01 0.14139439E+03</pdfrwt>
<pdfrwt beam="1">  1       -1 0.29725021E-01 0.14139439E+03</pdfrwt>
<totfact> 0.37985821E+03</totfact>
</mgrwt>
</event>
<event>
 8    1  0.1273312E-005  0.1529211E+03  0.7546771E-02  0.1205955E+00
         -2   -1    0    0    0  501 -0.00000000000E+00  0.00000000000E+00  0.53611025098E+02  0.53611025098E+02  0.00000000000E+00 0.  1.
          2   -1    0    0  501    0  0.00000000000E+00 -0.00000000000E+00 -0.88629122117E+03  0.88629122117E+03  0.00000000000E+00 0. -1.
         23    2    1    2    0    0  0.85528900940E+02  0.21117391917E+02 -0.39060406225E+02  0.13168369421E+03  0.89742647877E+02 0.  0.
         23    2    1    2    0    0 -0.85528900940E+02 -0.21117391917E+02 -0.79361978985E+03  0.80821855206E+03  0.12499487959E+03 0.  0.
          5    1    4    4  502    0 -0.66296300108E+02 -0.65302468682E+02 -0.65029683170E+03  0.65693810298E+03  0.47000000000E+01 0.  1.
         -5    1    4    4    0  502 -0.19232600832E+02  0.44185076764E+02 -0.14332295815E+03  0.15128044909E+03  0.47000000000E+01 0.  1.
        -11    1    3    3    0    0  0.86461154293E+02  0.47975345801E+02 -0.30306796114E+02  0.10341985736E+03  0.00000000000E+00 0.  1.
         11    1    3    3    0    0 -0.93225335270E+00 -0.26857953884E+02 -0.87536101109E+01  0.28263836843E+02  0.00000000000E+00 0. -1.
<mgrwt>
<rscale>  0 0.14562427E+03</rscale>
<asrwt>0</asrwt>
<pdfrwt beam="2">  1        2 0.13635250E+00 0.15292108E+03</pdfrwt>
<pdfrwt beam="1">  1       -2 0.82478500E-02 0.15292108E+03</pdfrwt>
<totfact> 0.27590031E+03</totfact>
</mgrwt>
</event>
<event>
 8    1  0.1273312E-005  0.2846938E+03  0.7546771E-02  0.1095452E+00
          2   -1    0    0  501    0  0.00000000000E+00  0.00000000000E+00  0.58413300556E+03  0.58413300556E+03  0.00000000000E+00 0. -1.
         -2   -1    0    0    0  501 -0.00000000000E+00 -0.00000000000E+00 -0.16366118573E+03  0.16366118573E+03  0.00000000000E+00 0.  1.
         23    2    1    2    0    0  0.15837516110E+02  0.25529222633E+03  0.37572618454E+02  0.27065440240E+03  0.80107154133E+02 0.  0.
         23    2    1    2    0    0 -0.15837516110E+02 -0.25529222633E+03  0.38289920137E+03  0.47713978889E+03  0.12500252795E+03 0.  0.
          5    1    4    4  502    0 -0.63164649982E+02 -0.76981679877E+02  0.14741669077E+03  0.17795989088E+03  0.47000000000E+01 0. -1.
         -5    1    4    4    0  502  0.47327133872E+02 -0.17831054645E+03  0.23548251060E+03  0.29917989801E+03  0.47000000000E+01 0. -1.
        -11    1    3    3    0    0 -0.26634755761E+02  0.12637972517E+03 -0.23457177589E+01  0.12917719435E+03  0.00000000000E+00 0. -1.
         11    1    3    3    0    0  0.42472271870E+02  0.12891250115E+03  0.39918336213E+02  0.14147720805E+03  0.00000000000E+00 0.  1.
<mgrwt>
<rscale>  0 0.28043417E+03</rscale>
<asrwt>0</asrwt>
<pdfrwt beam="1">  1        2 0.89866615E-01 0.28469384E+03</pdfrwt>
<pdfrwt beam="2">  1       -2 0.25178644E-01 0.28469384E+03</pdfrwt>
<totfact> 0.73320677E+02</totfact>
</mgrwt>
</event>
<event>
 8    1  0.1273312E-005  0.1980540E+03  0.7546771E-02  0.1155759E+00
         -1   -1    0    0    0  501 -0.00000000000E+00  0.00000000000E+00  0.43072121570E+03  0.43072121570E+03  0.00000000000E+00 0.  1.
          1   -1    0    0  501    0  0.00000000000E+00 -0.00000000000E+00 -0.14141807301E+03  0.14141807301E+03  0.00000000000E+00 0. -1.
         23    2    1    2    0    0  0.15031909154E+03 -0.31682211356E+02  0.32500591316E+03  0.37089296707E+03  0.91286130575E+02 0.  0.
         23    2    1    2    0    0 -0.15031909154E+03  0.31682211356E+02 -0.35702770470E+02  0.20124632164E+03  0.12500320939E+03 0.  0.
          5    1    4    4  502    0 -0.13675791768E+03  0.54866003822E+02 -0.65090050382E+02  0.16115772114E+03  0.47000000000E+01 0. -1.
         -5    1    4    4    0  502 -0.13561173860E+02 -0.23183792467E+02  0.29387279912E+02  0.40088600502E+02  0.47000000000E+01 0. -1.
        -11    1    3    3    0    0  0.57702131961E+02 -0.77376734642E+01  0.22536836208E+03  0.23276663474E+03  0.00000000000E+00 0.  1.
         11    1    3    3    0    0  0.92616959581E+02 -0.23944537892E+02  0.99637551081E+02  0.13812633233E+03  0.00000000000E+00 0. -1.
<mgrwt>
<rscale>  0 0.19302665E+03</rscale>
<asrwt>0</asrwt>
<pdfrwt beam="2">  1        1 0.21756627E-01 0.19805402E+03</pdfrwt>
<pdfrwt beam="1">  1       -1 0.66264802E-01 0.19805402E+03</pdfrwt>
<totfact> 0.54904050E+02</totfact>
</mgrwt>
</event>
<event>
 8    1  0.1273312E-005  0.1301390E+03  0.7546771E-02  0.1241133E+00
         -3   -1    0    0    0  501 -0.00000000000E+00  0.00000000000E+00  0.26112447851E+02  0.26112447851E+02  0.00000000000E+00 0.  1.
          3   -1    0    0  501    0  0.00000000000E+00 -0.00000000000E+00 -0.93170551502E+03  0.93170551502E+03  0.00000000000E+00 0. -1.
         23    2    1    2    0    0 -0.14582127843E+02 -0.33132246089E+02 -0.93533698997E+02  0.13539679763E+03  0.90957989074E+02 0.  0.
         23    2    1    2    0    0  0.14582127843E+02  0.33132246089E+02 -0.81205936817E+03  0.82242116524E+03  0.12500308565E+03 0.  0.
          5    1    4    4  502    0  0.54839525871E+02 -0.23679731622E+02 -0.34192380313E+03  0.34713409575E+03  0.47000000000E+01 0. -1.
         -5    1    4    4    0  502 -0.40257398027E+02  0.56811977711E+02 -0.47013556504E+03  0.47528706949E+03  0.47000000000E+01 0. -1.
        -11    1    3    3    0    0 -0.14296889236E+02  0.23705111569E+02 -0.21330197765E+01  0.27764782183E+02  0.00000000000E+00 0.  1.
         11    1    3    3    0    0 -0.28523860703E+00 -0.56837357658E+02 -0.91400679220E+02  0.10763201544E+03  0.00000000000E+00 0. -1.
<mgrwt>
<rscale>  0 0.12119855E+03</rscale>
<asrwt>0</asrwt>
<pdfrwt beam="2">  1        3 0.14333930E+00 0.13013899E+03</pdfrwt>
<pdfrwt beam="1">  1       -3 0.40173000E-02 0.13013899E+03</pdfrwt>
<totfact> 0.28839915E+02</totfact>
</mgrwt>
</event>
<event>
 8    1  0.1273312E-005  0.1376810E+03  0.7546771E-02  0.1227689E+00
         -1   -1    0    0    0  501 -0.00000000000E+00  0.00000000000E+00  0.51995696307E+02  0.51995696307E+02  0.00000000000E+00 0.  1.
          1   -1    0    0  501    0  0.00000000000E+00 -0.00000000000E+00 -0.30623937367E+03  0.30623937367E+03  0.00000000000E+00 0. -1.
         23    2    1    2    0    0  0.52384633164E+02 -0.24243940159E+02 -0.75074256181E+02  0.13227545396E+03  0.92351141593E+02 0.  0.
         23    2    1    2    0    0 -0.52384633164E+02  0.24243940159E+02 -0.17916942118E+03  0.22595961602E+03  0.12499659258E+03 0.  0.
          5    1    4    4  502    0 -0.15121826747E+02  0.31983592109E+02  0.65822411009E+01  0.36290986571E+02  0.47000000000E+01 0.  1.
         -5    1    4    4    0  502 -0.37262806418E+02 -0.77396519506E+01 -0.18575166228E+03  0.18966862945E+03  0.47000000000E+01 0.  1.
        -11    1    3    3    0    0  0.11342459429E+02 -0.27570439610E+02 -0.84866328430E+02  0.89950398706E+02  0.00000000000E+00 0. -1.
         11    1    3    3    0    0  0.41042173735E+02  0.33264994510E+01  0.97920722492E+01  0.42325055256E+02  0.00000000000E+00 0.  1.
<mgrwt>
<rscale>  0 0.12984318E+03</rscale>
<asrwt>0</asrwt>
<pdfrwt beam="2">  1        1 0.47113750E-01 0.13768103E+03</pdfrwt>
<pdfrwt beam="1">  1       -1 0.79993379E-02 0.13768103E+03</pdfrwt>
<totfact> 0.70079583E+03</totfact>
</mgrwt>
</event>
<event>
 7    1  0.1273312E-005  0.2469727E+03  0.7546771E-02  0.1153238E+00
         -2   -1    0    0    0  501 -0.00000000000E+00  0.00000000000E+00  0.19779462868E+02  0.19779462868E+02  0.00000000000E+00 0.  1.
          2   -1    0    0  501    0  0.00000000000E+00 -0.00000000000E+00 -0.15462222679E+04  0.15462222679E+04  0.00000000000E+00 0. -1.
         23    2    1    2    0    0  0.30681754791E+02  0.20538920035E+02 -0.32293197998E+03  0.33741155752E+03  0.90544343502E+02 0.  0.
          5    1    1    2  502    0 -0.67023337016E+01 -0.86245937562E+02 -0.11009865331E+04  0.11043897496E+04  0.47000000000E+01 0. -1.
         -5    1    1    2    0  502 -0.23979421089E+02  0.65707017527E+02 -0.10252429198E+03  0.12420042365E+03  0.47000000000E+01 0.  1.
        -11    1    3    3    0    0  0.48705706835E+02 -0.19602434131E+02 -0.20240587617E+03  0.20910437587E+03  0.00000000000E+00 0.  1.
         11    1    3    3    0    0 -0.18023952045E+02  0.40141354166E+02 -0.12052610381E+03  0.12830718164E+03  0.00000000000E+00 0. -1.
<mgrwt>
<rscale>  0 0.19590811E+03</rscale>
<asrwt>0</asrwt>
<pdfrwt beam="2">  1        2 0.23788033E+00 0.24697269E+03</pdfrwt>
<pdfrwt beam="1">  1       -2 0.30429945E-02 0.24697269E+03</pdfrwt>
<totfact> 0.53329099E+03</totfact>
</mgrwt>
</event>
<event>
 8    1  0.1273312E-005  0.1665381E+03  0.7546771E-02  0.1188513E+00
          1   -1    0    0  501    0  0.00000000000E+00  0.00000000000E+00  0.81668286149E+03  0.81668286149E+03  0.00000000000E+00 0. -1.
         -1   -1    0    0    0  501 -0.00000000000E+00 -0.00000000000E+00 -0.34836075211E+02  0.34836075211E+02  0.00000000000E+00 0.  1.
         23    2    1    2    0    0 -0.22833979222E+01 -0.11002585306E+03  0.19498879359E+03  0.24148840247E+03  0.90471634525E+02 0.  0.
         23    2    1    2    0    0  0.22833979222E+01  0.11002585306E+03  0.58685799269E+03  0.61003053423E+03  0.12499618742E+03 0.  0.
          5    1    4    4  502    0  0.34698608137E+02  0.56970870326E+01  0.45274071543E+02  0.57517664777E+02  0.47000000000E+01 0.  1.
         -5    1    4    4    0  502 -0.32415210215E+02  0.10432876602E+03  0.54158392114E+03  0.55251286946E+03  0.47000000000E+01 0.  1.
        -11    1    3    3    0    0  0.34283570690E+02 -0.16499715235E+02  0.30475644231E+02  0.48748012405E+02  0.00000000000E+00 0.  1.
         11    1    3    3    0    0 -0.36566968612E+02 -0.93526137822E+02  0.16451314936E+03  0.19274039007E+03  0.00000000000E+00 0. -1.
<mgrwt>
<rscale>  0 0.16016279E+03</rscale>
<asrwt>0</asrwt>
<pdfrwt beam="1">  1        1 0.12564350E+00 0.16653813E+03</pdfrwt>
<pdfrwt beam="2">  1       -1 0.53593968E-02 0.16653813E+03</pdfrwt>
<totfact> 0.34838185E+03</totfact>
</mgrwt>
</event>
<event>
 8    1  0.1273312E-005  0.1301120E+03  0.7546771E-02  0.1241462E+00
         -1   -1    0    0    0  501 -0.00000000000E+00  0.00000000000E+00  0.23856451792E+02  0.23856451792E+02  0.00000000000E+00 0.  1.
          1   -1    0    0  501    0  0.00000000000E+00 -0.00000000000E+00 -0.63926149970E+03  0.63926149970E+03  0.00000000000E+00 0. -1.
         23    2    1    2    0    0  0.34273568205E+02 -0.11352124791E+02 -0.14187876525E+03  0.17204129836E+03  0.90360810635E+02 0.  0.
         23    2    1    2    0    0 -0.34273568205E+02  0.11352124791E+02 -0.47352628266E+03  0.49107665313E+03  0.12500236265E+03 0.  0.
          5    1    4    4  502    0 -0.44556721247E+02  0.57577567336E+02 -0.18888664016E+03  0.20248637114E+03  0.47000000000E+01 0.  1.
         -5    1    4    4    0  502  0.10283153042E+02 -0.46225442545E+02 -0.28463964250E+03  0.28859028199E+03  0.47000000000E+01 0.  1.
        -11    1    3    3    0    0 -0.68137262296E+01 -0.30759560812E+02 -0.10792296356E+02  0.33302418938E+02  0.00000000000E+00 0.  1.
         11    1    3    3    0    0  0.41087294434E+02  0.19407436021E+02 -0.13108646889E+03  0.13873887943E+03  0.00000000000E+00 0. -1.
<mgrwt>
<rscale>  0 0.12099681E+03</rscale>
<asrwt>0</asrwt>
<pdfrwt beam="2">  1        1 0.98347920E-01 0.13011202E+03</pdfrwt>
<pdfrwt beam="1">  1       -1 0.36702235E-02 0.13011202E+03</pdfrwt>
<totfact> 0.85969854E+03</totfact>
</mgrwt>
</event>
<event>
 8    1  0.1273312E-005  0.1374727E+03  0.7546771E-02  0.1228274E+00
          1   -1    0    0  501    0  0.00000000000E+00  0.00000000000E+00  0.43816576186E+03  0.43816576186E+03  0.00000000000E+00 0. -1.
         -1   -1    0    0    0  501 -0.00000000000E+00 -0.00000000000E+00 -0.38655194366E+02  0.38655194366E+02  0.00000000000E+00 0.  1.
         23    2    1    2    0    0 -0.33757162507E+02 -0.46199102516E+02  0.99918691804E+02  0.14719382510E+03  0.91697186883E+02 0.  0.
         23    2    1    2    0    0  0.33757162507E+02  0.46199102516E+02  0.29959187569E+03  0.32962713112E+03  0.12499940200E+03 0.  0.
          5    1    4    4  502    0  0.22193853361E+02  0.67451274427E+02  0.29634224993E+03  0.30476722370E+03  0.47000000000E+01 0.  1.
         -5    1    4    4    0  502  0.11563309146E+02 -0.21252171910E+02  0.32496257557E+01  0.24859907419E+02  0.47000000000E+01 0.  1.
        -11    1    3    3    0    0  0.10241644584E+02 -0.51511924785E+02  0.85949854098E+02  0.10072609939E+03  0.00000000000E+00 0. -1.
         11    1    3    3    0    0 -0.43998807091E+02  0.53128222688E+01  0.13968837706E+02  0.46467725711E+02  0.00000000000E+00 0.  1.
<mgrwt>
<rscale>  0 0.12945039E+03</rscale>
<asrwt>0</asrwt>
<pdfrwt beam="1">  1        1 0.67410114E-01 0.13747274E+03</pdfrwt>
<pdfrwt beam="2">  1       -1 0.59469533E-02 0.13747274E+03</pdfrwt>
<totfact> 0.69748384E+03</totfact>
</mgrwt>
</event>
<event>
 8    1  0.1273312E-005  0.1830677E+03  0.7546771E-02  0.1170021E+00
         -2   -1    0    0    0  501 -0.00000000000E+00  0.00000000000E+00  0.14828538669E+02  0.14828538669E+02  0.00000000000E+00 0.  1.
          2   -1    0    0  501    0  0.00000000000E+00 -0.00000000000E+00 -0.22770251741E+04  0.22770251741E+04  0.00000000000E+00 0. -1.
         23    2    1    2    0    0 -0.12553294324E+03 -0.46153511063E+02 -0.68355756778E+03  0.70263532732E+03  0.92502909722E+02 0.  0.
         23    2    1    2    0    0  0.12553294324E+03  0.46153511063E+02 -0.15786390677E+04  0.15892183855E+04  0.12500041726E+03 0.  0.
          5    1    4    4  502    0  0.13905776740E+03  0.48086697857E+01 -0.12223901690E+04  0.12302926486E+04  0.47000000000E+01 0. -1.
         -5    1    4    4    0  502 -0.13524824161E+02  0.41344841278E+02 -0.35624889862E+03  0.35892573680E+03  0.47000000000E+01 0. -1.
        -11    1    3    3    0    0 -0.11437455306E+03 -0.31820662367E+01 -0.41730878539E+03  0.43271039541E+03  0.00000000000E+00 0.  1.
         11    1    3    3    0    0 -0.11158390180E+02 -0.42971444827E+02 -0.26624878239E+03  0.26992493191E+03  0.00000000000E+00 0. -1.
<mgrwt>
<rscale>  0 0.17772667E+03</rscale>
<asrwt>0</asrwt>
<pdfrwt beam="2">  1        2 0.35031131E+00 0.18306767E+03</pdfrwt>
<pdfrwt beam="1">  1       -2 0.22813153E-02 0.18306767E+03</pdfrwt>
<totfact> 0.33803186E+03</totfact>
</mgrwt>
</event>
<event>
 8    1  0.1273312E-005  0.1598220E+03  0.7546771E-02  0.1195414E+00
         -1   -1    0    0    0  501 -0.00000000000E+00  0.00000000000E+00  0.19760359062E+02  0.19760359062E+02  0.00000000000E+00 0.  1.
          1   -1    0    0  501    0  0.00000000000E+00 -0.00000000000E+00 -0.13022399921E+04  0.13022399921E+04  0.00000000000E+00 0. -1.
         23    2    1    2    0    0 -0.41770455519E+02  0.90408332921E+02 -0.35870878103E+03  0.38450600774E+03  0.96200014457E+02 0.  0.
         23    2    1    2    0    0  0.41770455519E+02 -0.90408332921E+02 -0.92377085197E+03  0.93749434338E+03  0.12499847726E+03 0.  0.
          5    1    4    4  502    0  0.10068591656E+02  0.13896827862E+02 -0.18488758703E+02  0.25659745925E+02  0.47000000000E+01 0. -1.
         -5    1    4    4    0  502  0.31701863863E+02 -0.10430516078E+03 -0.90528209326E+03  0.91183459746E+03  0.47000000000E+01 0. -1.
        -11    1    3    3    0    0 -0.27487969148E+02  0.16496175525E+02 -0.20572256518E+02  0.38091074979E+02  0.00000000000E+00 0.  1.
         11    1    3    3    0    0 -0.14282486371E+02  0.73912157395E+02 -0.33813652451E+03  0.34641493276E+03  0.00000000000E+00 0. -1.
<mgrwt>
<rscale>  0 0.15419250E+03</rscale>
<asrwt>0</asrwt>
<pdfrwt beam="2">  1        1 0.20034461E+00 0.15982195E+03</pdfrwt>
<pdfrwt beam="1">  1       -1 0.30400552E-02 0.15982195E+03</pdfrwt>
<totfact> 0.35628615E+03</totfact>
</mgrwt>
</event>
<event>
 8    1  0.1273312E-005  0.1436757E+03  0.7546771E-02  0.1218438E+00
         -2   -1    0    0    0  501 -0.00000000000E+00  0.00000000000E+00  0.24823057560E+02  0.24823057560E+02  0.00000000000E+00 0.  1.
          2   -1    0    0  501    0  0.00000000000E+00 -0.00000000000E+00 -0.68150706976E+03  0.68150706976E+03  0.00000000000E+00 0. -1.
         23    2    1    2    0    0  0.47283069661E+02  0.52752002617E+02 -0.28035614195E+03  0.30350836014E+03  0.92191625904E+02 0.  0.
         23    2    1    2    0    0 -0.47283069661E+02 -0.52752002617E+02 -0.37632787025E+03  0.40282176718E+03  0.12499699090E+03 0.  0.
          5    1    4    4  502    0 -0.39183522264E+02 -0.49246484084E+02 -0.62448850967E+02  0.88783520987E+02  0.47000000000E+01 0. -1.
         -5    1    4    4    0  502 -0.80995473964E+01 -0.35055185325E+01 -0.31387901928E+03  0.31403824620E+03  0.47000000000E+01 0. -1.
        -11    1    3    3    0    0 -0.82799184999E+00  0.34865025463E+02 -0.24663505829E+02  0.42714682380E+02  0.00000000000E+00 0.  1.
         11    1    3    3    0    0  0.48111061511E+02  0.17886977154E+02 -0.25569263612E+03  0.26079367776E+03  0.00000000000E+00 0. -1.
<mgrwt>
<rscale>  0 0.13627011E+03</rscale>
<asrwt>0</asrwt>
<pdfrwt beam="2">  1        2 0.10484725E+00 0.14367571E+03</pdfrwt>
<pdfrwt beam="1">  1       -2 0.38189316E-02 0.14367571E+03</pdfrwt>
<totfact> 0.12231414E+04</totfact>
</mgrwt>
</event>
<event>
 8    1  0.1273312E-005  0.1645608E+03  0.7546771E-02  0.1191007E+00
         -1   -1    0    0    0  501 -0.00000000000E+00  0.00000000000E+00  0.16840516573E+03  0.16840516573E+03  0.00000000000E+00 0.  1.
          1   -1    0    0  501    0  0.00000000000E+00 -0.00000000000E+00 -0.14791517231E+03  0.14791517231E+03  0.00000000000E+00 0. -1.
         23    2    1    2    0    0  0.91532691343E+02 -0.55474485176E+02  0.51371792948E+02  0.14888698594E+03  0.89847767823E+02 0.  0.
         23    2    1    2    0    0 -0.91532691343E+02  0.55474485176E+02 -0.30881799533E+02  0.16743335210E+03  0.12499835904E+03 0.  0.
          5    1    4    4  502    0 -0.53330474054E+02  0.11728780030E+01 -0.71597542779E+02  0.89408127358E+02  0.47000000000E+01 0.  1.
         -5    1    4    4    0  502 -0.38202217288E+02  0.54301607173E+02  0.40715743245E+02  0.78025224738E+02  0.47000000000E+01 0.  1.
        -11    1    3    3    0    0  0.90156205968E+02 -0.74763482626E+02  0.54696953242E+02  0.12926514032E+03  0.00000000000E+00 0.  1.
         11    1    3    3    0    0  0.13764853753E+01  0.19288997450E+02 -0.33251602936E+01  0.19621845621E+02  0.00000000000E+00 0. -1.
<mgrwt>
<rscale>  0 0.15797111E+03</rscale>
<asrwt>0</asrwt>
<pdfrwt beam="2">  1        1 0.22756180E-01 0.16456075E+03</pdfrwt>
<pdfrwt beam="1">  1       -1 0.25908487E-01 0.16456075E+03</pdfrwt>
<totfact> 0.27654001E+03</totfact>
</mgrwt>
</event>
<event>
 8    1  0.1273312E-005  0.2244220E+03  0.7546771E-02  0.1134448E+00
         -2   -1    0    0    0  501 -0.00000000000E+00  0.00000000000E+00  0.22316692185E+03  0.22316692185E+03  0.00000000000E+00 0. -1.
          2   -1    0    0  501    0  0.00000000000E+00 -0.00000000000E+00 -0.26138216803E+03  0.26138216803E+03  0.00000000000E+00 0.  1.
         23    2    1    2    0    0  0.18536760560E+03  0.19609663579E+02  0.93007996070E+02  0.22457834588E+03  0.83900286011E+02 0.  0.
         23    2    1    2    0    0 -0.18536760560E+03 -0.19609663579E+02 -0.13122324225E+03  0.25997074401E+03  0.12497823940E+03 0.  0.
          5    1    4    4  502    0 -0.15689054176E+03 -0.46488701945E+02 -0.14450269573E+03  0.21835512491E+03  0.47000000000E+01 0.  1.
         -5    1    4    4    0  502 -0.28477063833E+02  0.26879038365E+02  0.13279453479E+02  0.41615619096E+02  0.47000000000E+01 0.  1.
        -11    1    3    3    0    0  0.11142603174E+03  0.16380200483E+02  0.95465501233E+01  0.11302746629E+03  0.00000000000E+00 0. -1.
         11    1    3    3    0    0  0.73941573858E+02  0.32294630961E+01  0.83461445946E+02  0.11155087958E+03  0.00000000000E+00 0.  1.
<mgrwt>
<rscale>  0 0.21924344E+03</rscale>
<asrwt>0</asrwt>
<pdfrwt beam="2">  1        2 0.40212641E-01 0.22442203E+03</pdfrwt>
<pdfrwt beam="1">  1       -2 0.34333373E-01 0.22442203E+03</pdfrwt>
<totfact> 0.10100523E+03</totfact>
</mgrwt>
</event>
<event>
 8    1  0.1273312E-005  0.1657755E+03  0.7546771E-02  0.1187953E+00
         -3   -1    0    0    0  501 -0.00000000000E+00  0.00000000000E+00  0.26105516647E+03  0.26105516647E+03  0.00000000000E+00 0.  1.
          3   -1    0    0  501    0  0.00000000000E+00 -0.00000000000E+00 -0.97646335810E+02  0.97646335810E+02  0.00000000000E+00 0. -1.
         23    2    1    2    0    0 -0.47161996351E+02  0.98268047922E+02  0.11488296854E+03  0.18596967993E+03  0.97497498679E+02 0.  0.
         23    2    1    2    0    0  0.47161996351E+02 -0.98268047922E+02  0.48525862119E+02  0.17273182235E+03  0.12490260212E+03 0.  0.
          5    1    4    4  502    0  0.74865491683E+02 -0.10265340111E+03  0.61779754775E+02  0.14135554713E+03  0.47000000000E+01 0. -1.
         -5    1    4    4    0  502 -0.27703495332E+02  0.43853531924E+01 -0.13253892655E+02  0.31376275221E+02  0.47000000000E+01 0. -1.
        -11    1    3    3    0    0 -0.41509678840E+02  0.89775055477E+01  0.28071203566E+01  0.42562060194E+02  0.00000000000E+00 0. -1.
         11    1    3    3    0    0 -0.56523175109E+01  0.89290542374E+02  0.11207584819E+03  0.14340761973E+03  0.00000000000E+00 0.  1.
<mgrwt>
<rscale>  0 0.16066012E+03</rscale>
<asrwt>0</asrwt>
<pdfrwt beam="2">  1        3 0.15022513E-01 0.16577552E+03</pdfrwt>
<pdfrwt beam="1">  1       -3 0.40162333E-01 0.16577552E+03</pdfrwt>
<totfact> 0.54371813E+02</totfact>
</mgrwt>
</event>
<event>
 8    1  0.1273312E-005  0.1688012E+03  0.7546771E-02  0.1185459E+00
         -1   -1    0    0    0  501 -0.00000000000E+00  0.00000000000E+00  0.29960015270E+03  0.29960015270E+03  0.00000000000E+00 0.  1.
          1   -1    0    0  501    0  0.00000000000E+00 -0.00000000000E+00 -0.17254399794E+03  0.17254399794E+03  0.00000000000E+00 0. -1.
         23    2    1    2    0    0 -0.11307878731E+03 -0.88139530936E+01  0.23130284448E+03  0.27374756812E+03  0.92586323393E+02 0.  0.
         23    2    1    2    0    0  0.11307878731E+03  0.88139530936E+01 -0.10424668972E+03  0.19839658252E+03  0.12501733371E+03 0.  0.
          5    1    4    4  502    0  0.12790105257E+03  0.39140962331E+02 -0.90933410904E+02  0.16180750724E+03  0.47000000000E+01 0.  1.
         -5    1    4    4    0  502 -0.14822265259E+02 -0.30327009237E+02 -0.13313278817E+02  0.36589075276E+02  0.47000000000E+01 0.  1.
        -11    1    3    3    0    0 -0.96954682498E+02 -0.32939179990E+02  0.11545684529E+03  0.15432265926E+03  0.00000000000E+00 0. -1.
         11    1    3    3    0    0 -0.16124104817E+02  0.24125226896E+02  0.11584599919E+03  0.11942490886E+03  0.00000000000E+00 0.  1.
<mgrwt>
<rscale>  0 0.16290198E+03</rscale>
<asrwt>0</asrwt>
<pdfrwt beam="2">  1        1 0.26545231E-01 0.16880116E+03</pdfrwt>
<pdfrwt beam="1">  1       -1 0.46092331E-01 0.16880116E+03</pdfrwt>
<totfact> 0.84313274E+02</totfact>
</mgrwt>
</event>
<event>
 8    1  0.1273312E-005  0.1324862E+03  0.7546771E-02  0.1238385E+00
          1   -1    0    0  501    0  0.00000000000E+00  0.00000000000E+00  0.78311854842E+03  0.78311854842E+03  0.00000000000E+00 0. -1.
         -1   -1    0    0    0  501 -0.00000000000E+00 -0.00000000000E+00 -0.23216576175E+02  0.23216576175E+02  0.00000000000E+00 0.  1.
         23    2    1    2    0    0 -0.38250299908E+02  0.21554482454E+02  0.13121320533E+03  0.16383831479E+03  0.87740566356E+02 0.  0.
         23    2    1    2    0    0  0.38250299908E+02 -0.21554482454E+02  0.62868876691E+03  0.64249680980E+03  0.12499961521E+03 0.  0.
          5    1    4    4  502    0  0.15835106748E+02 -0.43180562803E+02  0.59338475041E+03  0.59518305052E+03  0.47000000000E+01 0.  1.
         -5    1    4    4    0  502  0.22415193160E+02  0.21626080349E+02  0.35304016507E+02  0.47313759280E+02  0.47000000000E+01 0.  1.
        -11    1    3    3    0    0 -0.14655347396E+02 -0.23950092147E+02  0.99903610616E+02  0.10377435876E+03  0.00000000000E+00 0. -1.
         11    1    3    3    0    0 -0.23594952512E+02  0.45504574601E+02  0.31309594713E+02  0.60063956036E+02  0.00000000000E+00 0.  1.
<mgrwt>
<rscale>  0 0.12290205E+03</rscale>
<asrwt>0</asrwt>
<pdfrwt beam="1">  1        1 0.12047976E+00 0.13248617E+03</pdfrwt>
<pdfrwt beam="2">  1       -1 0.35717816E-02 0.13248617E+03</pdfrwt>
<totfact> 0.66930504E+03</totfact>
</mgrwt>
</event>
<event>
 8    1  0.1273312E-005  0.1484432E+03  0.7546771E-02  0.1212086E+00
         -1   -1    0    0    0  501 -0.00000000000E+00  0.00000000000E+00  0.17981268984E+02  0.17981268984E+02  0.00000000000E+00 0.  1.
          1   -1    0    0  501    0  0.00000000000E+00 -0.00000000000E+00 -0.14778318741E+04  0.14778318741E+04  0.00000000000E+00 0. -1.
         23    2    1    2    0    0 -0.79065649527E+02  0.12624733425E+02 -0.25753991805E+03  0.28437335360E+03  0.90170028376E+02 0.  0.
         23    2    1    2    0    0  0.79065649527E+02 -0.12624733425E+02 -0.12023106871E+04  0.12114397895E+04  0.12499845795E+03 0.  0.
          5    1    4    4  502    0 -0.15407680728E+02  0.32031065796E+02 -0.51146271842E+03  0.51271784457E+03  0.47000000000E+01 0. -1.
         -5    1    4    4    0  502  0.94473330256E+02 -0.44655799221E+02 -0.69084796863E+03  0.69872194490E+03  0.47000000000E+01 0. -1.
        -11    1    3    3    0    0  0.96368343883E+01  0.22810877579E+02 -0.24586656259E+02  0.34895678514E+02  0.00000000000E+00 0.  1.
         11    1    3    3    0    0 -0.88702483916E+02 -0.10186144153E+02 -0.23295326180E+03  0.24947767509E+03  0.00000000000E+00 0. -1.
<mgrwt>
<rscale>  0 0.14092756E+03</rscale>
<asrwt>0</asrwt>
<pdfrwt beam="2">  1        1 0.22735874E+00 0.14844317E+03</pdfrwt>
<pdfrwt beam="1">  1       -1 0.27663492E-02 0.14844317E+03</pdfrwt>
<totfact> 0.31252247E+03</totfact>
</mgrwt>
</event>
<event>
 8    1  0.1273312E-005  0.1558672E+03  0.7546771E-02  0.1201813E+00
          1   -1    0    0  501    0  0.00000000000E+00  0.00000000000E+00  0.39323855940E+03  0.39323855940E+03  0.00000000000E+00 0. -1.
         -1   -1    0    0    0  501 -0.00000000000E+00 -0.00000000000E+00 -0.54344598258E+02  0.54344598258E+02  0.00000000000E+00 0.  1.
         23    2    1    2    0    0 -0.60611766409E+02 -0.70683310901E+02  0.10747279428E+03  0.16856639123E+03  0.90522428584E+02 0.  0.
         23    2    1    2    0    0  0.60611766409E+02  0.70683310901E+02  0.23142116687E+03  0.27901676642E+03  0.12499873121E+03 0.  0.
          5    1    4    4  502    0 -0.29952607896E+02 -0.32787600771E+01  0.92382684940E+02  0.97285967458E+02  0.47000000000E+01 0.  1.
         -5    1    4    4    0  502  0.90564374305E+02  0.73962070979E+02  0.13903848192E+03  0.18173079897E+03  0.47000000000E+01 0.  1.
        -11    1    3    3    0    0  0.22502162001E+02 -0.27574432070E+02  0.37334061656E+02  0.51580313671E+02  0.00000000000E+00 0. -1.
         11    1    3    3    0    0 -0.83113928410E+02 -0.43108878831E+02  0.70138732621E+02  0.11698607756E+03  0.00000000000E+00 0.  1.
<mgrwt>
<rscale>  0 0.14891449E+03</rscale>
<asrwt>0</asrwt>
<pdfrwt beam="1">  1        1 0.60498238E-01 0.15586725E+03</pdfrwt>
<pdfrwt beam="2">  1       -1 0.83607077E-02 0.15586725E+03</pdfrwt>
<totfact> 0.48296741E+03</totfact>
</mgrwt>
</event>
<event>
 8    1  0.1273312E-005  0.1345553E+03  0.7546771E-02  0.1231893E+00
         -1   -1    0    0    0  501 -0.00000000000E+00  0.00000000000E+00  0.90945931985E+02  0.90945931985E+02  0.00000000000E+00 0.  1.
          1   -1    0    0  501    0  0.00000000000E+00 -0.00000000000E+00 -0.16668367134E+03  0.16668367134E+03  0.00000000000E+00 0. -1.
         23    2    1    2    0    0  0.14322499617E+02 -0.47919257123E+02 -0.87653422099E+01  0.10732848741E+03  0.94557833029E+02 0.  0.
         23    2    1    2    0    0 -0.14322499617E+02  0.47919257123E+02 -0.66972397142E+02  0.15030111591E+03  0.12491490811E+03 0.  0.
          5    1    4    4  502    0 -0.64985433233E+02  0.44962178346E+02 -0.21581121304E+02  0.82052049401E+02  0.47000000000E+01 0. -1.
         -5    1    4    4    0  502  0.50662933616E+02  0.29570787771E+01 -0.45391275838E+02  0.68249066512E+02  0.47000000000E+01 0. -1.
        -11    1    3    3    0    0 -0.41563564640E+01 -0.32353076547E+02  0.40771084318E+02  0.52213773830E+02  0.00000000000E+00 0.  1.
         11    1    3    3    0    0  0.18478856081E+02 -0.15566180576E+02 -0.49536426528E+02  0.55114713580E+02  0.00000000000E+00 0. -1.
<mgrwt>
<rscale>  0 0.12705478E+03</rscale>
<asrwt>0</asrwt>
<pdfrwt beam="2">  1        1 0.25643642E-01 0.13455528E+03</pdfrwt>
<pdfrwt beam="1">  1       -1 0.13991682E-01 0.13455528E+03</pdfrwt>
<totfact> 0.63198898E+03</totfact>
</mgrwt>
</event>
<event>
 8    1  0.1273312E-005  0.1643221E+03  0.7546771E-02  0.1191117E+00
          1   -1    0    0  501    0  0.00000000000E+00  0.00000000000E+00  0.78306196410E+03  0.78306196410E+03  0.00000000000E+00 0. -1.
         -1   -1    0    0    0  501 -0.00000000000E+00 -0.00000000000E+00 -0.44842443172E+02  0.44842443172E+02  0.00000000000E+00 0.  1.
         23    2    1    2    0    0 -0.10043392289E+03  0.35911779992E+02  0.10859540663E+03  0.17719073946E+03  0.90702629511E+02 0.  0.
         23    2    1    2    0    0  0.10043392289E+03 -0.35911779992E+02  0.62962411429E+03  0.65071366781E+03  0.12500049346E+03 0.  0.
          5    1    4    4  502    0 -0.19005991431E+02 -0.24688016670E+01  0.18289734446E+02  0.26905892998E+02  0.47000000000E+01 0.  1.
         -5    1    4    4    0  502  0.11943991432E+03 -0.33442978325E+02  0.61133437985E+03  0.62380777481E+03  0.47000000000E+01 0.  1.
        -11    1    3    3    0    0 -0.49283869299E+02 -0.14350499674E+02  0.55245400432E+01  0.51627097117E+02  0.00000000000E+00 0.  1.
         11    1    3    3    0    0 -0.51150053588E+02  0.50262279666E+02  0.10307086659E+03  0.12556364234E+03  0.00000000000E+00 0. -1.
<mgrwt>
<rscale>  0 0.15787521E+03</rscale>
<asrwt>0</asrwt>
<pdfrwt beam="1">  1        1 0.12047106E+00 0.16432210E+03</pdfrwt>
<pdfrwt beam="2">  1       -1 0.68988380E-02 0.16432210E+03</pdfrwt>
<totfact> 0.25430184E+03</totfact>
</mgrwt>
</event>
<event>
 8    1  0.1273312E-005  0.1496321E+03  0.7546771E-02  0.1210522E+00
         -1   -1    0    0    0  501 -0.00000000000E+00  0.00000000000E+00  0.53515638567E+03  0.53515638567E+03  0.00000000000E+00 0.  1.
          1   -1    0    0  501    0  0.00000000000E+00 -0.00000000000E+00 -0.84589067603E+02  0.84589067603E+02  0.00000000000E+00 0. -1.
         23    2    1    2    0    0 -0.37443555165E+02 -0.73230971011E+02  0.45403894317E+03  0.47007305169E+03  0.89735818203E+02 0.  0.
         23    2    1    2    0    0  0.37443555165E+02  0.73230971011E+02 -0.34716250979E+01  0.14967240159E+03  0.12499992271E+03 0.  0.
          5    1    4    4  502    0 -0.28529504928E+02  0.61571781190E+02  0.30338793066E+02  0.74481871990E+02  0.47000000000E+01 0.  1.
         -5    1    4    4    0  502  0.65973060093E+02  0.11659189821E+02 -0.33810418164E+02  0.75190529601E+02  0.47000000000E+01 0.  1.
        -11    1    3    3    0    0 -0.49648900556E+02 -0.65019306732E+02  0.44573584564E+03  0.45318094362E+03  0.00000000000E+00 0.  1.
         11    1    3    3    0    0  0.12205345391E+02 -0.82116642788E+01  0.83030975348E+01  0.16892108069E+02  0.00000000000E+00 0. -1.
<mgrwt>
<rscale>  0 0.14210679E+03</rscale>
<asrwt>0</asrwt>
<pdfrwt beam="2">  1        1 0.13013703E-01 0.14963213E+03</pdfrwt>
<pdfrwt beam="1">  1       -1 0.82331749E-01 0.14963213E+03</pdfrwt>
<totfact> 0.68798804E+02</totfact>
</mgrwt>
</event>
<event>
 8    1  0.1273312E-005  0.1329770E+03  0.7546771E-02  0.1235968E+00
         -1   -1    0    0    0  501 -0.00000000000E+00  0.00000000000E+00  0.16399594809E+02  0.16399594809E+02  0.00000000000E+00 0.  1.
          1   -1    0    0  501    0  0.00000000000E+00 -0.00000000000E+00 -0.84212089952E+03  0.84212089952E+03  0.00000000000E+00 0. -1.
         23    2    1    2    0    0  0.21560453737E+02  0.39921926257E+02 -0.34458408530E+03  0.35934527728E+03  0.91281011715E+02 0.  0.
         23    2    1    2    0    0 -0.21560453737E+02 -0.39921926257E+02 -0.48113721941E+03  0.49917521705E+03  0.12499704017E+03 0.  0.
          5    1    4    4  502    0  0.12298589364E+02  0.42086490222E+02 -0.16474560398E+03  0.17054539569E+03  0.47000000000E+01 0.  1.
         -5    1    4    4    0  502 -0.33859043101E+02 -0.82008416479E+02 -0.31639161543E+03  0.32862982136E+03  0.47000000000E+01 0.  1.
        -11    1    3    3    0    0  0.23758371435E+02  0.68820638089E+02 -0.25496846025E+03  0.26515968049E+03  0.00000000000E+00 0. -1.
         11    1    3    3    0    0 -0.21979176984E+01 -0.28898711832E+02 -0.89615625055E+02  0.94185596785E+02  0.00000000000E+00 0.  1.
<mgrwt>
<rscale>  0 0.12442671E+03</rscale>
<asrwt>0</asrwt>
<pdfrwt beam="2">  1        1 0.12955709E+00 0.13297697E+03</pdfrwt>
<pdfrwt beam="1">  1       -1 0.25230141E-02 0.13297697E+03</pdfrwt>
<totfact> 0.99453244E+03</totfact>
</mgrwt>
</event>
<event>
 8    1  0.1273312E-005  0.1433338E+03  0.7546771E-02  0.1219830E+00
          1   -1    0    0  501    0  0.00000000000E+00  0.00000000000E+00  0.11528514992E+03  0.11528514992E+03  0.00000000000E+00 0. -1.
         -1   -1    0    0    0  501 -0.00000000000E+00 -0.00000000000E+00 -0.14469028470E+03  0.14469028470E+03  0.00000000000E+00 0.  1.
         23    2    1    2    0    0 -0.69176292695E+02 -0.11610044837E+02 -0.25724078401E+02  0.11659433554E+03  0.89511777208E+02 0.  0.
         23    2    1    2    0    0  0.69176292695E+02  0.11610044837E+02 -0.36810563794E+01  0.14338109907E+03  0.12499774711E+03 0.  0.
          5    1    4    4  502    0  0.98997648775E+02  0.32444925264E+02  0.87494703807E+01  0.10465109111E+03  0.47000000000E+01 0. -1.
         -5    1    4    4    0  502 -0.29821356081E+02 -0.20834880428E+02 -0.12430526760E+02  0.38730007959E+02  0.47000000000E+01 0. -1.
        -11    1    3    3    0    0 -0.22535664294E+02 -0.46161040733E+02  0.37322578704E+01  0.51503665846E+02  0.00000000000E+00 0. -1.
         11    1    3    3    0    0 -0.46640628401E+02  0.34550995897E+02 -0.29456336271E+02  0.65090669697E+02  0.00000000000E+00 0.  1.
<mgrwt>
<rscale>  0 0.13527636E+03</rscale>
<asrwt>0</asrwt>
<pdfrwt beam="1">  1        1 0.17736177E-01 0.14333384E+03</pdfrwt>
<pdfrwt beam="2">  1       -1 0.22260044E-01 0.14333384E+03</pdfrwt>
<totfact> 0.48398430E+03</totfact>
</mgrwt>
</event>
<event>
 8    1  0.1273312E-005  0.1350010E+03  0.7546771E-02  0.1232568E+00
          1   -1    0    0  501    0  0.00000000000E+00  0.00000000000E+00  0.41791723844E+03  0.41791723844E+03  0.00000000000E+00 0. -1.
         -1   -1    0    0    0  501 -0.00000000000E+00 -0.00000000000E+00 -0.35096126701E+02  0.35096126701E+02  0.00000000000E+00 0.  1.
         23    2    1    2    0    0  0.49082931284E+02 -0.13840473595E+02  0.20139783699E+03  0.22687251528E+03  0.91155672303E+02 0.  0.
         23    2    1    2    0    0 -0.49082931284E+02  0.13840473595E+02  0.18142327476E+03  0.22614084987E+03  0.12499834600E+03 0.  0.
          5    1    4    4  502    0 -0.20086669623E+02 -0.19010999686E+02 -0.99450502415E+01  0.29763844341E+02  0.47000000000E+01 0. -1.
         -5    1    4    4    0  502 -0.28996261661E+02  0.32851473281E+02  0.19136832500E+03  0.19637700553E+03  0.47000000000E+01 0. -1.
        -11    1    3    3    0    0  0.40687454788E+02 -0.49512407597E+02  0.97263201759E+02  0.11647780003E+03  0.00000000000E+00 0.  1.
         11    1    3    3    0    0  0.83954764958E+01  0.35671934002E+02  0.10413463523E+03  0.11039471525E+03  0.00000000000E+00 0. -1.
<mgrwt>
<rscale>  0 0.12661383E+03</rscale>
<asrwt>0</asrwt>
<pdfrwt beam="1">  1        1 0.64294956E-01 0.13500103E+03</pdfrwt>
<pdfrwt beam="2">  1       -1 0.53994044E-02 0.13500103E+03</pdfrwt>
<totfact> 0.85408681E+03</totfact>
</mgrwt>
</event>
<event>
 8    1  0.1273312E-005  0.1980536E+03  0.7546771E-02  0.1155761E+00
         -1   -1    0    0    0  501 -0.00000000000E+00  0.00000000000E+00  0.19207531740E+03  0.19207531740E+03  0.00000000000E+00 0.  1.
          1   -1    0    0  501    0  0.00000000000E+00 -0.00000000000E+00 -0.21957798031E+03  0.21957798031E+03  0.00000000000E+00 0. -1.
         23    2    1    2    0    0 -0.58344463604E+02 -0.14212101016E+03  0.68733262496E+02  0.19145657531E+03  0.91262812211E+02 0.  0.
         23    2    1    2    0    0  0.58344463604E+02  0.14212101016E+03 -0.96235925405E+02  0.22019672240E+03  0.12499114070E+03 0.  0.
          5    1    4    4  502    0  0.78299767028E+02  0.35960702793E+02 -0.63797550647E+02  0.10731376021E+03  0.47000000000E+01 0.  1.
         -5    1    4    4    0  502 -0.19955303424E+02  0.10616030737E+03 -0.32438374758E+02  0.11288296219E+03  0.47000000000E+01 0.  1.
        -11    1    3    3    0    0 -0.44623948932E+01  0.13037286121E+02  0.10830521193E+01  0.13822329741E+02  0.00000000000E+00 0.  1.
         11    1    3    3    0    0 -0.53882068711E+02 -0.15515829628E+03  0.67650210377E+02  0.17763424557E+03  0.00000000000E+00 0. -1.
<mgrwt>
<rscale>  0 0.19302532E+03</rscale>
<asrwt>0</asrwt>
<pdfrwt beam="2">  1        1 0.33781228E-01 0.19805364E+03</pdfrwt>
<pdfrwt beam="1">  1       -1 0.29550049E-01 0.19805364E+03</pdfrwt>
<totfact> 0.13569550E+03</totfact>
</mgrwt>
</event>
<event>
 8    1  0.1273312E-005  0.1254007E+03  0.7546771E-02  0.1250264E+00
          1   -1    0    0  501    0  0.00000000000E+00  0.00000000000E+00  0.88354432568E+01  0.88354432568E+01  0.00000000000E+00 0. -1.
         -1   -1    0    0    0  501 -0.00000000000E+00 -0.00000000000E+00 -0.13481789893E+04  0.13481789893E+04  0.00000000000E+00 0.  1.
         23    2    1    2    0    0  0.34925236189E+01  0.94529694900E+01 -0.47869953494E+03  0.48728260426E+03  0.90496051325E+02 0.  0.
         23    2    1    2    0    0 -0.34925236189E+01 -0.94529694900E+01 -0.86064401107E+03  0.86973182827E+03  0.12499513174E+03 0.  0.
          5    1    4    4  502    0 -0.30717400101E+02  0.49866037176E+02 -0.46773249677E+03  0.47140848409E+03  0.47000000000E+01 0.  1.
         -5    1    4    4    0  502  0.27224876483E+02 -0.59319006666E+02 -0.39291151430E+03  0.39832334418E+03  0.47000000000E+01 0.  1.
        -11    1    3    3    0    0  0.45488320075E+02  0.16660963666E+02 -0.25630561276E+03  0.26084352034E+03  0.00000000000E+00 0. -1.
         11    1    3    3    0    0 -0.41995796456E+02 -0.72079941758E+01 -0.22239392218E+03  0.22643908392E+03  0.00000000000E+00 0.  1.
<mgrwt>
<rscale>  0 0.11575812E+03</rscale>
<asrwt>0</asrwt>
<pdfrwt beam="1">  1        1 0.13592997E-02 0.12540071E+03</pdfrwt>
<pdfrwt beam="2">  1       -1 0.20741204E+00 0.12540071E+03</pdfrwt>
<totfact> 0.15146690E+03</totfact>
</mgrwt>
</event>
<event>
 8    1  0.1273312E-005  0.1394109E+03  0.7546771E-02  0.1218855E+00
          1   -1    0    0  501    0  0.00000000000E+00  0.00000000000E+00  0.10529073146E+04  0.10529073146E+04  0.00000000000E+00 0. -1.
         -1   -1    0    0    0  501 -0.00000000000E+00 -0.00000000000E+00 -0.18027628459E+02  0.18027628459E+02  0.00000000000E+00 0.  1.
         23    2    1    2    0    0  0.63009955316E+02  0.54567053705E+02  0.35078676040E+03  0.37278129322E+03  0.94692784759E+02 0.  0.
         23    2    1    2    0    0 -0.63009955316E+02 -0.54567053705E+02  0.68409292577E+03  0.69815364987E+03  0.11174779602E+03 0.  0.
          5    1    4    4  502    0  0.41292232848E+01  0.18146545266E+02  0.32719971692E+03  0.32776224972E+03  0.47000000000E+01 0. -1.
         -5    1    4    4    0  502 -0.67139178600E+02 -0.72713598970E+02  0.35689320885E+03  0.37039140015E+03  0.47000000000E+01 0.  1.
        -11    1    3    3    0    0  0.66544644201E+01 -0.10337387224E+02  0.71907821376E+00  0.12315053586E+02  0.00000000000E+00 0.  1.
         11    1    3    3    0    0  0.56355490895E+02  0.64904440929E+02  0.35006768218E+03  0.36046623963E+03  0.00000000000E+00 0. -1.
<mgrwt>
<rscale>  0 0.13597113E+03</rscale>
<asrwt>0</asrwt>
<pdfrwt beam="1">  1        1 0.16198569E+00 0.13941086E+03</pdfrwt>
<pdfrwt beam="2">  1       -1 0.27734821E-02 0.13941086E+03</pdfrwt>
<totfact> 0.60331701E+03</totfact>
</mgrwt>
</event>
<event>
 8    1  0.1273312E-005  0.2163341E+03  0.7546771E-02  0.1139935E+00
         -1   -1    0    0    0  501 -0.00000000000E+00  0.00000000000E+00  0.39144535236E+02  0.39144535236E+02  0.00000000000E+00 0.  1.
          1   -1    0    0  501    0  0.00000000000E+00 -0.00000000000E+00 -0.14313873949E+04  0.14313873949E+04  0.00000000000E+00 0. -1.
         23    2    1    2    0    0 -0.11708453908E+03  0.13216131452E+03 -0.32431983221E+03  0.38091730391E+03  0.93483883663E+02 0.  0.
         23    2    1    2    0    0  0.11708453908E+03 -0.13216131452E+03 -0.10679230275E+04  0.10896146262E+04  0.12500015510E+03 0.  0.
          5    1    4    4  502    0  0.53470769819E+02 -0.72046100199E+02 -0.22695221106E+03  0.24408842636E+03  0.47000000000E+01 0. -1.
         -5    1    4    4    0  502  0.63613769263E+02 -0.60115214320E+02 -0.84097081640E+03  0.84552619987E+03  0.47000000000E+01 0. -1.
        -11    1    3    3    0    0 -0.23895733788E+02 -0.12808722312E+02 -0.52066608853E+02  0.58702650860E+02  0.00000000000E+00 0. -1.
         11    1    3    3    0    0 -0.93188805295E+02  0.14497003683E+03 -0.27225322335E+03  0.32221465305E+03  0.00000000000E+00 0.  1.
<mgrwt>
<rscale>  0 0.21207294E+03</rscale>
<asrwt>0</asrwt>
<pdfrwt beam="2">  1        1 0.22021344E+00 0.21633410E+03</pdfrwt>
<pdfrwt beam="1">  1       -1 0.60222362E-02 0.21633410E+03</pdfrwt>
<totfact> 0.10605520E+03</totfact>
</mgrwt>
</event>
<event>
 8    1  0.1273312E-005  0.1323132E+03  0.7546771E-02  0.1237191E+00
          2   -1    0    0  501    0  0.00000000000E+00  0.00000000000E+00  0.85425750575E+02  0.85425750575E+02  0.00000000000E+00 0. -1.
         -2   -1    0    0    0  501 -0.00000000000E+00 -0.00000000000E+00 -0.16348818920E+03  0.16348818920E+03  0.00000000000E+00 0.  1.
         23    2    1    2    0    0 -0.43142396127E+02  0.45266551404E+01 -0.53892002396E+02  0.11441119307E+03  0.91125277652E+02 0.  0.
         23    2    1    2    0    0  0.43142396127E+02 -0.45266551404E+01 -0.24170436233E+02  0.13450274671E+03  0.12500008774E+03 0.  0.
          5    1    4    4  502    0 -0.88426154372E+01 -0.50910983094E+02  0.15551258143E+02  0.54166887276E+02  0.47000000000E+01 0. -1.
         -5    1    4    4    0  502  0.51985011564E+02  0.46384327953E+02 -0.39721694376E+02  0.80335859434E+02  0.47000000000E+01 0. -1.
        -11    1    3    3    0    0 -0.32935648858E+02  0.38448786975E+02 -0.59955930562E+02  0.78471522192E+02  0.00000000000E+00 0.  1.
         11    1    3    3    0    0 -0.10206747268E+02 -0.33922131835E+02  0.60639281658E+01  0.35939670878E+02  0.00000000000E+00 0. -1.
<mgrwt>
<rscale>  0 0.12365182E+03</rscale>
<asrwt>0</asrwt>
<pdfrwt beam="1">  1        2 0.13142423E-01 0.13231318E+03</pdfrwt>
<pdfrwt beam="2">  1       -2 0.25152029E-01 0.13231318E+03</pdfrwt>
<totfact> 0.60859882E+03</totfact>
</mgrwt>
</event>
<event>
 8    1  0.1273312E-005  0.1546331E+03  0.7546771E-02  0.1204293E+00
          2   -1    0    0  501    0  0.00000000000E+00  0.00000000000E+00  0.75491197366E+03  0.75491197366E+03  0.00000000000E+00 0. -1.
         -2   -1    0    0    0  501 -0.00000000000E+00 -0.00000000000E+00 -0.40301210751E+02  0.40301210751E+02  0.00000000000E+00 0.  1.
         23    2    1    2    0    0 -0.81361483696E+02 -0.40826657627E+02  0.98453172335E+02  0.15994821428E+03  0.87200327442E+02 0.  0.
         23    2    1    2    0    0  0.81361483696E+02  0.40826657627E+02  0.61615759058E+03  0.63526497014E+03  0.12499959541E+03 0.  0.
          5    1    4    4  502    0 -0.32700440002E+02  0.19879992864E+02  0.15707342044E+03  0.16173645940E+03  0.47000000000E+01 0. -1.
         -5    1    4    4    0  502  0.11406192370E+03  0.20946664763E+02  0.45908417014E+03  0.47352851073E+03  0.47000000000E+01 0. -1.
        -11    1    3    3    0    0 -0.62273118785E+02 -0.31001389480E+02  0.11652890258E+02  0.70532384932E+02  0.00000000000E+00 0.  1.
         11    1    3    3    0    0 -0.19088364911E+02 -0.98252681471E+01  0.86800282077E+02  0.89415829347E+02  0.00000000000E+00 0. -1.
<mgrwt>
<rscale>  0 0.14693281E+03</rscale>
<asrwt>0</asrwt>
<pdfrwt beam="1">  1        2 0.11614029E+00 0.15463313E+03</pdfrwt>
<pdfrwt beam="2">  1       -2 0.62001869E-02 0.15463313E+03</pdfrwt>
<totfact> 0.52412730E+03</totfact>
</mgrwt>
</event>
<event>
 8    1  0.1273312E-005  0.1398409E+03  0.7546771E-02  0.1227800E+00
          2   -1    0    0  501    0  0.00000000000E+00  0.00000000000E+00  0.20821831862E+03  0.20821831862E+03  0.00000000000E+00 0. -1.
         -2   -1    0    0    0  501 -0.00000000000E+00 -0.00000000000E+00 -0.89919603183E+02  0.89919603183E+02  0.00000000000E+00 0.  1.
         23    2    1    2    0    0  0.15057332893E+02  0.60860630492E+02 -0.15198856339E+02  0.10480642106E+03  0.82599279928E+02 0.  0.
         23    2    1    2    0    0 -0.15057332893E+02 -0.60860630492E+02  0.13349757177E+03  0.19333150074E+03  0.12499891156E+03 0.  0.
          5    1    4    4  502    0 -0.14346835932E+02 -0.20267893139E+02 -0.21410418070E+02  0.33122729288E+02  0.47000000000E+01 0.  1.
         -5    1    4    4    0  502 -0.71049696069E+00 -0.40592737352E+02  0.15490798984E+03  0.16020877145E+03  0.47000000000E+01 0.  1.
        -11    1    3    3    0    0  0.36146268482E+02  0.17323211964E+02  0.20177678324E+02  0.44875216996E+02  0.00000000000E+00 0. -1.
         11    1    3    3    0    0 -0.21088935589E+02  0.43537418527E+02 -0.35376534663E+02  0.59931204068E+02  0.00000000000E+00 0.  1.
<mgrwt>
<rscale>  0 0.12976833E+03</rscale>
<asrwt>0</asrwt>
<pdfrwt beam="1">  1        2 0.32033587E-01 0.13984086E+03</pdfrwt>
<pdfrwt beam="2">  1       -2 0.13833785E-01 0.13984086E+03</pdfrwt>
<totfact> 0.60939783E+03</totfact>
</mgrwt>
</event>
<event>
 8    1  0.1273312E-005  0.1774013E+03  0.7546771E-02  0.1175880E+00
          1   -1    0    0  501    0  0.00000000000E+00  0.00000000000E+00  0.22317938490E+03  0.22317938490E+03  0.00000000000E+00 0. -1.
         -1   -1    0    0    0  501 -0.00000000000E+00 -0.00000000000E+00 -0.13411687326E+03  0.13411687326E+03  0.00000000000E+00 0.  1.
         23    2    1    2    0    0  0.12586919480E+03  0.18564374297E+01 -0.50362111727E+01  0.15648346774E+03  0.92818164666E+02 0.  0.
         23    2    1    2    0    0 -0.12586919480E+03 -0.18564374297E+01  0.94098722821E+02  0.20081279042E+03  0.12499882639E+03 0.  0.
          5    1    4    4  502    0 -0.11400052780E+03  0.44017409588E+02  0.39832143360E+02  0.12861703748E+03  0.47000000000E+01 0. -1.
         -5    1    4    4    0  502 -0.11868667009E+02 -0.45873847018E+02  0.54266579461E+02  0.72195752944E+02  0.47000000000E+01 0. -1.
        -11    1    3    3    0    0  0.54281217863E+01 -0.27962346236E+02  0.12622342819E+02  0.31155751498E+02  0.00000000000E+00 0. -1.
         11    1    3    3    0    0  0.12044107302E+03  0.29818783666E+02 -0.17658553991E+02  0.12532771624E+03  0.00000000000E+00 0.  1.
<mgrwt>
<rscale>  0 0.17190099E+03</rscale>
<asrwt>0</asrwt>
<pdfrwt beam="1">  1        1 0.34335290E-01 0.17740126E+03</pdfrwt>
<pdfrwt beam="2">  1       -1 0.20633365E-01 0.17740126E+03</pdfrwt>
<totfact> 0.24014185E+03</totfact>
</mgrwt>
</event>
<event>
 8    1  0.1273312E-005  0.1681837E+03  0.7546771E-02  0.1185834E+00
          4   -1    0    0  501    0  0.00000000000E+00  0.00000000000E+00  0.32255406963E+02  0.32255406963E+02  0.00000000000E+00 0. -1.
         -4   -1    0    0    0  501 -0.00000000000E+00 -0.00000000000E+00 -0.88512250204E+03  0.88512250204E+03  0.00000000000E+00 0.  1.
         23    2    1    2    0    0 -0.61557702640E+02 -0.98673330534E+02 -0.56710233685E+03  0.58579498172E+03  0.89581935858E+02 0.  0.
         23    2    1    2    0    0  0.61557702640E+02  0.98673330534E+02 -0.28576475822E+03  0.33158292728E+03  0.12149059103E+03 0.  0.
          5    1    4    4  502    0 -0.20144281568E+02  0.64375634917E+02 -0.18680918182E+03  0.19867001500E+03  0.47000000000E+01 0. -1.
         -5    1    4    4    0  502  0.81701984208E+02  0.34297695617E+02 -0.98955576409E+02  0.13291291228E+03  0.47000000000E+01 0.  1.
        -11    1    3    3    0    0 -0.27950802427E+02  0.12524301689E+02 -0.11586953228E+03  0.11984929703E+03  0.00000000000E+00 0.  1.
         11    1    3    3    0    0 -0.33606900213E+02 -0.11119763222E+03 -0.45123280457E+03  0.46594568469E+03  0.00000000000E+00 0. -1.
<mgrwt>
<rscale>  0 0.16256255E+03</rscale>
<asrwt>0</asrwt>
<pdfrwt beam="1">  1        4 0.49623698E-02 0.16818365E+03</pdfrwt>
<pdfrwt beam="2">  1       -4 0.13617271E+00 0.16818365E+03</pdfrwt>
<totfact> 0.17039356E+02</totfact>
</mgrwt>
</event>
<event>
 8    1  0.1655292E-005  0.1805628E+03  0.7546771E-02  0.1174814E+00
          1   -1    0    0  501    0  0.00000000000E+00  0.00000000000E+00  0.24718816176E+02  0.24718816176E+02  0.00000000000E+00 0. -1.
         -1   -1    0    0    0  501 -0.00000000000E+00 -0.00000000000E+00 -0.12638600730E+04  0.12638600730E+04  0.00000000000E+00 0.  1.
         23    2    1    2    0    0  0.27473011788E+02  0.12736740033E+03 -0.79036352176E+03  0.80483890327E+03  0.78191704447E+02 0.  0.
         23    2    1    2    0    0 -0.27473011788E+02 -0.12736740033E+03 -0.44877773503E+03  0.48373998587E+03  0.12500278968E+03 0.  0.
          5    1    4    4  502    0 -0.36550187541E+02 -0.97586791479E+02 -0.43832187802E+03  0.45056326619E+03  0.47000000000E+01 0. -1.
         -5    1    4    4    0  502  0.90771757530E+01 -0.29780608853E+02 -0.10455857004E+02  0.33176719684E+02  0.47000000000E+01 0. -1.
        -11    1    3    3    0    0 -0.21633661531E+02  0.77397773522E+02 -0.47859855374E+03  0.48529888347E+03  0.00000000000E+00 0. -1.
         11    1    3    3    0    0  0.49106673319E+02  0.49969626810E+02 -0.31176496801E+03  0.31954001979E+03  0.00000000000E+00 0.  1.
<mgrwt>
<rscale>  0 0.17294257E+03</rscale>
<asrwt>0</asrwt>
<pdfrwt beam="1">  1        1 0.38028953E-02 0.18056278E+03</pdfrwt>
<pdfrwt beam="2">  1       -1 0.19443998E+00 0.18056278E+03</pdfrwt>
<totfact> 0.44351559E+02</totfact>
</mgrwt>
</event>
<event>
 8    1  0.1273312E-005  0.1693716E+03  0.7546771E-02  0.1185324E+00
          1   -1    0    0  501    0  0.00000000000E+00  0.00000000000E+00  0.25514486864E+03  0.25514486864E+03  0.00000000000E+00 0. -1.
         -1   -1    0    0    0  501 -0.00000000000E+00 -0.00000000000E+00 -0.10010823895E+03  0.10010823895E+03  0.00000000000E+00 0.  1.
         23    2    1    2    0    0 -0.99840017511E+02  0.55679308705E+02  0.40921754661E+02  0.15102546361E+03  0.89810278578E+02 0.  0.
         23    2    1    2    0    0  0.99840017511E+02 -0.55679308705E+02  0.11411487503E+03  0.20422764399E+03  0.12497404271E+03 0.  0.
          5    1    4    4  502    0  0.10369298851E+03  0.76717462404E+01  0.56753141122E+02  0.11854999191E+03  0.47000000000E+01 0. -1.
         -5    1    4    4    0  502 -0.38529709943E+01 -0.63351054946E+02  0.57361733909E+02  0.85677652076E+02  0.47000000000E+01 0. -1.
        -11    1    3    3    0    0 -0.25459511010E+02  0.61368185925E+02  0.37627782269E+02  0.76355032206E+02  0.00000000000E+00 0. -1.
         11    1    3    3    0    0 -0.74380506501E+02 -0.56888772200E+01  0.32939723913E+01  0.74670431400E+02  0.00000000000E+00 0.  1.
<mgrwt>
<rscale>  0 0.16302467E+03</rscale>
<asrwt>0</asrwt>
<pdfrwt beam="1">  1        1 0.39253056E-01 0.16937156E+03</pdfrwt>
<pdfrwt beam="2">  1       -1 0.15401268E-01 0.16937156E+03</pdfrwt>
<totfact> 0.32382358E+03</totfact>
</mgrwt>
</event>
<event>
 8    1  0.1273312E-005  0.1360132E+03  0.7546771E-02  0.1230450E+00
          2   -1    0    0  501    0  0.00000000000E+00  0.00000000000E+00  0.19687258035E+04  0.19687258035E+04  0.00000000000E+00 0. -1.
         -2   -1    0    0    0  501 -0.00000000000E+00 -0.00000000000E+00 -0.83733870888E+01  0.83733870888E+01  0.00000000000E+00 0.  1.
         23    2    1    2    0    0  0.24355819998E+02 -0.47793531409E+02  0.55365103375E+03  0.56383758269E+03  0.92227571108E+02 0.  0.
         23    2    1    2    0    0 -0.24355819998E+02  0.47793531409E+02  0.14067013827E+04  0.14132616079E+04  0.12498865852E+03 0.  0.
          5    1    4    4  502    0 -0.18563796173E+02  0.89879509892E+02  0.86153990710E+03  0.86642717083E+03  0.47000000000E+01 0. -1.
         -5    1    4    4    0  502 -0.57920238250E+01 -0.42085978483E+02  0.54516147560E+03  0.54683443711E+03  0.47000000000E+01 0. -1.
        -11    1    3    3    0    0  0.57091456908E+02 -0.46879886420E+02  0.39299856940E+03  0.39988127457E+03  0.00000000000E+00 0.  1.
         11    1    3    3    0    0 -0.32735636910E+02 -0.91364498946E+00  0.16065246435E+03  0.16395630812E+03  0.00000000000E+00 0. -1.
<mgrwt>
<rscale>  0 0.12800283E+03</rscale>
<asrwt>0</asrwt>
<pdfrwt beam="1">  1        2 0.30288052E+00 0.13601321E+03</pdfrwt>
<pdfrwt beam="2">  1       -2 0.12882150E-02 0.13601321E+03</pdfrwt>
<totfact> 0.11154269E+04</totfact>
</mgrwt>
</event>
<event>
 7    1  0.1273312E-005  0.3754137E+03  0.7546771E-02  0.1073858E+00
         -2   -1    0    0    0  501 -0.00000000000E+00  0.00000000000E+00  0.26472025887E+03  0.26472025887E+03  0.00000000000E+00 0.  1.
          2   -1    0    0  501    0  0.00000000000E+00 -0.00000000000E+00 -0.64991308641E+03  0.64991308641E+03  0.00000000000E+00 0. -1.
         23    2    1    2    0    0 -0.66328872432E+01 -0.18684571901E+03  0.15311639560E+03  0.25834660883E+03  0.91340143347E+02 0.  0.
          5    1    1    2  502    0  0.13799460663E+03  0.51237004198E+02 -0.38769147042E+03  0.41472220617E+03  0.47000000000E+01 0. -1.
         -5    1    1    2    0  502 -0.13136171939E+03  0.13560871482E+03 -0.15061775272E+03  0.24156453028E+03  0.47000000000E+01 0.  1.
        -11    1    3    3    0    0 -0.20523900568E+02 -0.19206808127E+03  0.14399538351E+03  0.24092747624E+03  0.00000000000E+00 0.  1.
         11    1    3    3    0    0  0.13891013325E+02  0.52223622518E+01  0.91210120860E+01  0.17419132589E+02  0.00000000000E+00 0. -1.
<mgrwt>
<rscale>  0 0.32392279E+03</rscale>
<asrwt>0</asrwt>
<pdfrwt beam="2">  1        2 0.99986627E-01 0.37541372E+03</pdfrwt>
<pdfrwt beam="1">  1       -2 0.40726194E-01 0.37541372E+03</pdfrwt>
<totfact> 0.26410170E+02</totfact>
</mgrwt>
</event>
<event>
 8    1  0.1273312E-005  0.1381005E+03  0.7546771E-02  0.1226970E+00
         -1   -1    0    0    0  501 -0.00000000000E+00  0.00000000000E+00  0.23862429240E+03  0.23862429240E+03  0.00000000000E+00 0.  1.
          1   -1    0    0  501    0  0.00000000000E+00 -0.00000000000E+00 -0.65183317583E+02  0.65183317583E+02  0.00000000000E+00 0. -1.
         23    2    1    2    0    0  0.16954151726E+00  0.58678434396E+02  0.58788220048E+02  0.12431669179E+03  0.92495392495E+02 0.  0.
         23    2    1    2    0    0 -0.16954151726E+00 -0.58678434396E+02  0.11465275477E+03  0.17949091820E+03  0.12501419172E+03 0.  0.
          5    1    4    4  502    0 -0.30365529929E+02  0.11215955627E+02  0.95348371591E+02  0.10080310032E+03  0.47000000000E+01 0.  1.
         -5    1    4    4    0  502  0.30195988412E+02 -0.69894390023E+02  0.19304383179E+02  0.78687817880E+02  0.47000000000E+01 0.  1.
        -11    1    3    3    0    0 -0.29766184913E+02  0.17961405347E+02 -0.12489511951E+02  0.36940841288E+02  0.00000000000E+00 0. -1.
         11    1    3    3    0    0  0.29935726430E+02  0.40717029049E+02  0.71277731999E+02  0.87375850499E+02  0.00000000000E+00 0.  1.
<mgrwt>
<rscale>  0 0.13032796E+03</rscale>
<asrwt>0</asrwt>
<pdfrwt beam="2">  1        1 0.10028203E-01 0.13810045E+03</pdfrwt>
<pdfrwt beam="1">  1       -1 0.36711429E-01 0.13810045E+03</pdfrwt>
<totfact> 0.44008734E+03</totfact>
</mgrwt>
</event>
<event>
 8    1  0.1273312E-005  0.1466404E+03  0.7546771E-02  0.1214861E+00
         -3   -1    0    0    0  501 -0.00000000000E+00  0.00000000000E+00  0.97268681938E+03  0.97268681938E+03  0.00000000000E+00 0.  1.
          3   -1    0    0  501    0  0.00000000000E+00 -0.00000000000E+00 -0.18348602994E+02  0.18348602994E+02  0.00000000000E+00 0. -1.
         23    2    1    2    0    0 -0.62554224698E+02 -0.44321859640E+02  0.49513658359E+03  0.50898816437E+03  0.89617279494E+02 0.  0.
         23    2    1    2    0    0  0.62554224698E+02  0.44321859640E+02  0.45920163279E+03  0.48204725800E+03  0.12500384443E+03 0.  0.
          5    1    4    4  502    0  0.99557057599E+02  0.19653962070E+02  0.30345319009E+03  0.32000596013E+03  0.47000000000E+01 0. -1.
         -5    1    4    4    0  502 -0.37002832901E+02  0.24667897570E+02  0.15574844270E+03  0.16204129787E+03  0.47000000000E+01 0. -1.
        -11    1    3    3    0    0  0.20748468850E+02 -0.20204743879E+02  0.17176942193E+03  0.17419375691E+03  0.00000000000E+00 0.  1.
         11    1    3    3    0    0 -0.83302693549E+02 -0.24117115761E+02  0.32336716166E+03  0.33479440746E+03  0.00000000000E+00 0. -1.
<mgrwt>
<rscale>  0 0.13886769E+03</rscale>
<asrwt>0</asrwt>
<pdfrwt beam="2">  1        3 0.28228628E-02 0.14664044E+03</pdfrwt>
<pdfrwt beam="1">  1       -3 0.14964409E+00 0.14664044E+03</pdfrwt>
<totfact> 0.45391392E+02</totfact>
</mgrwt>
</event>
<event>
 8    1  0.1273312E-005  0.1350907E+03  0.7546771E-02  0.1236410E+00
          1   -1    0    0  501    0  0.00000000000E+00  0.00000000000E+00  0.62675547654E+02  0.62675547654E+02  0.00000000000E+00 0. -1.
         -1   -1    0    0    0  501 -0.00000000000E+00 -0.00000000000E+00 -0.23696695649E+03  0.23696695649E+03  0.00000000000E+00 0.  1.
         23    2    1    2    0    0 -0.17463282910E+02 -0.48195764671E+02 -0.12038299911E+03  0.15419277816E+03  0.81581544358E+02 0.  0.
         23    2    1    2    0    0  0.17463282910E+02  0.48195764671E+02 -0.53908409724E+02  0.14544972598E+03  0.12498683198E+03 0.  0.
          5    1    4    4  502    0 -0.33328292382E+02 -0.14065310880E+02  0.15049778195E+02  0.39461295810E+02  0.47000000000E+01 0. -1.
         -5    1    4    4    0  502  0.50791575292E+02  0.62261075551E+02 -0.68958187919E+02  0.10598843017E+03  0.47000000000E+01 0. -1.
        -11    1    3    3    0    0  0.30359234458E+02 -0.31578574772E+02 -0.40747585133E+02  0.59826876867E+02  0.00000000000E+00 0.  1.
         11    1    3    3    0    0 -0.47822517368E+02 -0.16617189899E+02 -0.79635413979E+02  0.94365901294E+02  0.00000000000E+00 0. -1.
<mgrwt>
<rscale>  0 0.12414586E+03</rscale>
<asrwt>0</asrwt>
<pdfrwt beam="1">  1        1 0.96423918E-02 0.13509073E+03</pdfrwt>
<pdfrwt beam="2">  1       -1 0.36456456E-01 0.13509073E+03</pdfrwt>
<totfact> 0.46858508E+03</totfact>
</mgrwt>
</event>
<event>
 8    1  0.1273312E-005  0.1550996E+03  0.7546771E-02  0.1202863E+00
         -2   -1    0    0    0  501 -0.00000000000E+00  0.00000000000E+00  0.27492337952E+03  0.27492337952E+03  0.00000000000E+00 0.  1.
          2   -1    0    0  501    0  0.00000000000E+00 -0.00000000000E+00 -0.77103879384E+02  0.77103879384E+02  0.00000000000E+00 0. -1.
         23    2    1    2    0    0  0.31805360146E+02 -0.86142395885E+02  0.51342307480E+02  0.13869312978E+03  0.90375098381E+02 0.  0.
         23    2    1    2    0    0 -0.31805360146E+02  0.86142395885E+02  0.14647719265E+03  0.21333412912E+03  0.12499515742E+03 0.  0.
          5    1    4    4  502    0  0.10107574991E+02  0.10132733252E+02 -0.20290464376E+02  0.25271096136E+02  0.47000000000E+01 0.  1.
         -5    1    4    4    0  502 -0.41912935137E+02  0.76009662633E+02  0.16676765703E+03  0.18806303299E+03  0.47000000000E+01 0.  1.
        -11    1    3    3    0    0 -0.25461733460E+02 -0.13966472774E+02 -0.66948182007E+01  0.29802396268E+02  0.00000000000E+00 0. -1.
         11    1    3    3    0    0  0.57267093606E+02 -0.72175923111E+02  0.58037125681E+02  0.10889073351E+03  0.00000000000E+00 0.  1.
<mgrwt>
<rscale>  0 0.14807123E+03</rscale>
<asrwt>0</asrwt>
<pdfrwt beam="2">  1        2 0.11862135E-01 0.15509959E+03</pdfrwt>
<pdfrwt beam="1">  1       -2 0.42295904E-01 0.15509959E+03</pdfrwt>
<totfact> 0.26875810E+03</totfact>
</mgrwt>
</event>
<event>
 8    1  0.1273312E-005  0.1322837E+03  0.7546771E-02  0.1237868E+00
          1   -1    0    0  501    0  0.00000000000E+00  0.00000000000E+00  0.87308099006E+03  0.87308099006E+03  0.00000000000E+00 0. -1.
         -1   -1    0    0    0  501 -0.00000000000E+00 -0.00000000000E+00 -0.15913954845E+02  0.15913954845E+02  0.00000000000E+00 0.  1.
         23    2    1    2    0    0 -0.43043580628E+02  0.46251347730E+01  0.29086433067E+03  0.30744724169E+03  0.89708449234E+02 0.  0.
         23    2    1    2    0    0  0.43043580628E+02 -0.46251347730E+01  0.56630270455E+03  0.58154770322E+03  0.12499934492E+03 0.  0.
          5    1    4    4  502    0  0.37808694390E+02 -0.58006270123E+02  0.20925493205E+03  0.22046301579E+03  0.47000000000E+01 0.  1.
         -5    1    4    4    0  502  0.52348862381E+01  0.53381135350E+02  0.35704777250E+03  0.36108468743E+03  0.47000000000E+01 0.  1.
        -11    1    3    3    0    0 -0.34139994067E+02  0.45674248957E+02  0.18362190988E+03  0.19227241612E+03  0.00000000000E+00 0. -1.
         11    1    3    3    0    0 -0.89035865605E+01 -0.41049114184E+02  0.10724242079E+03  0.11517482557E+03  0.00000000000E+00 0.  1.
<mgrwt>
<rscale>  0 0.12322626E+03</rscale>
<asrwt>0</asrwt>
<pdfrwt beam="1">  1        1 0.13432011E+00 0.13228370E+03</pdfrwt>
<pdfrwt beam="2">  1       -1 0.24483014E-02 0.13228370E+03</pdfrwt>
<totfact> 0.98181783E+03</totfact>
</mgrwt>
</event>
<event>
 8    1  0.1273312E-005  0.1635965E+03  0.7546771E-02  0.1192373E+00
         -1   -1    0    0    0  501 -0.00000000000E+00  0.00000000000E+00  0.24841768867E+02  0.24841768867E+02  0.00000000000E+00 0. -1.
          1   -1    0    0  501    0  0.00000000000E+00 -0.00000000000E+00 -0.10186070747E+04  0.10186070747E+04  0.00000000000E+00 0.  1.
         23    2    1    2    0    0  0.35920213498E+02  0.99240664871E+02 -0.29352767057E+03  0.32435458113E+03  0.88929351792E+02 0.  0.
         23    2    1    2    0    0 -0.35920213498E+02 -0.99240664871E+02 -0.70023763524E+03  0.71909426241E+03  0.12499936449E+03 0.  0.
          5    1    4    4  502    0  0.20554472367E+02 -0.62550536627E+02 -0.13974312007E+03  0.15454865116E+03  0.47000000000E+01 0.  1.
         -5    1    4    4    0  502 -0.56474685865E+02 -0.36690128244E+02 -0.56049451517E+03  0.56454561125E+03  0.47000000000E+01 0.  1.
        -11    1    3    3    0    0  0.40974300238E+02  0.20673741118E+02 -0.47553533740E+02  0.66088088359E+02  0.00000000000E+00 0. -1.
         11    1    3    3    0    0 -0.50540867400E+01  0.78566923753E+02 -0.24597413683E+03  0.25826649277E+03  0.00000000000E+00 0.  1.
<mgrwt>
<rscale>  0 0.15678697E+03</rscale>
<asrwt>0</asrwt>
<pdfrwt beam="2">  1        1 0.15670879E+00 0.16359649E+03</pdfrwt>
<pdfrwt beam="1">  1       -1 0.38218104E-02 0.16359649E+03</pdfrwt>
<totfact> 0.40191797E+03</totfact>
</mgrwt>
</event>
<event>
 8    1  0.1273312E-005  0.3088066E+03  0.7546771E-02  0.1082561E+00
         -2   -1    0    0    0  501 -0.00000000000E+00  0.00000000000E+00  0.10917833463E+03  0.10917833463E+03  0.00000000000E+00 0.  1.
          2   -1    0    0  501    0  0.00000000000E+00 -0.00000000000E+00 -0.84381262616E+03  0.84381262616E+03  0.00000000000E+00 0. -1.
         23    2    1    2    0    0  0.27716110993E+03  0.54015811699E+02 -0.40455010878E+03  0.50097647110E+03  0.87066901328E+02 0.  0.
         23    2    1    2    0    0 -0.27716110993E+03 -0.54015811699E+02 -0.33008418275E+03  0.45201448969E+03  0.12500216965E+03 0.  0.
          5    1    4    4  502    0 -0.89735616046E+02 -0.72752033370E+02 -0.88276817473E+02  0.14546554798E+03  0.47000000000E+01 0. -1.
         -5    1    4    4    0  502 -0.18742549389E+03  0.18736221671E+02 -0.24180736528E+03  0.30654894171E+03  0.47000000000E+01 0. -1.
        -11    1    3    3    0    0  0.27271908235E+02  0.34596065099E+02 -0.48082472626E+02  0.65211723432E+02  0.00000000000E+00 0.  1.
         11    1    3    3    0    0  0.24988920170E+03  0.19419746601E+02 -0.35646763615E+03  0.43576474767E+03  0.00000000000E+00 0. -1.
<mgrwt>
<rscale>  0 0.30542324E+03</rscale>
<asrwt>0</asrwt>
<pdfrwt beam="2">  1        2 0.12981733E+00 0.30880662E+03</pdfrwt>
<pdfrwt beam="1">  1       -2 0.16796667E-01 0.30880662E+03</pdfrwt>
<totfact> 0.93846475E+02</totfact>
</mgrwt>
</event>
<event>
 8    1  0.1273312E-005  0.1696335E+03  0.7546771E-02  0.1184051E+00
         -2   -1    0    0    0  501 -0.00000000000E+00  0.00000000000E+00  0.54144442156E+02  0.54144442156E+02  0.00000000000E+00 0.  1.
          2   -1    0    0  501    0  0.00000000000E+00 -0.00000000000E+00 -0.49871664769E+03  0.49871664769E+03  0.00000000000E+00 0. -1.
         23    2    1    2    0    0 -0.15500678334E+02  0.11362424462E+03 -0.14064468164E+03  0.20479862975E+03  0.94925298420E+02 0.  0.
         23    2    1    2    0    0  0.15500678334E+02 -0.11362424462E+03 -0.30392752390E+03  0.34806246009E+03  0.12499918540E+03 0.  0.
          5    1    4    4  502    0 -0.27712147376E+02 -0.12098095263E+03 -0.24244191546E+03  0.27240507775E+03  0.47000000000E+01 0.  1.
         -5    1    4    4    0  502  0.43212825710E+02  0.73567080058E+01 -0.61485608439E+02  0.75657382347E+02  0.47000000000E+01 0.  1.
        -11    1    3    3    0    0 -0.27501328426E+02  0.53769538683E+02 -0.12929741370E+03  0.14270706901E+03  0.00000000000E+00 0. -1.
         11    1    3    3    0    0  0.12000650092E+02  0.59854705941E+02 -0.11347267938E+02  0.62091560744E+02  0.00000000000E+00 0.  1.
<mgrwt>
<rscale>  0 0.16418512E+03</rscale>
<asrwt>0</asrwt>
<pdfrwt beam="2">  1        2 0.76725636E-01 0.16963354E+03</pdfrwt>
<pdfrwt beam="1">  1       -2 0.83299144E-02 0.16963354E+03</pdfrwt>
<totfact> 0.53952958E+03</totfact>
</mgrwt>
</event>
<event>
 8    1  0.1273312E-005  0.1289392E+03  0.7546771E-02  0.1238778E+00
          2   -1    0    0  501    0  0.00000000000E+00  0.00000000000E+00  0.11699824738E+03  0.11699824738E+03  0.00000000000E+00 0. -1.
         -2   -1    0    0    0  501 -0.00000000000E+00 -0.00000000000E+00 -0.11783946895E+03  0.11783946895E+03  0.00000000000E+00 0.  1.
         23    2    1    2    0    0 -0.30788430541E+02 -0.75504963641E+01  0.56223681636E+01  0.10573665716E+03  0.10071589841E+03 0.  0.
         23    2    1    2    0    0  0.30788430541E+02  0.75504963641E+01 -0.64635897352E+01  0.12910105918E+03  0.12498147078E+03 0.  0.
          5    1    4    4  502    0  0.35687049432E+02  0.59485102279E+02  0.17205027184E+02  0.71625036480E+02  0.47000000000E+01 0. -1.
         -5    1    4    4    0  502 -0.48986188910E+01 -0.51934605915E+02 -0.23668616920E+02  0.57476022701E+02  0.47000000000E+01 0. -1.
        -11    1    3    3    0    0  0.72612655305E+01 -0.28262497406E+02 -0.35535406808E+02  0.45981081694E+02  0.00000000000E+00 0.  1.
         11    1    3    3    0    0 -0.38049696071E+02  0.20712001042E+02  0.41157774971E+02  0.59755575463E+02  0.00000000000E+00 0. -1.
<mgrwt>
<rscale>  0 0.12265671E+03</rscale>
<asrwt>0</asrwt>
<pdfrwt beam="1">  1        2 0.17999730E-01 0.12893915E+03</pdfrwt>
<pdfrwt beam="2">  1       -2 0.18129149E-01 0.12893915E+03</pdfrwt>
<totfact> 0.73599669E+03</totfact>
</mgrwt>
</event>
<event>
 7    1  0.1273312E-005  0.1445654E+03  0.7546771E-02  0.1229041E+00
          2   -1    0    0  501    0  0.00000000000E+00  0.00000000000E+00  0.15606058087E+03  0.15606058087E+03  0.00000000000E+00 0. -1.
         -2   -1    0    0    0  501 -0.00000000000E+00 -0.00000000000E+00 -0.94598408051E+02  0.94598408051E+02  0.00000000000E+00 0.  1.
         23    2    1    2    0    0  0.68257709169E+01  0.33088354740E+01 -0.48565036859E+01  0.91607632951E+02  0.91163771565E+02 0.  0.
          5    1    1    2  502    0 -0.15757653141E+01 -0.73195075051E+02  0.43028264483E+02  0.85050124000E+02  0.47000000000E+01 0. -1.
         -5    1    1    2    0  502 -0.52500056028E+01  0.69886239577E+02  0.23290412022E+02  0.74001231970E+02  0.47000000000E+01 0.  1.
        -11    1    3    3    0    0 -0.30548555318E+02 -0.26846725537E+02  0.89446642582E+01  0.41640940464E+02  0.00000000000E+00 0. -1.
         11    1    3    3    0    0  0.37374326235E+02  0.30155561011E+02 -0.13801167944E+02  0.49966692486E+02  0.00000000000E+00 0.  1.
<mgrwt>
<rscale>  0 0.12893728E+03</rscale>
<asrwt>0</asrwt>
<pdfrwt beam="1">  1        2 0.24009320E-01 0.14456544E+03</pdfrwt>
<pdfrwt beam="2">  1       -2 0.14553601E-01 0.14456544E+03</pdfrwt>
<totfact> 0.77081056E+03</totfact>
</mgrwt>
</event>
<event>
 8    1  0.1273312E-005  0.1590760E+03  0.7546771E-02  0.1197341E+00
          2   -1    0    0  501    0  0.00000000000E+00  0.00000000000E+00  0.64329456820E+02  0.64329456820E+02  0.00000000000E+00 0.  1.
         -2   -1    0    0    0  501 -0.00000000000E+00 -0.00000000000E+00 -0.35620029519E+03  0.35620029519E+03  0.00000000000E+00 0. -1.
         23    2    1    2    0    0 -0.90463022722E+02 -0.38680646864E+02 -0.18533662524E+03  0.22907557660E+03  0.91903232893E+02 0.  0.
         23    2    1    2    0    0  0.90463022722E+02  0.38680646864E+02 -0.10653421313E+03  0.19145417541E+03  0.12500164717E+03 0.  0.
          5    1    4    4  502    0 -0.66274138995E+01  0.47461875078E+02 -0.74546840515E+02  0.88746118967E+02  0.47000000000E+01 0. -1.
         -5    1    4    4    0  502  0.97090436621E+02 -0.87812282134E+01 -0.31987372616E+02  0.10270805645E+03  0.47000000000E+01 0. -1.
        -11    1    3    3    0    0 -0.13341671100E+02  0.24403402663E+02 -0.77093992659E+02  0.81957366682E+02  0.00000000000E+00 0. -1.
         11    1    3    3    0    0 -0.77121351621E+02 -0.63084049527E+02 -0.10824263258E+03  0.14711820991E+03  0.00000000000E+00 0.  1.
<mgrwt>
<rscale>  0 0.15257769E+03</rscale>
<asrwt>0</asrwt>
<pdfrwt beam="1">  1        2 0.98968394E-02 0.15907597E+03</pdfrwt>
<pdfrwt beam="2">  1       -2 0.54800046E-01 0.15907597E+03</pdfrwt>
<totfact> 0.20164039E+03</totfact>
</mgrwt>
</event>
<event>
 7    1  0.1273312E-005  0.1729726E+03  0.7546771E-02  0.1201983E+00
         -1   -1    0    0    0  501 -0.00000000000E+00  0.00000000000E+00  0.88154811191E+02  0.88154811191E+02  0.00000000000E+00 0.  1.
          1   -1    0    0  501    0  0.00000000000E+00 -0.00000000000E+00 -0.24546140227E+04  0.24546140227E+04  0.00000000000E+00 0. -1.
         23    2    1    2    0    0 -0.18627981975E+02  0.10595428925E+02  0.58736967968E+02  0.11141200242E+03  0.92213545912E+02 0.  0.
          5    1    1    2  502    0  0.37290884402E+02 -0.63316915207E+01 -0.23949552461E+04  0.23952585291E+04  0.47000000000E+01 0. -1.
         -5    1    1    2    0  502 -0.18662902426E+02 -0.42637374039E+01 -0.30240933412E+02  0.36098302415E+02  0.47000000000E+01 0.  1.
        -11    1    3    3    0    0  0.45387589787E+01  0.48400850519E+02  0.20114307719E+02  0.52610151483E+02  0.00000000000E+00 0. -1.
         11    1    3    3    0    0 -0.23166740954E+02 -0.37805421595E+02  0.38622660249E+02  0.58801850933E+02  0.00000000000E+00 0.  1.
<mgrwt>
<rscale>  0 0.14877752E+03</rscale>
<asrwt>0</asrwt>
<pdfrwt beam="2">  1        1 0.37763292E+00 0.17297264E+03</pdfrwt>
<pdfrwt beam="1">  1       -1 0.13562279E-01 0.17297264E+03</pdfrwt>
<totfact> 0.67134289E+01</totfact>
</mgrwt>
</event>
<event>
 8    1  0.1273312E-005  0.1311323E+03  0.7546771E-02  0.1239530E+00
         -3   -1    0    0    0  501 -0.00000000000E+00  0.00000000000E+00  0.66625994589E+02  0.66625994589E+02  0.00000000000E+00 0.  1.
          3   -1    0    0  501    0  0.00000000000E+00 -0.00000000000E+00 -0.23350603740E+03  0.23350603740E+03  0.00000000000E+00 0. -1.
         23    2    1    2    0    0  0.47764889164E+01 -0.39343675074E+02 -0.15845289966E+02  0.10011408919E+03  0.90559472313E+02 0.  0.
         23    2    1    2    0    0 -0.47764889164E+01  0.39343675074E+02 -0.15103475285E+03  0.20001794280E+03  0.12499976504E+03 0.  0.
          5    1    4    4  502    0 -0.53689932336E+02  0.61243478236E+01 -0.23010592471E+02  0.58921081425E+02  0.47000000000E+01 0. -1.
         -5    1    4    4    0  502  0.48913443419E+02  0.33219327250E+02 -0.12802416038E+03  0.14109686138E+03  0.47000000000E+01 0. -1.
        -11    1    3    3    0    0 -0.36693024572E+02 -0.39581159591E+02  0.40382885112E+01  0.54123507101E+02  0.00000000000E+00 0.  1.
         11    1    3    3    0    0  0.41469513488E+02  0.23748451734E+00 -0.19883578477E+02  0.45990582089E+02  0.00000000000E+00 0. -1.
<mgrwt>
<rscale>  0 0.12218808E+03</rscale>
<asrwt>0</asrwt>
<pdfrwt beam="2">  1        3 0.35924005E-01 0.13113230E+03</pdfrwt>
<pdfrwt beam="1">  1       -3 0.10250153E-01 0.13113230E+03</pdfrwt>
<totfact> 0.12383494E+03</totfact>
</mgrwt>
</event>
<event>
 8    1  0.1273312E-005  0.2956128E+03  0.7546771E-02  0.1088972E+00
          1   -1    0    0  501    0  0.00000000000E+00  0.00000000000E+00  0.19377327530E+03  0.19377327530E+03  0.00000000000E+00 0. -1.
         -1   -1    0    0    0  501 -0.00000000000E+00 -0.00000000000E+00 -0.44994378127E+03  0.44994378127E+03  0.00000000000E+00 0.  1.
         23    2    1    2    0    0 -0.34275515516E+02  0.26568245726E+03 -0.63821773672E+02  0.29103449423E+03  0.94158796587E+02 0.  0.
         23    2    1    2    0    0  0.34275515516E+02 -0.26568245726E+03 -0.19234873229E+03  0.35268256234E+03  0.12499990362E+03 0.  0.
          5    1    4    4  502    0 -0.25686016680E+02 -0.20514799328E+03 -0.11064821984E+03  0.23454336306E+03  0.47000000000E+01 0.  1.
         -5    1    4    4    0  502  0.59961532196E+02 -0.60534463982E+02 -0.81700512452E+02  0.11813919929E+03  0.47000000000E+01 0.  1.
        -11    1    3    3    0    0 -0.38598112574E+02  0.11048890016E+03 -0.68688413460E+02  0.13570449328E+03  0.00000000000E+00 0.  1.
         11    1    3    3    0    0  0.43225970587E+01  0.15519355710E+03  0.48666397880E+01  0.15533000095E+03  0.00000000000E+00 0. -1.
<mgrwt>
<rscale>  0 0.29265309E+03</rscale>
<asrwt>0</asrwt>
<pdfrwt beam="1">  1        1 0.29811274E-01 0.29561285E+03</pdfrwt>
<pdfrwt beam="2">  1       -1 0.69222119E-01 0.29561285E+03</pdfrwt>
<totfact> 0.33610031E+02</totfact>
</mgrwt>
</event>
<event>
 8    1  0.1273312E-005  0.1444876E+03  0.7546771E-02  0.1218580E+00
         -1   -1    0    0    0  501 -0.00000000000E+00  0.00000000000E+00  0.21942966111E+02  0.21942966111E+02  0.00000000000E+00 0.  1.
          1   -1    0    0  501    0  0.00000000000E+00 -0.00000000000E+00 -0.85305067433E+03  0.85305067433E+03  0.00000000000E+00 0. -1.
         23    2    1    2    0    0 -0.47656200536E+02  0.54610547734E+02 -0.22903680141E+03  0.25582803995E+03  0.87958537122E+02 0.  0.
         23    2    1    2    0    0  0.47656200536E+02 -0.54610547734E+02 -0.60207090681E+03  0.61916560049E+03  0.12499295432E+03 0.  0.
          5    1    4    4  502    0  0.17597735876E+02  0.37648381327E+02 -0.11188903926E+03  0.11945010687E+03  0.47000000000E+01 0.  1.
         -5    1    4    4    0  502  0.30058464660E+02 -0.92258929061E+02 -0.49018186755E+03  0.49971549362E+03  0.47000000000E+01 0.  1.
        -11    1    3    3    0    0 -0.69866886414E+02  0.56116294731E+02 -0.20066147380E+03  0.21976225203E+03  0.00000000000E+00 0.  1.
         11    1    3    3    0    0  0.22210685879E+02 -0.15057469978E+01 -0.28375327614E+02  0.36065787922E+02  0.00000000000E+00 0. -1.
<mgrwt>
<rscale>  0 0.13616786E+03</rscale>
<asrwt>0</asrwt>
<pdfrwt beam="2">  1        1 0.13123857E+00 0.14448759E+03</pdfrwt>
<pdfrwt beam="1">  1       -1 0.33758407E-02 0.14448759E+03</pdfrwt>
<totfact> 0.64089978E+03</totfact>
</mgrwt>
</event>
<event>
 8    1  0.1273312E-005  0.1381231E+03  0.7546771E-02  0.1227667E+00
         -2   -1    0    0    0  501 -0.00000000000E+00  0.00000000000E+00  0.26479188295E+03  0.26479188295E+03  0.00000000000E+00 0.  1.
          2   -1    0    0  501    0  0.00000000000E+00 -0.00000000000E+00 -0.82322531278E+02  0.82322531278E+02  0.00000000000E+00 0. -1.
         23    2    1    2    0    0  0.43974300798E+02  0.38983602709E+02  0.17892279615E+03  0.20894583685E+03  0.90507101068E+02 0.  0.
         23    2    1    2    0    0 -0.43974300798E+02 -0.38983602709E+02  0.35465555217E+01  0.13816857738E+03  0.12499806922E+03 0.  0.
          5    1    4    4  502    0  0.52510759839E+01  0.42340529208E+02  0.22464315278E+01  0.42981748071E+02  0.47000000000E+01 0.  1.
         -5    1    4    4    0  502 -0.49225376782E+02 -0.81324131917E+02  0.13001239938E+01  0.95186829309E+02  0.47000000000E+01 0.  1.
        -11    1    3    3    0    0  0.18764473523E+02  0.67179850353E+02  0.12373948291E+03  0.14204470209E+03  0.00000000000E+00 0. -1.
         11    1    3    3    0    0  0.25209827275E+02 -0.28196247644E+02  0.55183313241E+02  0.66901134764E+02  0.00000000000E+00 0.  1.
<mgrwt>
<rscale>  0 0.12985750E+03</rscale>
<asrwt>0</asrwt>
<pdfrwt beam="2">  1        2 0.12665005E-01 0.13812305E+03</pdfrwt>
<pdfrwt beam="1">  1       -2 0.40737212E-01 0.13812305E+03</pdfrwt>
<totfact> 0.26521791E+03</totfact>
</mgrwt>
</event>
<event>
 8    1  0.1273312E-005  0.1580299E+03  0.7546771E-02  0.1198820E+00
         -1   -1    0    0    0  501 -0.00000000000E+00  0.00000000000E+00  0.54282632711E+02  0.54282632711E+02  0.00000000000E+00 0.  1.
          1   -1    0    0  501    0  0.00000000000E+00 -0.00000000000E+00 -0.57177315868E+03  0.57177315868E+03  0.00000000000E+00 0. -1.
         23    2    1    2    0    0 -0.92090168525E+02  0.29334188710E+02 -0.67494150628E+02  0.14911744599E+03  0.91320636017E+02 0.  0.
         23    2    1    2    0    0  0.92090168525E+02 -0.29334188710E+02 -0.44999637534E+03  0.47693834540E+03  0.12502941146E+03 0.  0.
          5    1    4    4  502    0  0.32680656471E+02  0.46470908082E+02 -0.11520523130E+03  0.12853756620E+03  0.47000000000E+01 0.  1.
         -5    1    4    4    0  502  0.59409512055E+02 -0.75805096793E+02 -0.33479114404E+03  0.34840077921E+03  0.47000000000E+01 0.  1.
        -11    1    3    3    0    0 -0.23042648935E+02  0.50536717491E+02 -0.92003284192E+01  0.56298930076E+02  0.00000000000E+00 0.  1.
         11    1    3    3    0    0 -0.69047519591E+02 -0.21202528780E+02 -0.58293822209E+02  0.92818515911E+02  0.00000000000E+00 0. -1.
<mgrwt>
<rscale>  0 0.15135313E+03</rscale>
<asrwt>0</asrwt>
<pdfrwt beam="2">  1        1 0.87965099E-01 0.15802989E+03</pdfrwt>
<pdfrwt beam="1">  1       -1 0.83511745E-02 0.15802989E+03</pdfrwt>
<totfact> 0.29743138E+03</totfact>
</mgrwt>
</event>
<event>
 8    1  0.1273312E-005  0.1838172E+03  0.7546771E-02  0.1169522E+00
          2   -1    0    0  501    0  0.00000000000E+00  0.00000000000E+00  0.89897033636E+03  0.89897033636E+03  0.00000000000E+00 0. -1.
         -2   -1    0    0    0  501 -0.00000000000E+00 -0.00000000000E+00 -0.38288043916E+02  0.38288043916E+02  0.00000000000E+00 0.  1.
         23    2    1    2    0    0 -0.17823049071E+02  0.13358790969E+03  0.23924737833E+03  0.28920735375E+03  0.90764501509E+02 0.  0.
         23    2    1    2    0    0  0.17823049071E+02 -0.13358790969E+03  0.62143491411E+03  0.64805102652E+03  0.12500155919E+03 0.  0.
          5    1    4    4  502    0  0.53827834922E+02 -0.43063207274E+02  0.13197463665E+03  0.14896734660E+03  0.47000000000E+01 0. -1.
         -5    1    4    4    0  502 -0.36004785850E+02 -0.90524702418E+02  0.48946027746E+03  0.49908367992E+03  0.47000000000E+01 0. -1.
        -11    1    3    3    0    0 -0.60561740785E+01 -0.88589877859E+01  0.54906758879E+02  0.55945608225E+02  0.00000000000E+00 0. -1.
         11    1    3    3    0    0 -0.11766874993E+02  0.14244689748E+03  0.18434061945E+03  0.23326174553E+03  0.00000000000E+00 0.  1.
<mgrwt>
<rscale>  0 0.17823519E+03</rscale>
<asrwt>0</asrwt>
<pdfrwt beam="1">  1        2 0.13830311E+00 0.18381725E+03</pdfrwt>
<pdfrwt beam="2">  1       -2 0.58904690E-02 0.18381725E+03</pdfrwt>
<totfact> 0.45686115E+03</totfact>
</mgrwt>
</event>
<event>
 8    1  0.1920415E-005  0.3515820E+03  0.7546771E-02  0.1062893E+00
         -2   -1    0    0    0  501 -0.00000000000E+00  0.00000000000E+00  0.19710522540E+03  0.19710522540E+03  0.00000000000E+00 0.  1.
          2   -1    0    0  501    0  0.00000000000E+00 -0.00000000000E+00 -0.63524982345E+03  0.63524982345E+03  0.00000000000E+00 0. -1.
         23    2    1    2    0    0  0.32857578194E+03 -0.47528644521E+01 -0.13550292849E+03  0.36845645620E+03  0.97028255101E+02 0.  0.
         23    2    1    2    0    0 -0.32857578194E+03  0.47528644521E+01 -0.30264166957E+03  0.46389859265E+03  0.12500115962E+03 0.  0.
          5    1    4    4  502    0 -0.33843924727E+03 -0.20768584763E+01 -0.29445601142E+03  0.44863333592E+03  0.47000000000E+01 0. -1.
         -5    1    4    4    0  502  0.98634653363E+01  0.68297229284E+01 -0.81856581433E+01  0.15265256728E+02  0.47000000000E+01 0. -1.
        -11    1    3    3    0    0  0.12708983355E+03  0.35763018990E+02 -0.22532762468E+02  0.13393485246E+03  0.00000000000E+00 0. -1.
         11    1    3    3    0    0  0.20148594838E+03 -0.40515883442E+02 -0.11297016602E+03  0.23452160373E+03  0.00000000000E+00 0.  1.
<mgrwt>
<rscale>  0 0.34932374E+03</rscale>
<asrwt>0</asrwt>
<pdfrwt beam="2">  1        2 0.97730741E-01 0.35158203E+03</pdfrwt>
<pdfrwt beam="1">  1       -2 0.30323881E-01 0.35158203E+03</pdfrwt>
<totfact> 0.47377375E+02</totfact>
</mgrwt>
</event>
<event>
 8    1  0.1273312E-005  0.3317044E+03  0.7546771E-02  0.1071638E+00
         -2   -1    0    0    0  501 -0.00000000000E+00  0.00000000000E+00  0.57494626601E+02  0.57494626601E+02  0.00000000000E+00 0.  1.
          2   -1    0    0  501    0  0.00000000000E+00 -0.00000000000E+00 -0.18834617132E+04  0.18834617132E+04  0.00000000000E+00 0. -1.
         23    2    1    2    0    0  0.64795119913E+02  0.30033981802E+03 -0.76761389182E+03  0.83183990617E+03  0.91236663340E+02 0.  0.
         23    2    1    2    0    0 -0.64795119913E+02 -0.30033981802E+03 -0.10583531948E+04  0.11091164336E+04  0.12500145834E+03 0.  0.
          5    1    4    4  502    0 -0.72543495862E+02 -0.29619290235E+03 -0.89650156564E+03  0.94695825747E+03  0.47000000000E+01 0. -1.
         -5    1    4    4    0  502  0.77483759485E+01 -0.41469156674E+01 -0.16185162913E+03  0.16215817615E+03  0.47000000000E+01 0. -1.
        -11    1    3    3    0    0  0.30817609962E+01  0.76997809955E+02 -0.10770533864E+03  0.13243337932E+03  0.00000000000E+00 0. -1.
         11    1    3    3    0    0  0.61713358917E+02  0.22334200806E+03 -0.65990855318E+03  0.69940652685E+03  0.00000000000E+00 0.  1.
<mgrwt>
<rscale>  0 0.32886959E+03</rscale>
<asrwt>0</asrwt>
<pdfrwt beam="2">  1        2 0.28976332E+00 0.33170435E+03</pdfrwt>
<pdfrwt beam="1">  1       -2 0.88453278E-02 0.33170435E+03</pdfrwt>
<totfact> 0.68580333E+02</totfact>
</mgrwt>
</event>
<event>
 8    1  0.1273312E-005  0.1277567E+03  0.7546771E-02  0.1247524E+00
          2   -1    0    0  501    0  0.00000000000E+00  0.00000000000E+00  0.22712532201E+04  0.22712532201E+04  0.00000000000E+00 0.  1.
         -2   -1    0    0    0  501 -0.00000000000E+00 -0.00000000000E+00 -0.11008401024E+02  0.11008401024E+02  0.00000000000E+00 0. -1.
         23    2    1    2    0    0  0.84127462016E+01  0.25019418621E+02  0.22058239150E+03  0.23860201602E+03  0.87049325110E+02 0.  0.
         23    2    1    2    0    0 -0.84127462016E+01 -0.25019418621E+02  0.20396624276E+04  0.20436596051E+04  0.12500006985E+03 0.  0.
          5    1    4    4  502    0  0.47869068777E+02 -0.46856157716E+02  0.11024199614E+04  0.11044631314E+04  0.47000000000E+01 0.  1.
         -5    1    4    4    0  502 -0.56281814978E+02  0.21836739095E+02  0.93724246619E+03  0.93919647375E+03  0.47000000000E+01 0.  1.
        -11    1    3    3    0    0 -0.37381237028E+02  0.24763243790E+02  0.11927733009E+03  0.12742706384E+03  0.00000000000E+00 0.  1.
         11    1    3    3    0    0  0.45793983230E+02  0.25617483167E+00  0.10130506141E+03  0.11117495218E+03  0.00000000000E+00 0. -1.
<mgrwt>
<rscale>  0 0.11735572E+03</rscale>
<asrwt>0</asrwt>
<pdfrwt beam="1">  1        2 0.34942320E+00 0.12775666E+03</pdfrwt>
<pdfrwt beam="2">  1       -2 0.16936020E-02 0.12775666E+03</pdfrwt>
<totfact> 0.52478464E+03</totfact>
</mgrwt>
</event>
<event>
 8    1  0.1273312E-005  0.1964398E+03  0.7546771E-02  0.1155402E+00
          2   -1    0    0  501    0  0.00000000000E+00  0.00000000000E+00  0.15198179086E+04  0.15198179086E+04  0.00000000000E+00 0. -1.
         -2   -1    0    0    0  501 -0.00000000000E+00 -0.00000000000E+00 -0.12822989110E+03  0.12822989110E+03  0.00000000000E+00 0.  1.
         23    2    1    2    0    0  0.13343534458E+03  0.87688064859E+02 -0.51438374138E+02  0.19171207161E+03  0.92808534984E+02 0.  0.
         23    2    1    2    0    0 -0.13343534458E+03 -0.87688064859E+02  0.14430263916E+04  0.14563357281E+04  0.11443075653E+03 0.  0.
          5    1    4    4  502    0 -0.13644726835E+03 -0.10411103541E+03  0.11446164818E+04  0.11574221119E+04  0.47000000000E+01 0. -1.
         -5    1    4    4    0  502  0.30119237670E+01  0.16422970552E+02  0.29840990977E+03  0.29891361611E+03  0.47000000000E+01 0.  1.
        -11    1    3    3    0    0  0.43513451487E+02  0.83728269095E+02 -0.31903144616E+02  0.99607500432E+02  0.00000000000E+00 0. -1.
         11    1    3    3    0    0  0.89921893091E+02  0.39597957647E+01 -0.19535229522E+02  0.92104571179E+02  0.00000000000E+00 0.  1.
<mgrwt>
<rscale>  0 0.19343207E+03</rscale>
<asrwt>0</asrwt>
<pdfrwt beam="1">  1        2 0.23381813E+00 0.19643978E+03</pdfrwt>
<pdfrwt beam="2">  1       -2 0.19727677E-01 0.19643978E+03</pdfrwt>
<totfact> 0.29299570E+02</totfact>
</mgrwt>
</event>
<event>
 7    1  0.1273312E-005  0.3473453E+03  0.7546771E-02  0.1096091E+00
         -2   -1    0    0    0  501 -0.00000000000E+00  0.00000000000E+00  0.10850193500E+03  0.10850193500E+03  0.00000000000E+00 0.  1.
          2   -1    0    0  501    0  0.00000000000E+00 -0.00000000000E+00 -0.58565952908E+03  0.58565952908E+03  0.00000000000E+00 0. -1.
         23    2    1    2    0    0 -0.39440691036E+02  0.10253892964E+03 -0.77066827619E+02  0.16432997887E+03  0.94843269848E+02 0.  0.
          5    1    1    2  502    0  0.30802796714E+02 -0.41160033760E+02 -0.44824007023E+03  0.45120307093E+03  0.47000000000E+01 0. -1.
         -5    1    1    2    0  502  0.86378943218E+01 -0.61378895876E+02  0.48149303766E+02  0.78628414269E+02  0.47000000000E+01 0.  1.
        -11    1    3    3    0    0  0.11569165746E+02  0.17527069533E+02  0.17486991923E+02  0.27328348816E+02  0.00000000000E+00 0.  1.
         11    1    3    3    0    0 -0.51009856782E+02  0.85011860102E+02 -0.94553819543E+02  0.13700163005E+03  0.00000000000E+00 0. -1.
<mgrwt>
<rscale>  0 0.27926493E+03</rscale>
<asrwt>0</asrwt>
<pdfrwt beam="2">  1        2 0.90101466E-01 0.34734533E+03</pdfrwt>
<pdfrwt beam="1">  1       -2 0.16692605E-01 0.34734533E+03</pdfrwt>
<totfact> 0.14882687E+03</totfact>
</mgrwt>
</event>
<event>
 8    1  0.1273312E-005  0.1887604E+03  0.7546771E-02  0.1164042E+00
          2   -1    0    0  501    0  0.00000000000E+00  0.00000000000E+00  0.16258851565E+04  0.16258851565E+04  0.00000000000E+00 0. -1.
         -2   -1    0    0    0  501 -0.00000000000E+00 -0.00000000000E+00 -0.21937790945E+02  0.21937790945E+02  0.00000000000E+00 0.  1.
         23    2    1    2    0    0 -0.11383211085E+03  0.83956490967E+02  0.50849423056E+03  0.53622587391E+03  0.94685603466E+02 0.  0.
         23    2    1    2    0    0  0.11383211085E+03 -0.83956490967E+02  0.10954531350E+04  0.11115970735E+04  0.12499616427E+03 0.  0.
          5    1    4    4  502    0  0.85361877339E+02 -0.33191099511E+02  0.29287840938E+03  0.30690088281E+03  0.47000000000E+01 0. -1.
         -5    1    4    4    0  502  0.28470233513E+02 -0.50765391456E+02  0.80257472563E+03  0.80469619073E+03  0.47000000000E+01 0. -1.
        -11    1    3    3    0    0 -0.11894365581E+03  0.62667567854E+02  0.48819800152E+03  0.50637150987E+03  0.00000000000E+00 0. -1.
         11    1    3    3    0    0  0.51115449604E+01  0.21288923114E+02  0.20296229041E+02  0.29854364044E+02  0.00000000000E+00 0.  1.
<mgrwt>
<rscale>  0 0.18394165E+03</rscale>
<asrwt>0</asrwt>
<pdfrwt beam="1">  1        2 0.25013608E+00 0.18876038E+03</pdfrwt>
<pdfrwt beam="2">  1       -2 0.33750460E-02 0.18876038E+03</pdfrwt>
<totfact> 0.41344211E+03</totfact>
</mgrwt>
</event>
<event>
 8    1  0.1273312E-005  0.1395189E+03  0.7546771E-02  0.1225225E+00
          2   -1    0    0  501    0  0.00000000000E+00  0.00000000000E+00  0.61803307551E+02  0.61803307551E+02  0.00000000000E+00 0. -1.
         -2   -1    0    0    0  501 -0.00000000000E+00 -0.00000000000E+00 -0.33198259688E+03  0.33198259688E+03  0.00000000000E+00 0.  1.
         23    2    1    2    0    0 -0.51522137647E+02 -0.34462677597E+02 -0.21906106298E+03  0.24519724537E+03  0.91058953475E+02 0.  0.
         23    2    1    2    0    0  0.51522137647E+02  0.34462677597E+02 -0.51118226345E+02  0.14858865906E+03  0.12499323870E+03 0.  0.
          5    1    4    4  502    0 -0.10574016487E+02 -0.46055526821E+01 -0.71279914504E+02  0.72359775786E+02  0.47000000000E+01 0.  1.
         -5    1    4    4    0  502  0.62096154134E+02  0.39068230279E+02  0.20161688159E+02  0.76228883272E+02  0.47000000000E+01 0.  1.
        -11    1    3    3    0    0  0.12729787071E+01 -0.38270121349E+02 -0.16558307922E+03  0.16995287225E+03  0.00000000000E+00 0.  1.
         11    1    3    3    0    0 -0.52795116355E+02  0.38074437513E+01 -0.53477983761E+02  0.75244373118E+02  0.00000000000E+00 0. -1.
<mgrwt>
<rscale>  0 0.13151490E+03</rscale>
<asrwt>0</asrwt>
<pdfrwt beam="1">  1        2 0.95082013E-02 0.13951888E+03</pdfrwt>
<pdfrwt beam="2">  1       -2 0.51074245E-01 0.13951888E+03</pdfrwt>
<totfact> 0.24229256E+03</totfact>
</mgrwt>
</event>
<event>
 8    1  0.1273312E-005  0.1376987E+03  0.7546771E-02  0.1230429E+00
         -2   -1    0    0    0  501 -0.00000000000E+00  0.00000000000E+00  0.75374210446E+02  0.75374210446E+02  0.00000000000E+00 0.  1.
          2   -1    0    0  501    0  0.00000000000E+00 -0.00000000000E+00 -0.19903138105E+03  0.19903138105E+03  0.00000000000E+00 0. -1.
         23    2    1    2    0    0  0.51924218161E+02  0.25277672056E+02 -0.27575165838E+02  0.10649886128E+03  0.85126567813E+02 0.  0.
         23    2    1    2    0    0 -0.51924218161E+02 -0.25277672056E+02 -0.96082004767E+02  0.16790673021E+03  0.12500333305E+03 0.  0.
          5    1    4    4  502    0 -0.48588076355E+02 -0.45895567390E+02 -0.11898690291E+03  0.13655466793E+03  0.47000000000E+01 0.  1.
         -5    1    4    4    0  502 -0.33361418062E+01  0.20617895335E+02  0.22904898144E+02  0.31352062280E+02  0.47000000000E+01 0.  1.
        -11    1    3    3    0    0  0.49452522104E+02  0.42353673370E-01  0.19396433080E+02  0.53120385470E+02  0.00000000000E+00 0.  1.
         11    1    3    3    0    0  0.24716960575E+01  0.25235318382E+02 -0.46971598919E+02  0.53378475814E+02  0.00000000000E+00 0. -1.
<mgrwt>
<rscale>  0 0.12801660E+03</rscale>
<asrwt>0</asrwt>
<pdfrwt beam="2">  1        2 0.30620212E-01 0.13769865E+03</pdfrwt>
<pdfrwt beam="1">  1       -2 0.11596032E-01 0.13769865E+03</pdfrwt>
<totfact> 0.84858263E+03</totfact>
</mgrwt>
</event>
<event>
 7    1  0.1273312E-005  0.3003858E+03  0.7546771E-02  0.1122066E+00
         -2   -1    0    0    0  501 -0.00000000000E+00  0.00000000000E+00  0.64222611195E+02  0.64222611195E+02  0.00000000000E+00 0.  1.
          2   -1    0    0  501    0  0.00000000000E+00 -0.00000000000E+00 -0.70359478936E+03  0.70359478936E+03  0.00000000000E+00 0. -1.
         23    2    1    2    0    0 -0.67508229463E+02 -0.26123488266E+02 -0.11258378562E+03  0.16140363490E+03  0.90201035973E+02 0.  0.
          5    1    1    2  502    0 -0.97089088082E+02  0.39200721860E+02 -0.34600162648E+03  0.36152759666E+03  0.47000000000E+01 0. -1.
         -5    1    1    2    0  502  0.16459731754E+03 -0.13077233594E+02 -0.18078676607E+03  0.24488616900E+03  0.47000000000E+01 0.  1.
        -11    1    3    3    0    0 -0.37059155932E+01 -0.23920306556E+02 -0.90765799309E+02  0.93937985928E+02  0.00000000000E+00 0. -1.
         11    1    3    3    0    0 -0.63802313870E+02 -0.22031817097E+01 -0.21817986312E+02  0.67465648974E+02  0.00000000000E+00 0.  1.
<mgrwt>
<rscale>  0 0.23661946E+03</rscale>
<asrwt>0</asrwt>
<pdfrwt beam="2">  1        2 0.10824536E+00 0.30038583E+03</pdfrwt>
<pdfrwt beam="1">  1       -2 0.98804012E-02 0.30038583E+03</pdfrwt>
<totfact> 0.28183011E+03</totfact>
</mgrwt>
</event>
<event>
 8    1  0.1273312E-005  0.1363340E+03  0.7546771E-02  0.1230057E+00
          1   -1    0    0  501    0  0.00000000000E+00  0.00000000000E+00  0.52301294873E+03  0.52301294873E+03  0.00000000000E+00 0. -1.
         -1   -1    0    0    0  501 -0.00000000000E+00 -0.00000000000E+00 -0.30068252323E+02  0.30068252323E+02  0.00000000000E+00 0.  1.
         23    2    1    2    0    0 -0.47547063165E+02  0.26455207486E+02  0.15094422321E+03  0.18490828711E+03  0.91903835087E+02 0.  0.
         23    2    1    2    0    0  0.47547063165E+02 -0.26455207486E+02  0.34200047320E+03  0.36817291394E+03  0.12500547857E+03 0.  0.
          5    1    4    4  502    0 -0.20150050984E+01  0.18233096350E+02 -0.75307176336E+00  0.18951600596E+02  0.47000000000E+01 0.  1.
         -5    1    4    4    0  502  0.49562068264E+02 -0.44688303836E+02  0.34275354496E+03  0.34922131335E+03  0.47000000000E+01 0.  1.
        -11    1    3    3    0    0 -0.16446914313E+02  0.33872848352E+02  0.80821838472E+01  0.38512238855E+02  0.00000000000E+00 0.  1.
         11    1    3    3    0    0 -0.31100148852E+02 -0.74176408660E+01  0.14286203936E+03  0.14639604825E+03  0.00000000000E+00 0. -1.
<mgrwt>
<rscale>  0 0.12826237E+03</rscale>
<asrwt>0</asrwt>
<pdfrwt beam="1">  1        1 0.80463524E-01 0.13633404E+03</pdfrwt>
<pdfrwt beam="2">  1       -1 0.46258854E-02 0.13633404E+03</pdfrwt>
<totfact> 0.80445665E+03</totfact>
</mgrwt>
</event>
<event>
 8    1  0.1273312E-005  0.1457533E+03  0.7546771E-02  0.1215983E+00
         -1   -1    0    0    0  501 -0.00000000000E+00  0.00000000000E+00  0.15592538994E+03  0.15592538994E+03  0.00000000000E+00 0.  1.
          1   -1    0    0  501    0  0.00000000000E+00 -0.00000000000E+00 -0.12336201451E+03  0.12336201451E+03  0.00000000000E+00 0. -1.
         23    2    1    2    0    0 -0.64575380935E+02  0.38064696878E+02  0.58789476045E+02  0.13119339137E+03  0.90203117876E+02 0.  0.
         23    2    1    2    0    0  0.64575380935E+02 -0.38064696878E+02 -0.26226100609E+02  0.14809401308E+03  0.12500050954E+03 0.  0.
          5    1    4    4  502    0 -0.81944825179E+01 -0.65875473846E+02 -0.27958328894E+01  0.66608064675E+02  0.47000000000E+01 0. -1.
         -5    1    4    4    0  502  0.72769863453E+02  0.27810776968E+02 -0.23430267720E+02  0.81485948408E+02  0.47000000000E+01 0. -1.
        -11    1    3    3    0    0  0.22629732384E+02  0.17738953255E+01  0.13869750784E+02  0.26601155599E+02  0.00000000000E+00 0.  1.
         11    1    3    3    0    0 -0.87205113319E+02  0.36290801553E+02  0.44919725261E+02  0.10459223577E+03  0.00000000000E+00 0. -1.
<mgrwt>
<rscale>  0 0.13804586E+03</rscale>
<asrwt>0</asrwt>
<pdfrwt beam="2">  1        1 0.18978771E-01 0.14575331E+03</pdfrwt>
<pdfrwt beam="1">  1       -1 0.23988522E-01 0.14575331E+03</pdfrwt>
<totfact> 0.39319841E+03</totfact>
</mgrwt>
</event>
<event>
 8    1  0.1273312E-005  0.1839991E+03  0.7546771E-02  0.1169497E+00
          2   -1    0    0  501    0  0.00000000000E+00  0.00000000000E+00  0.18499459980E+03  0.18499459980E+03  0.00000000000E+00 0.  1.
         -2   -1    0    0    0  501 -0.00000000000E+00 -0.00000000000E+00 -0.17515659312E+03  0.17515659312E+03  0.00000000000E+00 0. -1.
         23    2    1    2    0    0  0.10945509462E+03  0.79046632400E+02 -0.44866669676E+02  0.16819212942E+03  0.89703882408E+02 0.  0.
         23    2    1    2    0    0 -0.10945509462E+03 -0.79046632400E+02  0.54704676359E+02  0.19195906350E+03  0.12500757022E+03 0.  0.
          5    1    4    4  502    0 -0.12280197886E+03 -0.82588166035E+02  0.14006633624E+02  0.14872594584E+03  0.47000000000E+01 0. -1.
         -5    1    4    4    0  502  0.13346884244E+02  0.35415336349E+01  0.40698042734E+02  0.43233117652E+02  0.47000000000E+01 0. -1.
        -11    1    3    3    0    0  0.31117588822E+02  0.30479728857E+02 -0.60658725903E+02  0.74677970202E+02  0.00000000000E+00 0.  1.
         11    1    3    3    0    0  0.78337505797E+02  0.48566903543E+02  0.15792056227E+02  0.93514159218E+02  0.00000000000E+00 0. -1.
<mgrwt>
<rscale>  0 0.17826080E+03</rscale>
<asrwt>0</asrwt>
<pdfrwt beam="1">  1        2 0.28460708E-01 0.18399913E+03</pdfrwt>
<pdfrwt beam="2">  1       -2 0.26947168E-01 0.18399913E+03</pdfrwt>
<totfact> 0.22724282E+03</totfact>
</mgrwt>
</event>
<event>
 8    1  0.1273312E-005  0.1612815E+03  0.7546771E-02  0.1195055E+00
         -1   -1    0    0    0  501 -0.00000000000E+00  0.00000000000E+00  0.12421670582E+03  0.12421670582E+03  0.00000000000E+00 0.  1.
          1   -1    0    0  501    0  0.00000000000E+00 -0.00000000000E+00 -0.18216467417E+03  0.18216467417E+03  0.00000000000E+00 0. -1.
         23    2    1    2    0    0  0.69635433177E+01  0.10169513537E+03 -0.24744658681E+01  0.13582626731E+03  0.89734388146E+02 0.  0.
         23    2    1    2    0    0 -0.69635433177E+01 -0.10169513537E+03 -0.55473502480E+02  0.17055511269E+03  0.12498538112E+03 0.  0.
          5    1    4    4  502    0  0.38028606831E+02 -0.75695001676E+02  0.11542491635E+02  0.85622586561E+02  0.47000000000E+01 0. -1.
         -5    1    4    4    0  502 -0.44992150149E+02 -0.26000133693E+02 -0.67015994115E+02  0.84932526127E+02  0.47000000000E+01 0. -1.
        -11    1    3    3    0    0 -0.29012125301E+02  0.10469121778E+02 -0.19222488077E+02  0.36342949428E+02  0.00000000000E+00 0. -1.
         11    1    3    3    0    0  0.35975668619E+02  0.91226013591E+02  0.16748022209E+02  0.99483317879E+02  0.00000000000E+00 0.  1.
<mgrwt>
<rscale>  0 0.15449571E+03</rscale>
<asrwt>0</asrwt>
<pdfrwt beam="2">  1        1 0.28025334E-01 0.16128155E+03</pdfrwt>
<pdfrwt beam="1">  1       -1 0.19110263E-01 0.16128155E+03</pdfrwt>
<totfact> 0.34897785E+03</totfact>
</mgrwt>
</event>
<event>
 8    1  0.1273312E-005  0.1373791E+03  0.7546771E-02  0.1228573E+00
         -1   -1    0    0    0  501 -0.00000000000E+00  0.00000000000E+00  0.51114683342E+03  0.51114683342E+03  0.00000000000E+00 0.  1.
          1   -1    0    0  501    0  0.00000000000E+00 -0.00000000000E+00 -0.30754966291E+02  0.30754966291E+02  0.00000000000E+00 0. -1.
         23    2    1    2    0    0 -0.38656532393E+02 -0.41877024138E+02  0.26962540946E+03  0.29031580743E+03  0.91309331233E+02 0.  0.
         23    2    1    2    0    0  0.38656532393E+02  0.41877024138E+02  0.21076645766E+03  0.25158599228E+03  0.12499999674E+03 0.  0.
          5    1    4    4  502    0  0.68362922988E+02 -0.59785318349E+01  0.16532258233E+03  0.17906110217E+03  0.47000000000E+01 0. -1.
         -5    1    4    4    0  502 -0.29706390595E+02  0.47855555972E+02  0.45443875337E+02  0.72524890109E+02  0.47000000000E+01 0. -1.
        -11    1    3    3    0    0  0.91240758412E+01 -0.44865648035E+02  0.20405592047E+03  0.20912913191E+03  0.00000000000E+00 0.  1.
         11    1    3    3    0    0 -0.47780608234E+02  0.29886238976E+01  0.65569488992E+02  0.81186675525E+02  0.00000000000E+00 0. -1.
<mgrwt>
<rscale>  0 0.12924965E+03</rscale>
<asrwt>0</asrwt>
<pdfrwt beam="2">  1        1 0.47315336E-02 0.13737908E+03</pdfrwt>
<pdfrwt beam="1">  1       -1 0.78637968E-01 0.13737908E+03</pdfrwt>
<totfact> 0.29324163E+03</totfact>
</mgrwt>
</event>
<event>
 8    1  0.1273312E-005  0.1741997E+03  0.7546771E-02  0.1177836E+00
          1   -1    0    0  501    0  0.00000000000E+00  0.00000000000E+00  0.11887837696E+04  0.11887837696E+04  0.00000000000E+00 0. -1.
         -1   -1    0    0    0  501 -0.00000000000E+00 -0.00000000000E+00 -0.26229198113E+02  0.26229198113E+02  0.00000000000E+00 0.  1.
         23    2    1    2    0    0 -0.32366434479E+02 -0.12092223367E+03  0.35047233044E+03  0.38445706595E+03  0.96470764859E+02 0.  0.
         23    2    1    2    0    0  0.32366434479E+02  0.12092223367E+03  0.81208224104E+03  0.83055590177E+03  0.12114358038E+03 0.  0.
          5    1    4    4  502    0  0.66861130449E+02  0.11639674074E+03  0.71034216742E+03  0.72292924746E+03  0.47000000000E+01 0. -1.
         -5    1    4    4    0  502 -0.34494695970E+02  0.45254929264E+01  0.10174007362E+03  0.10762665430E+03  0.47000000000E+01 0.  1.
        -11    1    3    3    0    0 -0.56706720844E+02 -0.55324875660E+02  0.24823144265E+03  0.26056734864E+03  0.00000000000E+00 0. -1.
         11    1    3    3    0    0  0.24340286364E+02 -0.65597358008E+02  0.10224088779E+03  0.12388971731E+03  0.00000000000E+00 0.  1.
<mgrwt>
<rscale>  0 0.17001090E+03</rscale>
<asrwt>0</asrwt>
<pdfrwt beam="1">  1        1 0.18288977E+00 0.17419971E+03</pdfrwt>
<pdfrwt beam="2">  1       -1 0.40352622E-02 0.17419971E+03</pdfrwt>
<totfact> 0.28122784E+03</totfact>
</mgrwt>
</event>
<event>
 8    1  0.1273312E-005  0.1542870E+03  0.7546771E-02  0.1202772E+00
         -2   -1    0    0    0  501 -0.00000000000E+00  0.00000000000E+00  0.13400910824E+03  0.13400910824E+03  0.00000000000E+00 0.  1.
          2   -1    0    0  501    0  0.00000000000E+00 -0.00000000000E+00 -0.19233016810E+03  0.19233016810E+03  0.00000000000E+00 0. -1.
         23    2    1    2    0    0 -0.86125633259E+02  0.27595526084E+02  0.47243048044E+02  0.13939476075E+03  0.94972922307E+02 0.  0.
         23    2    1    2    0    0  0.86125633259E+02 -0.27595526084E+02 -0.10556410790E+03  0.18694451560E+03  0.12500133307E+03 0.  0.
          5    1    4    4  502    0  0.76374023869E+02  0.38358894154E+02 -0.73466535050E+02  0.11279990273E+03  0.47000000000E+01 0.  1.
         -5    1    4    4    0  502  0.97516093902E+01 -0.65954420238E+02 -0.32097572853E+02  0.74144612870E+02  0.47000000000E+01 0.  1.
        -11    1    3    3    0    0 -0.23474172489E+02  0.19035636340E+02 -0.27937752329E+02  0.41157140695E+02  0.00000000000E+00 0. -1.
         11    1    3    3    0    0 -0.62651460770E+02  0.85598897433E+01  0.75180800374E+02  0.98237620054E+02  0.00000000000E+00 0.  1.
<mgrwt>
<rscale>  0 0.14814426E+03</rscale>
<asrwt>0</asrwt>
<pdfrwt beam="2">  1        2 0.29589257E-01 0.15428698E+03</pdfrwt>
<pdfrwt beam="1">  1       -2 0.20616786E-01 0.15428698E+03</pdfrwt>
<totfact> 0.34435461E+03</totfact>
</mgrwt>
</event>
<event>
 8    1  0.1273312E-005  0.1299341E+03  0.7546771E-02  0.1241809E+00
         -1   -1    0    0    0  501 -0.00000000000E+00  0.00000000000E+00  0.17620631786E+03  0.17620631786E+03  0.00000000000E+00 0.  1.
          1   -1    0    0  501    0  0.00000000000E+00 -0.00000000000E+00 -0.80872342597E+02  0.80872342597E+02  0.00000000000E+00 0. -1.
         23    2    1    2    0    0 -0.35247800989E+02 -0.39730792027E+01  0.80936583529E+02  0.12634938776E+03  0.90306391809E+02 0.  0.
         23    2    1    2    0    0  0.35247800989E+02  0.39730792027E+01  0.14397391733E+02  0.13072927270E+03  0.12499866006E+03 0.  0.
          5    1    4    4  502    0  0.11278069253E+02  0.61450533372E+02 -0.10443600370E+02  0.63517884777E+02  0.47000000000E+01 0. -1.
         -5    1    4    4    0  502  0.23969731735E+02 -0.57477454170E+02  0.24840992103E+02  0.67211387918E+02  0.47000000000E+01 0. -1.
        -11    1    3    3    0    0 -0.45006452530E+02 -0.26660332231E+02  0.86450100642E+02  0.10104441590E+03  0.00000000000E+00 0.  1.
         11    1    3    3    0    0  0.97586515413E+01  0.22687253028E+02 -0.55135171125E+01  0.25304971860E+02  0.00000000000E+00 0. -1.
<mgrwt>
<rscale>  0 0.12078438E+03</rscale>
<asrwt>0</asrwt>
<pdfrwt beam="2">  1        1 0.12441899E-01 0.12993405E+03</pdfrwt>
<pdfrwt beam="1">  1       -1 0.27108664E-01 0.12993405E+03</pdfrwt>
<totfact> 0.55105216E+03</totfact>
</mgrwt>
</event>
<event>
 8    1  0.1273312E-005  0.1316576E+03  0.7546771E-02  0.1238550E+00
         -2   -1    0    0    0  501 -0.00000000000E+00  0.00000000000E+00  0.16618103677E+02  0.16618103677E+02  0.00000000000E+00 0.  1.
          2   -1    0    0  501    0  0.00000000000E+00 -0.00000000000E+00 -0.87158071885E+03  0.87158071885E+03  0.00000000000E+00 0. -1.
         23    2    1    2    0    0 -0.39831017010E+02 -0.11063352986E+02 -0.25103146306E+03  0.27008349454E+03  0.90660856414E+02 0.  0.
         23    2    1    2    0    0  0.39831017010E+02  0.11063352986E+02 -0.60393115212E+03  0.61811532798E+03  0.12499925798E+03 0.  0.
          5    1    4    4  502    0  0.68832242925E+02 -0.13381372554E+02 -0.19276047911E+03  0.20517219866E+03  0.47000000000E+01 0. -1.
         -5    1    4    4    0  502 -0.29001225915E+02  0.24444725540E+02 -0.41117067301E+03  0.41294312932E+03  0.47000000000E+01 0. -1.
        -11    1    3    3    0    0 -0.41849015960E+02 -0.46623810472E+02 -0.13760161618E+03  0.15119300452E+03  0.00000000000E+00 0.  1.
         11    1    3    3    0    0  0.20179989495E+01  0.35560457486E+02 -0.11342984688E+03  0.11889049003E+03  0.00000000000E+00 0. -1.
<mgrwt>
<rscale>  0 0.12279871E+03</rscale>
<asrwt>0</asrwt>
<pdfrwt beam="2">  1        2 0.13408936E+00 0.13165759E+03</pdfrwt>
<pdfrwt beam="1">  1       -2 0.25566309E-02 0.13165759E+03</pdfrwt>
<totfact> 0.16224030E+04</totfact>
</mgrwt>
</event>
<event>
 8    1  0.1273312E-005  0.1721223E+03  0.7546771E-02  0.1181909E+00
          2   -1    0    0  501    0  0.00000000000E+00  0.00000000000E+00  0.12663394026E+03  0.12663394026E+03  0.00000000000E+00 0. -1.
         -2   -1    0    0    0  501 -0.00000000000E+00 -0.00000000000E+00 -0.23749303794E+03  0.23749303794E+03  0.00000000000E+00 0.  1.
         23    2    1    2    0    0  0.87311772220E+02  0.79852790017E+02 -0.12009284830E+03  0.19175717033E+03  0.91371256529E+02 0.  0.
         23    2    1    2    0    0 -0.87311772220E+02 -0.79852790017E+02  0.92337506281E+01  0.17236980787E+03  0.12500509938E+03 0.  0.
          5    1    4    4  502    0 -0.11095019124E+03 -0.55375307489E+02  0.35566262247E+02  0.12908686466E+03  0.47000000000E+01 0.  1.
         -5    1    4    4    0  502  0.23638419024E+02 -0.24477482527E+02 -0.26332511618E+02  0.43282943211E+02  0.47000000000E+01 0.  1.
        -11    1    3    3    0    0  0.18792250206E+02  0.47393593895E+02 -0.10166251267E+03  0.11373024177E+03  0.00000000000E+00 0.  1.
         11    1    3    3    0    0  0.68519522014E+02  0.32459196122E+02 -0.18430335629E+02  0.78026928565E+02  0.00000000000E+00 0. -1.
<mgrwt>
<rscale>  0 0.16616286E+03</rscale>
<asrwt>0</asrwt>
<pdfrwt beam="1">  1        2 0.19482145E-01 0.17212231E+03</pdfrwt>
<pdfrwt beam="2">  1       -2 0.36537390E-01 0.17212231E+03</pdfrwt>
<totfact> 0.19887667E+03</totfact>
</mgrwt>
</event>
<event>
 8    1  0.1273312E-005  0.1599245E+03  0.7546771E-02  0.1196467E+00
          1   -1    0    0  501    0  0.00000000000E+00  0.00000000000E+00  0.13606236952E+04  0.13606236952E+04  0.00000000000E+00 0. -1.
         -1   -1    0    0    0  501 -0.00000000000E+00 -0.00000000000E+00 -0.16199838823E+02  0.16199838823E+02  0.00000000000E+00 0.  1.
         23    2    1    2    0    0  0.79122396365E+02  0.60738993897E+02  0.53773441952E+03  0.55443451309E+03  0.91048033375E+02 0.  0.
         23    2    1    2    0    0 -0.79122396365E+02 -0.60738993897E+02  0.80668943681E+03  0.82238902089E+03  0.12500510081E+03 0.  0.
          5    1    4    4  502    0 -0.10843373696E+03 -0.24073834375E+02  0.61592111028E+03  0.62587405195E+03  0.47000000000E+01 0.  1.
         -5    1    4    4    0  502  0.29311340598E+02 -0.36665159521E+02  0.19076832653E+03  0.19651496894E+03  0.47000000000E+01 0.  1.
        -11    1    3    3    0    0  0.15178782479E+01  0.32950830576E+02  0.50782279532E+02  0.60554942857E+02  0.00000000000E+00 0.  1.
         11    1    3    3    0    0  0.77604518117E+02  0.27788163321E+02  0.48695213999E+03  0.49387957023E+03  0.00000000000E+00 0. -1.
<mgrwt>
<rscale>  0 0.15330714E+03</rscale>
<asrwt>0</asrwt>
<pdfrwt beam="1">  1        1 0.20932663E+00 0.15992453E+03</pdfrwt>
<pdfrwt beam="2">  1       -1 0.24922840E-02 0.15992453E+03</pdfrwt>
<totfact> 0.43517860E+03</totfact>
</mgrwt>
</event>
<event>
 8    1  0.1273312E-005  0.1386445E+03  0.7546771E-02  0.1226615E+00
         -3   -1    0    0    0  501 -0.00000000000E+00  0.00000000000E+00  0.21826144477E+02  0.21826144477E+02  0.00000000000E+00 0.  1.
          3   -1    0    0  501    0  0.00000000000E+00 -0.00000000000E+00 -0.71574340639E+03  0.71574340639E+03  0.00000000000E+00 0. -1.
         23    2    1    2    0    0 -0.51750366849E+02  0.30310308941E+02 -0.25694424916E+03  0.27912903633E+03  0.91081592268E+02 0.  0.
         23    2    1    2    0    0  0.51750366849E+02 -0.30310308941E+02 -0.43697301275E+03  0.45844051454E+03  0.12500190477E+03 0.  0.
          5    1    4    4  502    0  0.28210302376E+02  0.47145449590E+02 -0.22012989522E+03  0.22693121281E+03  0.47000000000E+01 0.  1.
         -5    1    4    4    0  502  0.23540064474E+02 -0.77455758531E+02 -0.21684311754E+03  0.23150930173E+03  0.47000000000E+01 0.  1.
        -11    1    3    3    0    0 -0.25287852623E+02 -0.11656194091E+02 -0.13991922535E+02  0.31162738121E+02  0.00000000000E+00 0.  1.
         11    1    3    3    0    0 -0.26462514226E+02  0.41966503032E+02 -0.24295232663E+03  0.24796629821E+03  0.00000000000E+00 0. -1.
<mgrwt>
<rscale>  0 0.13056803E+03</rscale>
<asrwt>0</asrwt>
<pdfrwt beam="2">  1        3 0.11011437E+00 0.13864448E+03</pdfrwt>
<pdfrwt beam="1">  1       -3 0.33578684E-02 0.13864448E+03</pdfrwt>
<totfact> 0.72033602E+02</totfact>
</mgrwt>
</event>
<event>
 8    1  0.1273312E-005  0.1310289E+03  0.7546771E-02  0.1239887E+00
         -2   -1    0    0    0  501 -0.00000000000E+00  0.00000000000E+00  0.16959486083E+02  0.16959486083E+02  0.00000000000E+00 0.  1.
          2   -1    0    0  501    0  0.00000000000E+00 -0.00000000000E+00 -0.78867216100E+03  0.78867216100E+03  0.00000000000E+00 0. -1.
         23    2    1    2    0    0 -0.67265607832E+01 -0.38720662154E+02 -0.28075778681E+03  0.29749262704E+03  0.90179775947E+02 0.  0.
         23    2    1    2    0    0  0.67265607832E+01  0.38720662154E+02 -0.49095488811E+03  0.50813902005E+03  0.12499610090E+03 0.  0.
          5    1    4    4  502    0 -0.39204596539E+02  0.60402412968E+02 -0.19721314795E+03  0.21000135143E+03  0.47000000000E+01 0.  1.
         -5    1    4    4    0  502  0.45931157322E+02 -0.21681750814E+02 -0.29374174016E+03  0.29813766861E+03  0.47000000000E+01 0.  1.
        -11    1    3    3    0    0 -0.27407687078E+02  0.21239434750E+01 -0.23418337548E+02  0.36112476796E+02  0.00000000000E+00 0.  1.
         11    1    3    3    0    0  0.20681126295E+02 -0.40844605629E+02 -0.25733944926E+03  0.26138015024E+03  0.00000000000E+00 0. -1.
<mgrwt>
<rscale>  0 0.12196702E+03</rscale>
<asrwt>0</asrwt>
<pdfrwt beam="2">  1        2 0.12133418E+00 0.13102886E+03</pdfrwt>
<pdfrwt beam="1">  1       -2 0.26091517E-02 0.13102886E+03</pdfrwt>
<totfact> 0.17856479E+04</totfact>
</mgrwt>
</event>
<event>
 8    1  0.1273312E-005  0.1400503E+03  0.7546771E-02  0.1223488E+00
         -2   -1    0    0    0  501 -0.00000000000E+00  0.00000000000E+00  0.36582507385E+02  0.36582507385E+02  0.00000000000E+00 0.  1.
          2   -1    0    0  501    0  0.00000000000E+00 -0.00000000000E+00 -0.49497834207E+03  0.49497834207E+03  0.00000000000E+00 0. -1.
         23    2    1    2    0    0  0.30859166545E+02  0.55108495519E+02 -0.11724087527E+03  0.16277798996E+03  0.93605644820E+02 0.  0.
         23    2    1    2    0    0 -0.30859166545E+02 -0.55108495519E+02 -0.34115495941E+03  0.36878285949E+03  0.12499942675E+03 0.  0.
          5    1    4    4  502    0 -0.51091258977E+02 -0.55828867216E+02 -0.94063685353E+02  0.12081906332E+03  0.47000000000E+01 0. -1.
         -5    1    4    4    0  502  0.20232092432E+02  0.72037169643E+00 -0.24709127406E+03  0.24796379618E+03  0.47000000000E+01 0. -1.
        -11    1    3    3    0    0 -0.12540229353E+02 -0.17828029431E+02 -0.55369643766E+01  0.22488974190E+02  0.00000000000E+00 0.  1.
         11    1    3    3    0    0  0.43399395897E+02  0.72936524950E+02 -0.11170391090E+03  0.14028901577E+03  0.00000000000E+00 0. -1.
<mgrwt>
<rscale>  0 0.13271108E+03</rscale>
<asrwt>0</asrwt>
<pdfrwt beam="2">  1        2 0.76150514E-01 0.14005032E+03</pdfrwt>
<pdfrwt beam="1">  1       -2 0.56280781E-02 0.14005032E+03</pdfrwt>
<totfact> 0.98158974E+03</totfact>
</mgrwt>
</event>
<event>
 8    1  0.1273312E-005  0.1403625E+03  0.7546771E-02  0.1224623E+00
          2   -1    0    0  501    0  0.00000000000E+00  0.00000000000E+00  0.13473783692E+04  0.13473783692E+04  0.00000000000E+00 0. -1.
         -2   -1    0    0    0  501 -0.00000000000E+00 -0.00000000000E+00 -0.11939685730E+02  0.11939685730E+02  0.00000000000E+00 0.  1.
         23    2    1    2    0    0  0.63347544501E+02 -0.81727481533E+01  0.47200732179E+03  0.48455217083E+03  0.88995444944E+02 0.  0.
         23    2    1    2    0    0 -0.63347544501E+02  0.81727481533E+01  0.86343136163E+03  0.87476588406E+03  0.12498772122E+03 0.  0.
          5    1    4    4  502    0 -0.25238067413E+02 -0.57382741797E+02  0.45586292907E+03  0.46017696509E+03  0.47000000000E+01 0. -1.
         -5    1    4    4    0  502 -0.38109477089E+02  0.65555489950E+02  0.40756843256E+03  0.41458891897E+03  0.47000000000E+01 0. -1.
        -11    1    3    3    0    0  0.15604031818E+02 -0.45773442997E+02  0.18851004566E+03  0.19461431398E+03  0.00000000000E+00 0. -1.
         11    1    3    3    0    0  0.47743512683E+02  0.37600694844E+02  0.28349727613E+03  0.28993785684E+03  0.00000000000E+00 0.  1.
<mgrwt>
<rscale>  0 0.13192756E+03</rscale>
<asrwt>0</asrwt>
<pdfrwt beam="1">  1        2 0.20728886E+00 0.14036252E+03</pdfrwt>
<pdfrwt beam="2">  1       -2 0.18368758E-02 0.14036252E+03</pdfrwt>
<totfact> 0.14020311E+04</totfact>
</mgrwt>
</event>
<event>
 8    1  0.1273312E-005  0.1276621E+03  0.7546771E-02  0.1247372E+00
          2   -1    0    0  501    0  0.00000000000E+00  0.00000000000E+00  0.35785136955E+03  0.35785136955E+03  0.00000000000E+00 0. -1.
         -2   -1    0    0    0  501 -0.00000000000E+00 -0.00000000000E+00 -0.43689055097E+02  0.43689055097E+02  0.00000000000E+00 0.  1.
         23    2    1    2    0    0 -0.25316629449E+02 -0.56822279305E+01  0.41396571901E+02  0.10037807443E+03  0.87686157515E+02 0.  0.
         23    2    1    2    0    0  0.25316629449E+02  0.56822279305E+01  0.27276574255E+03  0.30116235022E+03  0.12499756573E+03 0.  0.
          5    1    4    4  502    0  0.28291842699E+02  0.34044611973E+02  0.26823869766E+03  0.27190725053E+03  0.47000000000E+01 0.  1.
         -5    1    4    4    0  502 -0.29752132498E+01 -0.28362384043E+02  0.45270448919E+01  0.29255099691E+02  0.47000000000E+01 0.  1.
        -11    1    3    3    0    0 -0.22375473959E+02 -0.36741558666E+02  0.51944399105E+02  0.67444974360E+02  0.00000000000E+00 0. -1.
         11    1    3    3    0    0 -0.29411554905E+01  0.31059330735E+02 -0.10547827204E+02  0.32933100068E+02  0.00000000000E+00 0.  1.
<mgrwt>
<rscale>  0 0.11744534E+03</rscale>
<asrwt>0</asrwt>
<pdfrwt beam="1">  1        2 0.55054055E-01 0.12766210E+03</pdfrwt>
<pdfrwt beam="2">  1       -2 0.67213933E-02 0.12766210E+03</pdfrwt>
<totfact> 0.10555501E+04</totfact>
</mgrwt>
</event>
<event>
 8    1  0.1273312E-005  0.1273329E+03  0.7546771E-02  0.1245433E+00
          2   -1    0    0  501    0  0.00000000000E+00  0.00000000000E+00  0.32462750466E+03  0.32462750466E+03  0.00000000000E+00 0. -1.
         -2   -1    0    0    0  501 -0.00000000000E+00 -0.00000000000E+00 -0.39246355046E+02  0.39246355046E+02  0.00000000000E+00 0.  1.
         23    2    1    2    0    0 -0.20334025794E+02 -0.13198019240E+02  0.95754173049E+02  0.13546179885E+03  0.92700469122E+02 0.  0.
         23    2    1    2    0    0  0.20334025794E+02  0.13198019240E+02  0.18962697657E+03  0.22841206086E+03  0.12500407587E+03 0.  0.
          5    1    4    4  502    0 -0.95826549894E+01  0.54992459261E+02  0.15857391191E+03  0.16817780291E+03  0.47000000000E+01 0.  1.
         -5    1    4    4    0  502  0.29916680784E+02 -0.41794440021E+02  0.31053064654E+02  0.60234257945E+02  0.47000000000E+01 0.  1.
        -11    1    3    3    0    0  0.10084030951E+02 -0.12275471007E+02 -0.14240692957E+02  0.21334765163E+02  0.00000000000E+00 0.  1.
         11    1    3    3    0    0 -0.30418056745E+02 -0.92254823352E+00  0.10999486601E+03  0.11412703369E+03  0.00000000000E+00 0. -1.
<mgrwt>
<rscale>  0 0.11859519E+03</rscale>
<asrwt>0</asrwt>
<pdfrwt beam="1">  1        2 0.49942691E-01 0.12733295E+03</pdfrwt>
<pdfrwt beam="2">  1       -2 0.60379010E-02 0.12733295E+03</pdfrwt>
<totfact> 0.13771209E+04</totfact>
</mgrwt>
</event>
<event>
 8    1  0.1273312E-005  0.1980491E+03  0.7546771E-02  0.1155860E+00
         -3   -1    0    0    0  501 -0.00000000000E+00  0.00000000000E+00  0.17490889849E+03  0.17490889849E+03  0.00000000000E+00 0.  1.
          3   -1    0    0  501    0  0.00000000000E+00 -0.00000000000E+00 -0.26016331855E+03  0.26016331855E+03  0.00000000000E+00 0. -1.
         23    2    1    2    0    0  0.12027549021E+03 -0.95568221997E+02  0.61476838212E+02  0.18858995685E+03  0.90483653694E+02 0.  0.
         23    2    1    2    0    0 -0.12027549021E+03  0.95568221997E+02 -0.14673125827E+03  0.24648226020E+03  0.12499585527E+03 0.  0.
          5    1    4    4  502    0 -0.24448244626E+02  0.65672344340E+02 -0.19715876815E+01  0.70260590905E+02  0.47000000000E+01 0.  1.
         -5    1    4    4    0  502 -0.95827245585E+02  0.29895877657E+02 -0.14475967059E+03  0.17622166929E+03  0.47000000000E+01 0.  1.
        -11    1    3    3    0    0  0.87596552120E+02 -0.41252583592E+02  0.76555291742E+02  0.12343275210E+03  0.00000000000E+00 0.  1.
         11    1    3    3    0    0  0.32678938091E+02 -0.54315638406E+02 -0.15078453529E+02  0.65157204751E+02  0.00000000000E+00 0. -1.
<mgrwt>
<rscale>  0 0.19291253E+03</rscale>
<asrwt>0</asrwt>
<pdfrwt beam="2">  1        3 0.40025126E-01 0.19804909E+03</pdfrwt>
<pdfrwt beam="1">  1       -3 0.26909062E-01 0.19804909E+03</pdfrwt>
<totfact> 0.19875490E+02</totfact>
</mgrwt>
</event>
<event>
 8    1  0.1273312E-005  0.1321762E+03  0.7546771E-02  0.1239944E+00
         -2   -1    0    0    0  501 -0.00000000000E+00  0.00000000000E+00  0.89903353547E+02  0.89903353547E+02  0.00000000000E+00 0.  1.
          2   -1    0    0  501    0  0.00000000000E+00 -0.00000000000E+00 -0.18985088778E+03  0.18985088778E+03  0.00000000000E+00 0. -1.
         23    2    1    2    0    0 -0.42904359169E+02 -0.17339606482E+01  0.23859838153E+02  0.98649814469E+02  0.85549420588E+02 0.  0.
         23    2    1    2    0    0  0.42904359169E+02  0.17339606482E+01 -0.12380737239E+03  0.18110442686E+03  0.12500702906E+03 0.  0.
          5    1    4    4  502    0  0.39282963822E+02 -0.57500639206E+02 -0.85249577653E+02  0.11017738083E+03  0.47000000000E+01 0. -1.
         -5    1    4    4    0  502  0.36213953465E+01  0.59234599855E+02 -0.38557794737E+02  0.70927046034E+02  0.47000000000E+01 0. -1.
        -11    1    3    3    0    0  0.16868015249E+02 -0.10217438873E+02  0.32145127418E+02  0.37712533889E+02  0.00000000000E+00 0.  1.
         11    1    3    3    0    0 -0.59772374418E+02  0.84834782247E+01 -0.82852892653E+01  0.60937280580E+02  0.00000000000E+00 0. -1.
<mgrwt>
<rscale>  0 0.12193171E+03</rscale>
<asrwt>0</asrwt>
<pdfrwt beam="2">  1        2 0.29207829E-01 0.13217620E+03</pdfrwt>
<pdfrwt beam="1">  1       -2 0.13831285E-01 0.13217620E+03</pdfrwt>
<totfact> 0.67110799E+03</totfact>
</mgrwt>
</event>
<event>
 8    1  0.1273312E-005  0.1514107E+03  0.7546771E-02  0.1207678E+00
          2   -1    0    0  501    0  0.00000000000E+00  0.00000000000E+00  0.11306567168E+04  0.11306567168E+04  0.00000000000E+00 0. -1.
         -2   -1    0    0    0  501 -0.00000000000E+00 -0.00000000000E+00 -0.19706628293E+02  0.19706628293E+02  0.00000000000E+00 0.  1.
         23    2    1    2    0    0 -0.38388670432E+01  0.85354818093E+02  0.29260281249E+03  0.31812691506E+03  0.91039257101E+02 0.  0.
         23    2    1    2    0    0  0.38388670432E+01 -0.85354818093E+02  0.81834727597E+03  0.83223642999E+03  0.12500011778E+03 0.  0.
          5    1    4    4  502    0  0.62825466233E+02 -0.36112920356E+02  0.33337611267E+03  0.34119335387E+03  0.47000000000E+01 0. -1.
         -5    1    4    4    0  502 -0.58986599190E+02 -0.49241897737E+02  0.48497116329E+03  0.49104307612E+03  0.47000000000E+01 0. -1.
        -11    1    3    3    0    0 -0.13826704404E+02  0.32550578782E+02  0.20729360204E+02  0.40992978767E+02  0.00000000000E+00 0.  1.
         11    1    3    3    0    0  0.99878373612E+01  0.52804239310E+02  0.27187345229E+03  0.27713393629E+03  0.00000000000E+00 0. -1.
<mgrwt>
<rscale>  0 0.14428376E+03</rscale>
<asrwt>0</asrwt>
<pdfrwt beam="1">  1        2 0.17394714E+00 0.15141074E+03</pdfrwt>
<pdfrwt beam="2">  1       -2 0.30317899E-02 0.15141074E+03</pdfrwt>
<totfact> 0.89033114E+03</totfact>
</mgrwt>
</event>
<event>
 7    1  0.1273312E-005  0.1433967E+03  0.7546771E-02  0.1229379E+00
         -1   -1    0    0    0  501 -0.00000000000E+00  0.00000000000E+00  0.32038875759E+02  0.32038875759E+02  0.00000000000E+00 0.  1.
          1   -1    0    0  501    0  0.00000000000E+00 -0.00000000000E+00 -0.45889761906E+03  0.45889761906E+03  0.00000000000E+00 0. -1.
         23    2    1    2    0    0 -0.56317923990E+01 -0.19661138175E+02 -0.11703402998E+03  0.14953648658E+03  0.90807043807E+02 0.  0.
          5    1    1    2  502    0 -0.48660232103E+02 -0.32361121546E+02 -0.19851064788E+03  0.20698702302E+03  0.47000000000E+01 0. -1.
         -5    1    1    2    0  502  0.54292024502E+02  0.52022259721E+02 -0.11131406544E+03  0.13441298522E+03  0.47000000000E+01 0.  1.
        -11    1    3    3    0    0  0.26085287973E+02 -0.91154835936E+01  0.19786340103E+00  0.27632832640E+02  0.00000000000E+00 0.  1.
         11    1    3    3    0    0 -0.31717080372E+02 -0.10545654581E+02 -0.11723189338E+03  0.12190365394E+03  0.00000000000E+00 0. -1.
<mgrwt>
<rscale>  0 0.12871240E+03</rscale>
<asrwt>0</asrwt>
<pdfrwt beam="2">  1        1 0.70599634E-01 0.14339670E+03</pdfrwt>
<pdfrwt beam="1">  1       -1 0.49290578E-02 0.14339670E+03</pdfrwt>
<totfact> 0.87104672E+03</totfact>
</mgrwt>
</event>
<event>
 8    1  0.1273312E-005  0.1431770E+03  0.7546771E-02  0.1216598E+00
          2   -1    0    0  501    0  0.00000000000E+00  0.00000000000E+00  0.23702906256E+03  0.23702906256E+03  0.00000000000E+00 0. -1.
         -2   -1    0    0    0  501 -0.00000000000E+00 -0.00000000000E+00 -0.79576182166E+02  0.79576182166E+02  0.00000000000E+00 0.  1.
         23    2    1    2    0    0 -0.58112812403E+02 -0.38704290090E+02  0.32031298190E+02  0.12626287918E+03  0.10020573615E+03 0.  0.
         23    2    1    2    0    0  0.58112812403E+02  0.38704290090E+02  0.12542158220E+03  0.19034236555E+03  0.12499808720E+03 0.  0.
          5    1    4    4  502    0 -0.37965884908E+02 -0.18218104984E+01  0.26845235284E+02  0.46770547012E+02  0.47000000000E+01 0. -1.
         -5    1    4    4    0  502  0.96078697311E+02  0.40526100588E+02  0.98576346919E+02  0.14357181854E+03  0.47000000000E+01 0. -1.
        -11    1    3    3    0    0 -0.74836908453E+02 -0.15122195184E+02  0.50880939751E+02  0.91750278931E+02  0.00000000000E+00 0.  1.
         11    1    3    3    0    0  0.16724096050E+02 -0.23582094906E+02 -0.18849641560E+02  0.34512600247E+02  0.00000000000E+00 0. -1.
<mgrwt>
<rscale>  0 0.13759813E+03</rscale>
<asrwt>0</asrwt>
<pdfrwt beam="1">  1        2 0.36466009E-01 0.14317696E+03</pdfrwt>
<pdfrwt beam="2">  1       -2 0.12242490E-01 0.14317696E+03</pdfrwt>
<totfact> 0.64655918E+03</totfact>
</mgrwt>
</event>
<event>
 8    1  0.1273312E-005  0.3891887E+03  0.7546771E-02  0.1048451E+00
          2   -1    0    0  501    0  0.00000000000E+00  0.00000000000E+00  0.37859308986E+03  0.37859308986E+03  0.00000000000E+00 0.  1.
         -2   -1    0    0    0  501 -0.00000000000E+00 -0.00000000000E+00 -0.39639620448E+03  0.39639620448E+03  0.00000000000E+00 0. -1.
         23    2    1    2    0    0  0.36675682124E+03  0.36449143620E+02 -0.56527466402E+02  0.38387879558E+03  0.91260447295E+02 0.  0.
         23    2    1    2    0    0 -0.36675682124E+03 -0.36449143620E+02  0.38724351779E+02  0.39111049876E+03  0.12501496240E+03 0.  0.
          5    1    4    4  502    0 -0.28714410503E+03  0.20813050914E+02  0.73135954401E+01  0.28802864236E+03  0.47000000000E+01 0.  1.
         -5    1    4    4    0  502 -0.79612716215E+02 -0.57262194534E+02  0.31410756339E+02  0.10308185640E+03  0.47000000000E+01 0.  1.
        -11    1    3    3    0    0  0.34820168115E+02 -0.12258842763E+02 -0.29584889205E+02  0.47307388458E+02  0.00000000000E+00 0.  1.
         11    1    3    3    0    0  0.33193665313E+03  0.48707986383E+02 -0.26942577197E+02  0.33657140712E+03  0.00000000000E+00 0. -1.
<mgrwt>
<rscale>  0 0.38679301E+03</rscale>
<asrwt>0</asrwt>
<pdfrwt beam="1">  1        2 0.58245091E-01 0.38918870E+03</pdfrwt>
<pdfrwt beam="2">  1       -2 0.60984031E-01 0.38918870E+03</pdfrwt>
<totfact> 0.21691830E+02</totfact>
</mgrwt>
</event>
<event>
 7    1  0.1273312E-005  0.1351999E+03  0.7546771E-02  0.1234357E+00
          2   -1    0    0  501    0  0.00000000000E+00  0.00000000000E+00  0.69238882170E+02  0.69238882170E+02  0.00000000000E+00 0. -1.
         -2   -1    0    0    0  501 -0.00000000000E+00 -0.00000000000E+00 -0.22036559736E+03  0.22036559736E+03  0.00000000000E+00 0.  1.
         23    2    1    2    0    0  0.30926166210E+01  0.43902480701E+02 -0.10878889581E+03  0.14793058223E+03  0.90063539889E+02 0.  0.
          5    1    1    2  502    0 -0.30121211416E+02 -0.73507119580E+02  0.46709773749E+01  0.79715067809E+02  0.47000000000E+01 0. -1.
         -5    1    1    2    0  502  0.27028594795E+02  0.29604638879E+02 -0.47008796752E+02  0.61958829490E+02  0.47000000000E+01 0.  1.
        -11    1    3    3    0    0  0.46068700264E+02  0.30244234610E+02 -0.57792985855E+02  0.79856546915E+02  0.00000000000E+00 0. -1.
         11    1    3    3    0    0 -0.42976083643E+02  0.13658246091E+02 -0.50995909953E+02  0.68074035311E+02  0.00000000000E+00 0.  1.
<mgrwt>
<rscale>  0 0.12545688E+03</rscale>
<asrwt>0</asrwt>
<pdfrwt beam="1">  1        2 0.10652136E-01 0.13519986E+03</pdfrwt>
<pdfrwt beam="2">  1       -2 0.33902399E-01 0.13519986E+03</pdfrwt>
<totfact> 0.45991792E+03</totfact>
</mgrwt>
</event>
<event>
 8    1  0.1273312E-005  0.1265550E+03  0.7546771E-02  0.1248755E+00
          3   -1    0    0  501    0  0.00000000000E+00  0.00000000000E+00  0.52227593661E+03  0.52227593661E+03  0.00000000000E+00 0. -1.
         -3   -1    0    0    0  501 -0.00000000000E+00 -0.00000000000E+00 -0.22778350748E+02  0.22778350748E+02  0.00000000000E+00 0.  1.
         23    2    1    2    0    0  0.19528212046E+02  0.30321707340E+01  0.19558477995E+03  0.21584437706E+03  0.89133853481E+02 0.  0.
         23    2    1    2    0    0 -0.19528212046E+02 -0.30321707340E+01  0.30391280591E+03  0.32920991029E+03  0.12500250523E+03 0.  0.
          5    1    4    4  502    0 -0.47163284891E+02  0.22576601238E+02  0.50084945842E+02  0.72558046867E+02  0.47000000000E+01 0. -1.
         -5    1    4    4    0  502  0.27635072846E+02 -0.25608771972E+02  0.25382786007E+03  0.25665186343E+03  0.47000000000E+01 0. -1.
        -11    1    3    3    0    0 -0.32159295555E+00  0.44705013963E+02  0.85742850109E+02  0.96697869885E+02  0.00000000000E+00 0. -1.
         11    1    3    3    0    0  0.19849805001E+02 -0.41672843229E+02  0.10984192984E+03  0.11914650718E+03  0.00000000000E+00 0.  1.
<mgrwt>
<rscale>  0 0.11663402E+03</rscale>
<asrwt>0</asrwt>
<pdfrwt beam="1">  1        3 0.80350135E-01 0.12655501E+03</pdfrwt>
<pdfrwt beam="2">  1       -3 0.35043620E-02 0.12655501E+03</pdfrwt>
<totfact> 0.13448730E+03</totfact>
</mgrwt>
</event>
<event>
 8    1  0.1273312E-005  0.1376382E+03  0.7546771E-02  0.1228239E+00
         -1   -1    0    0    0  501 -0.00000000000E+00  0.00000000000E+00  0.18355870410E+03  0.18355870410E+03  0.00000000000E+00 0.  1.
          1   -1    0    0  501    0  0.00000000000E+00 -0.00000000000E+00 -0.93267519216E+02  0.93267519216E+02  0.00000000000E+00 0. -1.
         23    2    1    2    0    0  0.57356071460E+02 -0.54451545923E+01  0.88053232821E+02  0.13916984830E+03  0.91079669648E+02 0.  0.
         23    2    1    2    0    0 -0.57356071460E+02  0.54451545923E+01  0.22379520675E+01  0.13765637502E+03  0.12499960205E+03 0.  0.
          5    1    4    4  502    0  0.29954315187E+02  0.14167959083E+02 -0.29115098561E+02  0.44359565226E+02  0.47000000000E+01 0.  1.
         -5    1    4    4    0  502 -0.87310386647E+02 -0.87228044905E+01  0.31353050628E+02  0.93296809797E+02  0.47000000000E+01 0.  1.
        -11    1    3    3    0    0  0.16249506761E+02 -0.12375447143E+01 -0.18637024475E+02  0.24757153879E+02  0.00000000000E+00 0. -1.
         11    1    3    3    0    0  0.41106564700E+02 -0.42076098780E+01  0.10669025730E+03  0.11441269442E+03  0.00000000000E+00 0.  1.
<mgrwt>
<rscale>  0 0.12947354E+03</rscale>
<asrwt>0</asrwt>
<pdfrwt beam="2">  1        1 0.14348849E-01 0.13763818E+03</pdfrwt>
<pdfrwt beam="1">  1       -1 0.28239801E-01 0.13763818E+03</pdfrwt>
<totfact> 0.42912163E+03</totfact>
</mgrwt>
</event>
<event>
 8    1  0.1273312E-005  0.1588277E+03  0.7546771E-02  0.1197932E+00
          1   -1    0    0  501    0  0.00000000000E+00  0.00000000000E+00  0.36469480508E+03  0.36469480508E+03  0.00000000000E+00 0. -1.
         -1   -1    0    0    0  501 -0.00000000000E+00 -0.00000000000E+00 -0.59653988919E+02  0.59653988919E+02  0.00000000000E+00 0.  1.
         23    2    1    2    0    0 -0.68059143480E+02  0.70539620456E+02  0.16774533040E+03  0.21440526093E+03  0.90682054331E+02 0.  0.
         23    2    1    2    0    0  0.68059143480E+02 -0.70539620456E+02  0.13729548576E+03  0.20994353307E+03  0.12497340358E+03 0.  0.
          5    1    4    4  502    0  0.28147503418E+02 -0.15039253305E+02 -0.20287742283E+02  0.38107001661E+02  0.47000000000E+01 0.  1.
         -5    1    4    4    0  502  0.39911640062E+02 -0.55500367151E+02  0.15758322804E+03  0.17183653141E+03  0.47000000000E+01 0.  1.
        -11    1    3    3    0    0 -0.45591671409E+02 -0.12162412699E+02  0.49702541248E+02  0.68533695297E+02  0.00000000000E+00 0.  1.
         11    1    3    3    0    0 -0.22467472071E+02  0.82702033155E+02  0.11804278916E+03  0.14587156564E+03  0.00000000000E+00 0. -1.
<mgrwt>
<rscale>  0 0.15208697E+03</rscale>
<asrwt>0</asrwt>
<pdfrwt beam="1">  1        1 0.56106892E-01 0.15882769E+03</pdfrwt>
<pdfrwt beam="2">  1       -1 0.91775370E-02 0.15882769E+03</pdfrwt>
<totfact> 0.46133518E+03</totfact>
</mgrwt>
</event>
<event>
 8    1  0.1273312E-005  0.1291198E+03  0.7546771E-02  0.1243843E+00
         -2   -1    0    0    0  501 -0.00000000000E+00  0.00000000000E+00  0.16219647736E+02  0.16219647736E+02  0.00000000000E+00 0.  1.
          2   -1    0    0  501    0  0.00000000000E+00 -0.00000000000E+00 -0.97005727213E+03  0.97005727213E+03  0.00000000000E+00 0. -1.
         23    2    1    2    0    0  0.31067528963E+02 -0.90650943354E+01 -0.19886414967E+03  0.22034163124E+03  0.89197069126E+02 0.  0.
         23    2    1    2    0    0 -0.31067528963E+02  0.90650943354E+01 -0.75497347472E+03  0.76593528863E+03  0.12499820615E+03 0.  0.
          5    1    4    4  502    0  0.47253958996E+02  0.94772587905E+01 -0.36014762384E+03  0.36338843684E+03  0.47000000000E+01 0. -1.
         -5    1    4    4    0  502 -0.78321487959E+02 -0.41216445505E+00 -0.39482585088E+03  0.40254685178E+03  0.47000000000E+01 0. -1.
        -11    1    3    3    0    0  0.29464508020E+02  0.21198290888E+02 -0.25527009651E+02  0.44375139337E+02  0.00000000000E+00 0.  1.
         11    1    3    3    0    0  0.16030209439E+01 -0.30263385224E+02 -0.17333714002E+03  0.17596649190E+03  0.00000000000E+00 0. -1.
<mgrwt>
<rscale>  0 0.11954899E+03</rscale>
<asrwt>0</asrwt>
<pdfrwt beam="2">  1        2 0.14923961E+00 0.12911978E+03</pdfrwt>
<pdfrwt beam="1">  1       -2 0.24953299E-02 0.12911978E+03</pdfrwt>
<totfact> 0.14577761E+04</totfact>
</mgrwt>
</event>
<event>
 8    1  0.1273312E-005  0.1373654E+03  0.7546771E-02  0.1228298E+00
          1   -1    0    0  501    0  0.00000000000E+00  0.00000000000E+00  0.99517317576E+03  0.99517317576E+03  0.00000000000E+00 0. -1.
         -1   -1    0    0    0  501 -0.00000000000E+00 -0.00000000000E+00 -0.15772220719E+02  0.15772220719E+02  0.00000000000E+00 0.  1.
         23    2    1    2    0    0  0.51252153493E+01 -0.56747218010E+02  0.33497483531E+03  0.35204154734E+03  0.92079292911E+02 0.  0.
         23    2    1    2    0    0 -0.51252153493E+01  0.56747218010E+02  0.64442611974E+03  0.65890384914E+03  0.12499097578E+03 0.  0.
          5    1    4    4  502    0 -0.47774583629E+02  0.88441029002E+00  0.44143662627E+03  0.44404006354E+03  0.47000000000E+01 0. -1.
         -5    1    4    4    0  502  0.42649368280E+02  0.55862807720E+02  0.20298949347E+03  0.21486378560E+03  0.47000000000E+01 0. -1.
        -11    1    3    3    0    0 -0.41607440278E+02 -0.25028055097E+02  0.11292818243E+03  0.12292419215E+03  0.00000000000E+00 0.  1.
         11    1    3    3    0    0  0.46732655627E+02 -0.31719162913E+02  0.22204665288E+03  0.22911735519E+03  0.00000000000E+00 0. -1.
<mgrwt>
<rscale>  0 0.12943379E+03</rscale>
<asrwt>0</asrwt>
<pdfrwt beam="1">  1        1 0.15310352E+00 0.13736542E+03</pdfrwt>
<pdfrwt beam="2">  1       -1 0.24264963E-02 0.13736542E+03</pdfrwt>
<totfact> 0.80606400E+03</totfact>
</mgrwt>
</event>
<event>
 8    1  0.1273312E-005  0.1643521E+03  0.7546771E-02  0.1190828E+00
          2   -1    0    0  501    0  0.00000000000E+00  0.00000000000E+00  0.22563954517E+02  0.22563954517E+02  0.00000000000E+00 0. -1.
         -2   -1    0    0    0  501 -0.00000000000E+00 -0.00000000000E+00 -0.10457062216E+04  0.10457062216E+04  0.00000000000E+00 0.  1.
         23    2    1    2    0    0  0.45136489606E+02  0.96687366848E+02 -0.53380536760E+03  0.55207039845E+03  0.91911940246E+02 0.  0.
         23    2    1    2    0    0 -0.45136489606E+02 -0.96687366848E+02 -0.48933689949E+03  0.51619977768E+03  0.12500343863E+03 0.  0.
          5    1    4    4  502    0  0.80160064542E+01 -0.65547084339E+01 -0.29678347446E+03  0.29700124794E+03  0.47000000000E+01 0.  1.
         -5    1    4    4    0  502 -0.53152496061E+02 -0.90132658415E+02 -0.19255342502E+03  0.21919852974E+03  0.47000000000E+01 0.  1.
        -11    1    3    3    0    0  0.21373003363E+02  0.92743666981E+02 -0.50772234750E+03  0.51656575108E+03  0.00000000000E+00 0.  1.
         11    1    3    3    0    0  0.23763486244E+02  0.39436998671E+01 -0.26083020102E+02  0.35504647368E+02  0.00000000000E+00 0. -1.
<mgrwt>
<rscale>  0 0.15812717E+03</rscale>
<asrwt>0</asrwt>
<pdfrwt beam="1">  1        2 0.34713773E-02 0.16435209E+03</pdfrwt>
<pdfrwt beam="2">  1       -2 0.16087790E+00 0.16435209E+03</pdfrwt>
<totfact> 0.66567929E+02</totfact>
</mgrwt>
</event>
<event>
 8    1  0.1273312E-005  0.1324150E+03  0.7546771E-02  0.1240949E+00
          1   -1    0    0  501    0  0.00000000000E+00  0.00000000000E+00  0.21456343745E+03  0.21456343745E+03  0.00000000000E+00 0.  1.
         -1   -1    0    0    0  501 -0.00000000000E+00 -0.00000000000E+00 -0.65186013072E+02  0.65186013072E+02  0.00000000000E+00 0. -1.
         23    2    1    2    0    0  0.41855795802E+02  0.12490450684E+02  0.21626981114E+02  0.95755104548E+02  0.82422052476E+02 0.  0.
         23    2    1    2    0    0 -0.41855795802E+02 -0.12490450684E+02  0.12775044327E+03  0.18399434598E+03  0.12500329834E+03 0.  0.
          5    1    4    4  502    0  0.44614423995E+02 -0.74850858088E+01  0.39304371347E+02  0.60111537536E+02  0.47000000000E+01 0.  1.
         -5    1    4    4    0  502 -0.86470219797E+02 -0.50053648755E+01  0.88446071919E+02  0.12388280844E+03  0.47000000000E+01 0.  1.
        -11    1    3    3    0    0  0.35761539078E+02 -0.28258106765E+02 -0.62550561911E+01  0.46005804015E+02  0.00000000000E+00 0. -1.
         11    1    3    3    0    0  0.60942567247E+01  0.40748557449E+02  0.27882037305E+02  0.49749300533E+02  0.00000000000E+00 0.  1.
<mgrwt>
<rscale>  0 0.12131126E+03</rscale>
<asrwt>0</asrwt>
<pdfrwt beam="1">  1        1 0.33009759E-01 0.13241504E+03</pdfrwt>
<pdfrwt beam="2">  1       -1 0.10028618E-01 0.13241504E+03</pdfrwt>
<totfact> 0.77020029E+03</totfact>
</mgrwt>
</event>
<event>
 8    1  0.1273312E-005  0.1410049E+03  0.7546771E-02  0.1223040E+00
          2   -1    0    0  501    0  0.00000000000E+00  0.00000000000E+00  0.64240621150E+03  0.64240621150E+03  0.00000000000E+00 0. -1.
         -2   -1    0    0    0  501 -0.00000000000E+00 -0.00000000000E+00 -0.24887883242E+02  0.24887883242E+02  0.00000000000E+00 0.  1.
         23    2    1    2    0    0  0.55794388076E+02  0.33829818785E+02  0.25974523784E+03  0.28273725047E+03  0.90638258172E+02 0.  0.
         23    2    1    2    0    0 -0.55794388076E+02 -0.33829818785E+02  0.35777309042E+03  0.38455684427E+03  0.12499964747E+03 0.  0.
          5    1    4    4  502    0  0.25890044811E+02 -0.28757657299E+02  0.37976967468E+02  0.54420927332E+02  0.47000000000E+01 0.  1.
         -5    1    4    4    0  502 -0.81684432887E+02 -0.50721614864E+01  0.31979612296E+03  0.33013591694E+03  0.47000000000E+01 0.  1.
        -11    1    3    3    0    0  0.68289552131E+02 -0.35220459781E+01  0.19823667533E+03  0.20969894417E+03  0.00000000000E+00 0. -1.
         11    1    3    3    0    0 -0.12495164055E+02  0.37351864763E+02  0.61508562501E+02  0.73038306299E+02  0.00000000000E+00 0.  1.
<mgrwt>
<rscale>  0 0.13302124E+03</rscale>
<asrwt>0</asrwt>
<pdfrwt beam="1">  1        2 0.98831712E-01 0.14100490E+03</pdfrwt>
<pdfrwt beam="2">  1       -2 0.38289056E-02 0.14100490E+03</pdfrwt>
<totfact> 0.13039262E+04</totfact>
</mgrwt>
</event>
<event>
 8    1  0.1273312E-005  0.1597086E+03  0.7546771E-02  0.1197178E+00
         -2   -1    0    0    0  501 -0.00000000000E+00  0.00000000000E+00  0.71534940186E+02  0.71534940186E+02  0.00000000000E+00 0.  1.
          2   -1    0    0  501    0  0.00000000000E+00 -0.00000000000E+00 -0.30048524794E+03  0.30048524794E+03  0.00000000000E+00 0. -1.
         23    2    1    2    0    0  0.41285392829E+02 -0.90422291369E+02 -0.10513942632E+03  0.16994107912E+03  0.89134712472E+02 0.  0.
         23    2    1    2    0    0 -0.41285392829E+02  0.90422291369E+02 -0.12381088144E+03  0.20207910901E+03  0.12500462991E+03 0.  0.
          5    1    4    4  502    0 -0.41412106540E+02 -0.20588557016E+02 -0.22209451766E+02  0.51518938226E+02  0.47000000000E+01 0.  1.
         -5    1    4    4    0  502  0.12671371166E+00  0.11101084839E+03 -0.10160142967E+03  0.15056017079E+03  0.47000000000E+01 0.  1.
        -11    1    3    3    0    0  0.41028734816E+02 -0.64821080318E+01 -0.64407069781E+02  0.76639711918E+02  0.00000000000E+00 0.  1.
         11    1    3    3    0    0  0.25665801285E+00 -0.83940183337E+02 -0.40732356536E+02  0.93301367198E+02  0.00000000000E+00 0. -1.
<mgrwt>
<rscale>  0 0.15271332E+03</rscale>
<asrwt>0</asrwt>
<pdfrwt beam="2">  1        2 0.46228500E-01 0.15970858E+03</pdfrwt>
<pdfrwt beam="1">  1       -2 0.11005375E-01 0.15970858E+03</pdfrwt>
<totfact> 0.59916027E+03</totfact>
</mgrwt>
</event>
<event>
 8    1  0.1273312E-005  0.1517780E+03  0.7546771E-02  0.1206714E+00
         -2   -1    0    0    0  501 -0.00000000000E+00  0.00000000000E+00  0.12244351066E+02  0.12244351066E+02  0.00000000000E+00 0.  1.
          2   -1    0    0  501    0  0.00000000000E+00 -0.00000000000E+00 -0.16253137102E+04  0.16253137102E+04  0.00000000000E+00 0. -1.
         23    2    1    2    0    0  0.15074255798E+02  0.84745509347E+02 -0.60155501133E+03  0.61471992547E+03  0.92753008433E+02 0.  0.
         23    2    1    2    0    0 -0.15074255798E+02 -0.84745509347E+02 -0.10115143478E+04  0.10228381358E+04  0.12501016630E+03 0.  0.
          5    1    4    4  502    0  0.49165467219E+02 -0.69323138021E+02 -0.53041710146E+03  0.53720325032E+03  0.47000000000E+01 0.  1.
         -5    1    4    4    0  502 -0.64239723016E+02 -0.15422371326E+02 -0.48109724631E+03  0.48563488544E+03  0.47000000000E+01 0.  1.
        -11    1    3    3    0    0 -0.36644861714E+02  0.15381129609E+02 -0.20859942257E+03  0.21235146370E+03  0.00000000000E+00 0. -1.
         11    1    3    3    0    0  0.51719117511E+02  0.69364379739E+02 -0.39295558876E+03  0.40236846177E+03  0.00000000000E+00 0.  1.
<mgrwt>
<rscale>  0 0.14503170E+03</rscale>
<asrwt>0</asrwt>
<pdfrwt beam="2">  1        2 0.25004838E+00 0.15177805E+03</pdfrwt>
<pdfrwt beam="1">  1       -2 0.18837454E-02 0.15177805E+03</pdfrwt>
<totfact> 0.96986585E+03</totfact>
</mgrwt>
</event>
<event>
 8    1  0.1273312E-005  0.1435134E+03  0.7546771E-02  0.1219781E+00
          2   -1    0    0  501    0  0.00000000000E+00  0.00000000000E+00  0.34898155124E+02  0.34898155124E+02  0.00000000000E+00 0.  1.
         -2   -1    0    0    0  501 -0.00000000000E+00 -0.00000000000E+00 -0.49268278724E+03  0.49268278724E+03  0.00000000000E+00 0. -1.
         23    2    1    2    0    0 -0.31386166382E+01  0.70427157281E+02 -0.25568768966E+03  0.27971147241E+03  0.88839618171E+02 0.  0.
         23    2    1    2    0    0  0.31386166382E+01 -0.70427157281E+02 -0.20209694245E+03  0.24786946995E+03  0.12500505825E+03 0.  0.
          5    1    4    4  502    0 -0.56843248735E+02 -0.43627243161E+02 -0.14002706530E+03  0.15736632514E+03  0.47000000000E+01 0. -1.
         -5    1    4    4    0  502  0.59981865373E+02 -0.26799914120E+02 -0.62069877156E+02  0.90503144811E+02  0.47000000000E+01 0. -1.
        -11    1    3    3    0    0 -0.42160147800E+02  0.13413169226E+02 -0.10500678981E+03  0.11394655360E+03  0.00000000000E+00 0.  1.
         11    1    3    3    0    0  0.39021531162E+02  0.57013988055E+02 -0.15068089985E+03  0.16576491881E+03  0.00000000000E+00 0. -1.
<mgrwt>
<rscale>  0 0.13531136E+03</rscale>
<asrwt>0</asrwt>
<pdfrwt beam="1">  1        2 0.53689469E-02 0.14351341E+03</pdfrwt>
<pdfrwt beam="2">  1       -2 0.75797353E-01 0.14351341E+03</pdfrwt>
<totfact> 0.22114704E+03</totfact>
</mgrwt>
</event>
<event>
 8    1  0.1273312E-005  0.1352147E+03  0.7546771E-02  0.1233674E+00
          1   -1    0    0  501    0  0.00000000000E+00  0.00000000000E+00  0.49921942532E+03  0.49921942532E+03  0.00000000000E+00 0. -1.
         -1   -1    0    0    0  501 -0.00000000000E+00 -0.00000000000E+00 -0.32084389904E+02  0.32084389904E+02  0.00000000000E+00 0.  1.
         23    2    1    2    0    0 -0.44586860869E+02 -0.26158431893E+02  0.11165538935E+03  0.15097658079E+03  0.87491429608E+02 0.  0.
         23    2    1    2    0    0  0.44586860869E+02  0.26158431893E+02  0.35547964606E+03  0.38032723443E+03  0.12494308610E+03 0.  0.
          5    1    4    4  502    0 -0.10952554470E+02  0.18810674571E+02  0.30171886837E+03  0.30253952710E+03  0.47000000000E+01 0. -1.
         -5    1    4    4    0  502  0.55539415339E+02  0.73477573217E+01  0.53760777695E+02  0.77787707334E+02  0.47000000000E+01 0. -1.
        -11    1    3    3    0    0 -0.48698068152E+02 -0.46670329377E+01  0.13978847109E+02  0.50879182429E+02  0.00000000000E+00 0.  1.
         11    1    3    3    0    0  0.41112072826E+01 -0.21491398955E+02  0.97676542241E+02  0.10009739836E+03  0.00000000000E+00 0. -1.
<mgrwt>
<rscale>  0 0.12589684E+03</rscale>
<asrwt>0</asrwt>
<pdfrwt beam="1">  1        1 0.76802982E-01 0.13521474E+03</pdfrwt>
<pdfrwt beam="2">  1       -1 0.49360604E-02 0.13521474E+03</pdfrwt>
<totfact> 0.77648638E+03</totfact>
</mgrwt>
</event>
<event>
 7    1  0.1273312E-005  0.1778621E+03  0.7546771E-02  0.1175476E+00
          2   -1    0    0  501    0  0.00000000000E+00  0.00000000000E+00  0.34963988387E+03  0.34963988387E+03  0.00000000000E+00 0. -1.
         -2   -1    0    0    0  501 -0.00000000000E+00 -0.00000000000E+00 -0.88991175424E+02  0.88991175424E+02  0.00000000000E+00 0.  1.
         23    2    1    2    0    0 -0.27759153468E+02 -0.10659553721E+03  0.19249145323E+03  0.24815704089E+03  0.11133632931E+03 0.  0.
          5    1    3    3  502    0 -0.68475237295E+02 -0.88000293482E+02  0.13604786013E+03  0.17596596268E+03  0.47000000000E+01 0. -1.
         -5    1    3    3    0  502  0.40716083826E+02 -0.18595243723E+02  0.56443593095E+02  0.72191078207E+02  0.47000000000E+01 0.  1.
        -11    1    1    2    0    0 -0.20324387938E+01  0.76839090648E+02 -0.30895762132E+02  0.82842771421E+02  0.00000000000E+00 0.  1.
         11    1    1    2    0    0  0.29791592262E+02  0.29756446557E+02  0.99053017351E+02  0.10763124698E+03  0.00000000000E+00 0. -1.
<mgrwt>
<rscale>  0 0.17229494E+03</rscale>
<asrwt>0</asrwt>
<pdfrwt beam="1">  1        2 0.53790750E-01 0.17786214E+03</pdfrwt>
<pdfrwt beam="2">  1       -2 0.13690950E-01 0.17786214E+03</pdfrwt>
<totfact> 0.36062066E+03</totfact>
</mgrwt>
</event>
<event>
 8    1  0.1273312E-005  0.1391215E+03  0.7546771E-02  0.1225073E+00
          2   -1    0    0  501    0  0.00000000000E+00  0.00000000000E+00  0.70966991358E+03  0.70966991358E+03  0.00000000000E+00 0. -1.
         -2   -1    0    0    0  501 -0.00000000000E+00 -0.00000000000E+00 -0.23556175981E+02  0.23556175981E+02  0.00000000000E+00 0.  1.
         23    2    1    2    0    0 -0.29901322404E+02 -0.53258933418E+02  0.21744063913E+03  0.24434034650E+03  0.93226446429E+02 0.  0.
         23    2    1    2    0    0  0.29901322404E+02  0.53258933418E+02  0.46867309847E+03  0.48888574306E+03  0.12499677382E+03 0.  0.
          5    1    4    4  502    0  0.27487215152E+01  0.63378420954E+02  0.44914680338E+03  0.45362905627E+03  0.47000000000E+01 0.  1.
         -5    1    4    4    0  502  0.27152600888E+02 -0.10119487536E+02  0.19526295095E+02  0.35256686786E+02  0.47000000000E+01 0.  1.
        -11    1    3    3    0    0  0.26488990909E+02 -0.40717307492E+02  0.63721758013E+02  0.80125078553E+02  0.00000000000E+00 0. -1.
         11    1    3    3    0    0 -0.56390313312E+02 -0.12541625926E+02  0.15371888111E+03  0.16421526795E+03  0.00000000000E+00 0.  1.
<mgrwt>
<rscale>  0 0.13161903E+03</rscale>
<asrwt>0</asrwt>
<pdfrwt beam="1">  1        2 0.10917997E+00 0.13912152E+03</pdfrwt>
<pdfrwt beam="2">  1       -2 0.36240276E-02 0.13912152E+03</pdfrwt>
<totfact> 0.12571978E+04</totfact>
</mgrwt>
</event>
<event>
 8    1  0.1273312E-005  0.1701131E+03  0.7546771E-02  0.1184191E+00
         -3   -1    0    0    0  501 -0.00000000000E+00  0.00000000000E+00  0.79594119606E+02  0.79594119606E+02  0.00000000000E+00 0.  1.
          3   -1    0    0  501    0  0.00000000000E+00 -0.00000000000E+00 -0.49726577022E+03  0.49726577022E+03  0.00000000000E+00 0. -1.
         23    2    1    2    0    0 -0.72915471656E+01  0.11518514027E+03 -0.25451491748E+02  0.14933780925E+03  0.91286470202E+02 0.  0.
         23    2    1    2    0    0  0.72915471656E+01 -0.11518514027E+03 -0.39222015886E+03  0.42752208057E+03  0.12497076921E+03 0.  0.
          5    1    4    4  502    0 -0.56124782586E+02 -0.78254859212E+02 -0.21322710715E+03  0.23401218650E+03  0.47000000000E+01 0. -1.
         -5    1    4    4    0  502  0.63416329752E+02 -0.36930281056E+02 -0.17899305172E+03  0.19350989407E+03  0.47000000000E+01 0. -1.
        -11    1    3    3    0    0  0.32762656088E+02  0.68017632441E+02  0.12822131793E+02  0.76578045291E+02  0.00000000000E+00 0.  1.
         11    1    3    3    0    0 -0.40054203254E+02  0.47167507827E+02 -0.38273623541E+02  0.72759763963E+02  0.00000000000E+00 0. -1.
<mgrwt>
<rscale>  0 0.16405733E+03</rscale>
<asrwt>0</asrwt>
<pdfrwt beam="2">  1        3 0.76502426E-01 0.17011313E+03</pdfrwt>
<pdfrwt beam="1">  1       -3 0.12245249E-01 0.17011313E+03</pdfrwt>
<totfact> 0.20731552E+02</totfact>
</mgrwt>
</event>
<event>
 7    1  0.1273312E-005  0.1726853E+03  0.7546771E-02  0.1220765E+00
         -2   -1    0    0    0  501 -0.00000000000E+00  0.00000000000E+00  0.13180661731E+03  0.13180661731E+03  0.00000000000E+00 0.  1.
          2   -1    0    0  501    0  0.00000000000E+00 -0.00000000000E+00 -0.11824661294E+03  0.11824661294E+03  0.00000000000E+00 0. -1.
         23    2    1    2    0    0  0.60730457665E+01  0.82316091878E+01  0.40117930735E+02  0.75337617763E+02  0.62941774753E+02 0.  0.
          5    1    1    2  502    0 -0.68104449478E+01  0.50022607629E+02 -0.80528343803E+02  0.95160640972E+02  0.47000000000E+01 0. -1.
         -5    1    1    2    0  502  0.73739918129E+00 -0.58254216817E+02  0.53970417442E+02  0.79554971519E+02  0.47000000000E+01 0.  1.
        -11    1    3    3    0    0 -0.25680891457E+02  0.15974336010E+02  0.25389201460E+02  0.39487962062E+02  0.00000000000E+00 0. -1.
         11    1    3    3    0    0  0.31753937224E+02 -0.77427268220E+01  0.14728729275E+02  0.35849655702E+02  0.00000000000E+00 0.  1.
<mgrwt>
<rscale>  0 0.13461443E+03</rscale>
<asrwt>0</asrwt>
<pdfrwt beam="2">  1        2 0.18191787E-01 0.17268533E+03</pdfrwt>
<pdfrwt beam="1">  1       -2 0.20277941E-01 0.17268533E+03</pdfrwt>
<totfact> 0.61424733E+03</totfact>
</mgrwt>
</event>
<event>
 7    1  0.1273312E-005  0.1816855E+03  0.7546771E-02  0.1194234E+00
         -2   -1    0    0    0  501 -0.00000000000E+00  0.00000000000E+00  0.25476569603E+02  0.25476569603E+02  0.00000000000E+00 0.  1.
          2   -1    0    0  501    0  0.00000000000E+00 -0.00000000000E+00 -0.10187331007E+04  0.10187331007E+04  0.00000000000E+00 0. -1.
         23    2    1    2    0    0 -0.34029111629E+02  0.11481209859E+02 -0.12995715022E+03  0.16199912892E+03  0.89805669422E+02 0.  0.
          5    1    1    2  502    0  0.83524382578E+02  0.46759462210E+02 -0.33674640194E+03  0.35011854994E+03  0.47000000000E+01 0. -1.
         -5    1    1    2    0  502 -0.49495270949E+02 -0.58240672069E+02 -0.52655297891E+03  0.53209199142E+03  0.47000000000E+01 0.  1.
        -11    1    3    3    0    0 -0.32282472971E+02 -0.34322455400E+02 -0.88182978374E+02  0.99982131807E+02  0.00000000000E+00 0.  1.
         11    1    3    3    0    0 -0.17466386582E+01  0.45803665260E+02 -0.41774171845E+02  0.62016997115E+02  0.00000000000E+00 0. -1.
<mgrwt>
<rscale>  0 0.15519218E+03</rscale>
<asrwt>0</asrwt>
<pdfrwt beam="2">  1        2 0.15672815E+00 0.18168549E+03</pdfrwt>
<pdfrwt beam="1">  1       -2 0.39194727E-02 0.18168549E+03</pdfrwt>
<totfact> 0.71233914E+03</totfact>
</mgrwt>
</event>
<event>
 8    1  0.1273312E-005  0.1448576E+03  0.7546771E-02  0.1217525E+00
          1   -1    0    0  501    0  0.00000000000E+00  0.00000000000E+00  0.71841079598E+02  0.71841079598E+02  0.00000000000E+00 0. -1.
         -1   -1    0    0    0  501 -0.00000000000E+00 -0.00000000000E+00 -0.24176012389E+03  0.24176012389E+03  0.00000000000E+00 0.  1.
         23    2    1    2    0    0 -0.59011240973E+02  0.43321063200E+02 -0.99381927659E+02  0.15248254801E+03  0.89527196002E+02 0.  0.
         23    2    1    2    0    0  0.59011240973E+02 -0.43321063200E+02 -0.70537116634E+02  0.16111865548E+03  0.12499878096E+03 0.  0.
          5    1    4    4  502    0  0.56723628144E+02  0.32456472804E+01  0.18973087432E+02  0.60084709060E+02  0.47000000000E+01 0. -1.
         -5    1    4    4    0  502  0.22876128294E+01 -0.46566710481E+02 -0.89510204066E+02  0.10103394642E+03  0.47000000000E+01 0. -1.
        -11    1    3    3    0    0 -0.55220316052E+02  0.14496468282E+02 -0.10799811838E+03  0.12215983166E+03  0.00000000000E+00 0.  1.
         11    1    3    3    0    0 -0.37909249215E+01  0.28824594918E+02  0.86161907248E+01  0.30322716346E+02  0.00000000000E+00 0. -1.
<mgrwt>
<rscale>  0 0.13692709E+03</rscale>
<asrwt>0</asrwt>
<pdfrwt beam="1">  1        1 0.11052474E-01 0.14485764E+03</pdfrwt>
<pdfrwt beam="2">  1       -1 0.37193866E-01 0.14485764E+03</pdfrwt>
<totfact> 0.37934767E+03</totfact>
</mgrwt>
</event>
<event>
 8    1  0.1273312E-005  0.1278054E+03  0.7546771E-02  0.1245827E+00
          1   -1    0    0  501    0  0.00000000000E+00  0.00000000000E+00  0.38405009718E+03  0.38405009718E+03  0.00000000000E+00 0. -1.
         -1   -1    0    0    0  501 -0.00000000000E+00 -0.00000000000E+00 -0.34096018629E+02  0.34096018629E+02  0.00000000000E+00 0.  1.
         23    2    1    2    0    0  0.20192903573E+02 -0.17417181440E+02  0.99015017590E+02  0.13653534843E+03  0.90148855229E+02 0.  0.
         23    2    1    2    0    0 -0.20192903573E+02  0.17417181440E+02  0.25093906096E+03  0.28161076738E+03  0.12499240146E+03 0.  0.
          5    1    4    4  502    0 -0.57064124519E+01  0.43055596670E+02  0.24780450495E+03  0.25162573441E+03  0.47000000000E+01 0.  1.
         -5    1    4    4    0  502 -0.14486491121E+02 -0.25638415230E+02  0.31345560159E+01  0.29985032965E+02  0.47000000000E+01 0.  1.
        -11    1    3    3    0    0  0.27808032806E+02 -0.46748356991E+02  0.32301841445E+02  0.63262188791E+02  0.00000000000E+00 0.  1.
         11    1    3    3    0    0 -0.76151292326E+01  0.29331175551E+02  0.66713176145E+02  0.73273159641E+02  0.00000000000E+00 0. -1.
<mgrwt>
<rscale>  0 0.11836018E+03</rscale>
<asrwt>0</asrwt>
<pdfrwt beam="1">  1        1 0.59084627E-01 0.12780537E+03</pdfrwt>
<pdfrwt beam="2">  1       -1 0.52455416E-02 0.12780537E+03</pdfrwt>
<totfact> 0.98770634E+03</totfact>
</mgrwt>
</event>
<event>
 8    1  0.1273312E-005  0.1638814E+03  0.7546771E-02  0.1192670E+00
         -1   -1    0    0    0  501 -0.00000000000E+00  0.00000000000E+00  0.90149523036E+03  0.90149523036E+03  0.00000000000E+00 0.  1.
          1   -1    0    0  501    0  0.00000000000E+00 -0.00000000000E+00 -0.25105602971E+02  0.25105602971E+02  0.00000000000E+00 0. -1.
         23    2    1    2    0    0  0.60194940666E+02 -0.87220416338E+02  0.36909922433E+03  0.39349610337E+03  0.85872661882E+02 0.  0.
         23    2    1    2    0    0 -0.60194940666E+02  0.87220416338E+02  0.50729040306E+03  0.53310472996E+03  0.12500507255E+03 0.  0.
          5    1    4    4  502    0  0.42351127304E+01  0.24690544531E+02  0.94069549428E+01  0.27168731482E+02  0.47000000000E+01 0.  1.
         -5    1    4    4    0  502 -0.64430053396E+02  0.62529871807E+02  0.49788344812E+03  0.50593599848E+03  0.47000000000E+01 0.  1.
        -11    1    3    3    0    0  0.63769205438E+02 -0.10198988200E+03  0.34031478277E+03  0.36094680905E+03  0.00000000000E+00 0. -1.
         11    1    3    3    0    0 -0.35742647725E+01  0.14769465665E+02  0.28784441562E+02  0.32549294320E+02  0.00000000000E+00 0.  1.
<mgrwt>
<rscale>  0 0.15653113E+03</rscale>
<asrwt>0</asrwt>
<pdfrwt beam="2">  1        1 0.38624011E-02 0.16388136E+03</pdfrwt>
<pdfrwt beam="1">  1       -1 0.13869155E+00 0.16388136E+03</pdfrwt>
<totfact> 0.10911484E+03</totfact>
</mgrwt>
</event>
<event>
 8    1  0.1273312E-005  0.1443982E+03  0.7546771E-02  0.1221650E+00
         -1   -1    0    0    0  501 -0.00000000000E+00  0.00000000000E+00  0.24250754260E+03  0.24250754260E+03  0.00000000000E+00 0.  1.
          1   -1    0    0  501    0  0.00000000000E+00 -0.00000000000E+00 -0.80900195911E+02  0.80900195911E+02  0.00000000000E+00 0. -1.
         23    2    1    2    0    0  0.57374391496E+02  0.43978038941E+02  0.14177092138E+03  0.17765336618E+03  0.78967307517E+02 0.  0.
         23    2    1    2    0    0 -0.57374391496E+02 -0.43978038941E+02  0.19836425304E+02  0.14575437233E+03  0.12499985830E+03 0.  0.
          5    1    4    4  502    0 -0.27240546065E+02  0.42500551852E+02  0.18730749653E+02  0.54048822746E+02  0.47000000000E+01 0.  1.
         -5    1    4    4    0  502 -0.30133845431E+02 -0.86478590793E+02  0.11056756511E+01  0.91705549585E+02  0.47000000000E+01 0.  1.
        -11    1    3    3    0    0  0.40327715360E+02  0.67095357599E+02  0.10117349962E+03  0.12792258855E+03  0.00000000000E+00 0. -1.
         11    1    3    3    0    0  0.17046676136E+02 -0.23117318658E+02  0.40597421769E+02  0.49730777628E+02  0.00000000000E+00 0.  1.
<mgrwt>
<rscale>  0 0.13399163E+03</rscale>
<asrwt>0</asrwt>
<pdfrwt beam="2">  1        1 0.12446184E-01 0.14439825E+03</pdfrwt>
<pdfrwt beam="1">  1       -1 0.37308852E-01 0.14439825E+03</pdfrwt>
<totfact> 0.32266103E+03</totfact>
</mgrwt>
</event>
<event>
 8    1  0.1273312E-005  0.1348451E+03  0.7546771E-02  0.1234151E+00
         -2   -1    0    0    0  501 -0.00000000000E+00  0.00000000000E+00  0.55562695738E+02  0.55562695738E+02  0.00000000000E+00 0. -1.
          2   -1    0    0  501    0  0.00000000000E+00 -0.00000000000E+00 -0.31503840103E+03  0.31503840103E+03  0.00000000000E+00 0.  1.
         23    2    1    2    0    0  0.13472112018E+02  0.48739377478E+02 -0.32409024567E+02  0.10651310595E+03  0.87964038938E+02 0.  0.
         23    2    1    2    0    0 -0.13472112018E+02 -0.48739377478E+02 -0.22706668073E+03  0.26408799082E+03  0.12500465864E+03 0.  0.
          5    1    4    4  502    0 -0.62153419606E+02 -0.42828240334E+02 -0.18292296728E+03  0.19793990931E+03  0.47000000000E+01 0. -1.
         -5    1    4    4    0  502  0.48681307588E+02 -0.59111371442E+01 -0.44143713446E+02  0.66148081512E+02  0.47000000000E+01 0. -1.
        -11    1    3    3    0    0 -0.18924943276E+02 -0.11361956021E+02 -0.31208172984E+02  0.38225614235E+02  0.00000000000E+00 0.  1.
         11    1    3    3    0    0  0.32397055293E+02  0.60101333499E+02 -0.12008515831E+01  0.68287491714E+02  0.00000000000E+00 0. -1.
<mgrwt>
<rscale>  0 0.12558940E+03</rscale>
<asrwt>0</asrwt>
<pdfrwt beam="2">  1        2 0.48467447E-01 0.13484506E+03</pdfrwt>
<pdfrwt beam="1">  1       -2 0.85481069E-02 0.13484506E+03</pdfrwt>
<totfact> 0.83821167E+03</totfact>
</mgrwt>
</event>
<event>
 8    1  0.1273312E-005  0.2291470E+03  0.7546771E-02  0.1130188E+00
          3   -1    0    0  501    0  0.00000000000E+00  0.00000000000E+00  0.44655010205E+02  0.44655010205E+02  0.00000000000E+00 0. -1.
         -3   -1    0    0    0  501 -0.00000000000E+00 -0.00000000000E+00 -0.11704166788E+04  0.11704166788E+04  0.00000000000E+00 0.  1.
         23    2    1    2    0    0 -0.18978520724E+03  0.29397661161E+02 -0.69787295885E+03  0.72968825146E+03  0.92388474673E+02 0.  0.
         23    2    1    2    0    0  0.18978520724E+03 -0.29397661161E+02 -0.42788870972E+03  0.48538343752E+03  0.12500274455E+03 0.  0.
          5    1    4    4  502    0  0.36268379926E+01 -0.18213026723E+01 -0.14768949860E+03  0.14781998881E+03  0.47000000000E+01 0.  1.
         -5    1    4    4    0  502  0.18615836925E+03 -0.27576358489E+02 -0.28019921112E+03  0.33756344871E+03  0.47000000000E+01 0.  1.
        -11    1    3    3    0    0 -0.61188991063E+02 -0.28500152834E+01 -0.99819666584E+02  0.11711610074E+03  0.00000000000E+00 0. -1.
         11    1    3    3    0    0 -0.12859621618E+03  0.32247676444E+02 -0.59805329226E+03  0.61257215072E+03  0.00000000000E+00 0.  1.
<mgrwt>
<rscale>  0 0.22502948E+03</rscale>
<asrwt>0</asrwt>
<pdfrwt beam="1">  1        3 0.68700013E-02 0.22914697E+03</pdfrwt>
<pdfrwt beam="2">  1       -3 0.18006411E+00 0.22914697E+03</pdfrwt>
<totfact> 0.71966246E+01</totfact>
</mgrwt>
</event>
<event>
 7    1  0.1273312E-005  0.2438924E+03  0.7546771E-02  0.1120912E+00
         -1   -1    0    0    0  501 -0.00000000000E+00  0.00000000000E+00  0.99418230432E+02  0.99418230432E+02  0.00000000000E+00 0.  1.
          1   -1    0    0  501    0  0.00000000000E+00 -0.00000000000E+00 -0.59114411210E+03  0.59114411210E+03  0.00000000000E+00 0. -1.
         23    2    1    2    0    0 -0.15239772334E+03 -0.13343935097E+03 -0.14081426824E+03  0.26321887301E+03  0.91784478544E+02 0.  0.
          5    1    1    2  502    0  0.19533513074E+02  0.63288535380E+02 -0.21383620723E+03  0.22390848659E+03  0.47000000000E+01 0. -1.
         -5    1    1    2    0  502  0.13286421027E+03  0.70150815591E+02 -0.13707540620E+03  0.20343498294E+03  0.47000000000E+01 0.  1.
        -11    1    3    3    0    0 -0.21146527686E+02 -0.18613858951E+02  0.12685278510E+02  0.30896078539E+02  0.00000000000E+00 0. -1.
         11    1    3    3    0    0 -0.13125119565E+03 -0.11482549202E+03 -0.15349954675E+03  0.23232279447E+03  0.00000000000E+00 0.  1.
<mgrwt>
<rscale>  0 0.23832823E+03</rscale>
<asrwt>0</asrwt>
<pdfrwt beam="2">  1        1 0.90945249E-01 0.24389235E+03</pdfrwt>
<pdfrwt beam="1">  1       -1 0.15295112E-01 0.24389235E+03</pdfrwt>
<totfact> 0.11196715E+03</totfact>
</mgrwt>
</event>
<event>
 8    1  0.1273312E-005  0.1318410E+03  0.7546771E-02  0.1239539E+00
         -1   -1    0    0    0  501 -0.00000000000E+00  0.00000000000E+00  0.41230363182E+02  0.41230363182E+02  0.00000000000E+00 0.  1.
          1   -1    0    0  501    0  0.00000000000E+00 -0.00000000000E+00 -0.33377379541E+03  0.33377379541E+03  0.00000000000E+00 0. -1.
         23    2    1    2    0    0  0.18411712656E+02  0.37624968471E+02 -0.85191151539E+02  0.12928679797E+03  0.87766248713E+02 0.  0.
         23    2    1    2    0    0 -0.18411712656E+02 -0.37624968471E+02 -0.20735228069E+03  0.24571736062E+03  0.12500969398E+03 0.  0.
          5    1    4    4  502    0 -0.24985734101E+02 -0.43416528264E+02 -0.22221290072E+03  0.22783754098E+03  0.47000000000E+01 0. -1.
         -5    1    4    4    0  502  0.65740214457E+01  0.57915597935E+01  0.14860620029E+02  0.17879819643E+02  0.47000000000E+01 0. -1.
        -11    1    3    3    0    0  0.46480206069E+02  0.23648011152E+02 -0.18051503107E+02  0.55186001415E+02  0.00000000000E+00 0.  1.
         11    1    3    3    0    0 -0.28068493414E+02  0.13976957318E+02 -0.67139648431E+02  0.74100796554E+02  0.00000000000E+00 0. -1.
<mgrwt>
<rscale>  0 0.12218283E+03</rscale>
<asrwt>0</asrwt>
<pdfrwt beam="2">  1        1 0.51349815E-01 0.13184101E+03</pdfrwt>
<pdfrwt beam="1">  1       -1 0.63431327E-02 0.13184101E+03</pdfrwt>
<totfact> 0.88935809E+03</totfact>
</mgrwt>
</event>
<event>
 8    1  0.1273312E-005  0.1212130E+03  0.7546771E-02  0.1254306E+00
         -2   -1    0    0    0  501 -0.00000000000E+00  0.00000000000E+00  0.14427391984E+03  0.14427391984E+03  0.00000000000E+00 0.  1.
          2   -1    0    0  501    0  0.00000000000E+00 -0.00000000000E+00 -0.43274665351E+03  0.43274665351E+03  0.00000000000E+00 0. -1.
         23    2    1    2    0    0 -0.56561695845E+01 -0.18237219939E+02  0.11948906967E+03  0.15143224278E+03  0.91046679990E+02 0.  0.
         23    2    1    2    0    0  0.56561695845E+01  0.18237219939E+02 -0.40796180335E+03  0.42558833057E+03  0.11969964778E+03 0.  0.
          5    1    4    4  502    0  0.22942949849E+02  0.13163078292E+02 -0.40597571577E+03  0.40686363486E+03  0.47000000000E+01 0. -1.
         -5    1    4    4    0  502 -0.17286780264E+02  0.50741416462E+01 -0.19860875777E+01  0.18724695704E+02  0.47000000000E+01 0.  1.
        -11    1    3    3    0    0 -0.39487333021E+02 -0.34273813668E+02  0.49207998428E+02  0.71800911427E+02  0.00000000000E+00 0. -1.
         11    1    3    3    0    0  0.33831163437E+02  0.16036593729E+02  0.70281071246E+02  0.79631331356E+02  0.00000000000E+00 0.  1.
<mgrwt>
<rscale>  0 0.11345263E+03</rscale>
<asrwt>0</asrwt>
<pdfrwt beam="2">  1        2 0.66576407E-01 0.12121301E+03</pdfrwt>
<pdfrwt beam="1">  1       -2 0.22195988E-01 0.12121301E+03</pdfrwt>
<totfact> 0.12664096E+03</totfact>
</mgrwt>
</event>
<event>
 8    1  0.1273312E-005  0.1702448E+03  0.7546771E-02  0.1184054E+00
         -1   -1    0    0    0  501 -0.00000000000E+00  0.00000000000E+00  0.20349751237E+02  0.20349751237E+02  0.00000000000E+00 0.  1.
          1   -1    0    0  501    0  0.00000000000E+00 -0.00000000000E+00 -0.13185549460E+04  0.13185549460E+04  0.00000000000E+00 0. -1.
         23    2    1    2    0    0 -0.31863558531E+02 -0.11110191271E+03 -0.44039683880E+03  0.46436570319E+03  0.91253544074E+02 0.  0.
         23    2    1    2    0    0  0.31863558531E+02  0.11110191271E+03 -0.85780835596E+03  0.87453899404E+03  0.12499742068E+03 0.  0.
          5    1    4    4  502    0 -0.21817293867E+02  0.35112383166E+02 -0.71438896404E+02  0.82670911950E+02  0.47000000000E+01 0.  1.
         -5    1    4    4    0  502  0.53680852398E+02  0.75989529543E+02 -0.78636945956E+03  0.79186808209E+03  0.47000000000E+01 0.  1.
        -11    1    3    3    0    0  0.82457078478E+01 -0.99181768636E+02 -0.36283452653E+03  0.37623650617E+03  0.00000000000E+00 0. -1.
         11    1    3    3    0    0 -0.40109266379E+02 -0.11920144072E+02 -0.77562312265E+02  0.88129197024E+02  0.00000000000E+00 0.  1.
<mgrwt>
<rscale>  0 0.16418295E+03</rscale>
<asrwt>0</asrwt>
<pdfrwt beam="2">  1        1 0.20285460E+00 0.17024475E+03</pdfrwt>
<pdfrwt beam="1">  1       -1 0.31307311E-02 0.17024475E+03</pdfrwt>
<totfact> 0.33319773E+03</totfact>
</mgrwt>
</event>
<event>
 8    1  0.1273312E-005  0.1424732E+03  0.7546771E-02  0.1219643E+00
          4   -1    0    0  501    0  0.00000000000E+00  0.00000000000E+00  0.13289884517E+03  0.13289884517E+03  0.00000000000E+00 0. -1.
         -4   -1    0    0    0  501 -0.00000000000E+00 -0.00000000000E+00 -0.13869578755E+03  0.13869578755E+03  0.00000000000E+00 0.  1.
         23    2    1    2    0    0 -0.66572348763E+02 -0.15493070222E+02 -0.43657232385E+02  0.12417679419E+03  0.94031959628E+02 0.  0.
         23    2    1    2    0    0  0.66572348763E+02  0.15493070222E+02  0.37860290002E+02  0.14741783854E+03  0.12500681867E+03 0.  0.
          5    1    4    4  502    0  0.90167112418E+02 -0.55531531059E+00  0.62180839662E+02  0.10963103282E+03  0.47000000000E+01 0.  1.
         -5    1    4    4    0  502 -0.23594763656E+02  0.16048385533E+02 -0.24320549659E+02  0.37786805712E+02  0.47000000000E+01 0.  1.
        -11    1    3    3    0    0 -0.43145428875E+02 -0.21891418810E+01 -0.72697012029E+02  0.84564625777E+02  0.00000000000E+00 0.  1.
         11    1    3    3    0    0 -0.23426919888E+02 -0.13303928341E+02  0.29039779643E+02  0.39612168414E+02  0.00000000000E+00 0. -1.
<mgrwt>
<rscale>  0 0.13540902E+03</rscale>
<asrwt>0</asrwt>
<pdfrwt beam="1">  1        4 0.20445976E-01 0.14247322E+03</pdfrwt>
<pdfrwt beam="2">  1       -4 0.21337814E-01 0.14247322E+03</pdfrwt>
<totfact> 0.72628769E+02</totfact>
</mgrwt>
</event>
<event>
 8    1  0.1273312E-005  0.1559720E+03  0.7546771E-02  0.1200966E+00
         -2   -1    0    0    0  501 -0.00000000000E+00  0.00000000000E+00  0.75837386338E+03  0.75837386338E+03  0.00000000000E+00 0.  1.
          2   -1    0    0  501    0  0.00000000000E+00 -0.00000000000E+00 -0.29447315900E+02  0.29447315900E+02  0.00000000000E+00 0. -1.
         23    2    1    2    0    0 -0.23399187986E+01  0.93265800537E+02  0.44138852213E+03  0.46070439959E+03  0.93384857259E+02 0.  0.
         23    2    1    2    0    0  0.23399187986E+01 -0.93265800537E+02  0.28753802535E+03  0.32711677969E+03  0.12499314686E+03 0.  0.
          5    1    4    4  502    0 -0.44877723851E+02 -0.79353664269E+02  0.11063962339E+03  0.14343720018E+03  0.47000000000E+01 0. -1.
         -5    1    4    4    0  502  0.47217642650E+02 -0.13912136268E+02  0.17689840196E+03  0.18367957951E+03  0.47000000000E+01 0. -1.
        -11    1    3    3    0    0 -0.15706903692E+00  0.76283009405E+02  0.43618996502E+03  0.44281012610E+03  0.00000000000E+00 0.  1.
         11    1    3    3    0    0 -0.21828497617E+01  0.16982791132E+02  0.51985571112E+01  0.17894273491E+02  0.00000000000E+00 0. -1.
<mgrwt>
<rscale>  0 0.14959971E+03</rscale>
<asrwt>0</asrwt>
<pdfrwt beam="2">  1        2 0.45303569E-02 0.15597202E+03</pdfrwt>
<pdfrwt beam="1">  1       -2 0.11667289E+00 0.15597202E+03</pdfrwt>
<totfact> 0.10406803E+03</totfact>
</mgrwt>
</event>
<event>
 8    1  0.1273312E-005  0.1762995E+03  0.7546771E-02  0.1177256E+00
          2   -1    0    0  501    0  0.00000000000E+00  0.00000000000E+00  0.64443170212E+02  0.64443170212E+02  0.00000000000E+00 0. -1.
         -2   -1    0    0    0  501 -0.00000000000E+00 -0.00000000000E+00 -0.51418569338E+03  0.51418569338E+03  0.00000000000E+00 0.  1.
         23    2    1    2    0    0  0.58390834447E+02  0.10976003715E+03 -0.33327579243E+03  0.36733279989E+03  0.91672660874E+02 0.  0.
         23    2    1    2    0    0 -0.58390834447E+02 -0.10976003715E+03 -0.11646673074E+03  0.21129606370E+03  0.12499908745E+03 0.  0.
          5    1    4    4  502    0  0.19707596865E+02 -0.80880937245E+02 -0.23979545410E+02  0.86759575737E+02  0.47000000000E+01 0. -1.
         -5    1    4    4    0  502 -0.78098431311E+02 -0.28879099907E+02 -0.92487185325E+02  0.12453648796E+03  0.47000000000E+01 0. -1.
        -11    1    3    3    0    0  0.38067373409E+02  0.35380444698E+02 -0.24352546227E+03  0.24900913951E+03  0.00000000000E+00 0.  1.
         11    1    3    3    0    0  0.20323461038E+02  0.74379592455E+02 -0.89750330168E+02  0.11832366039E+03  0.00000000000E+00 0. -1.
<mgrwt>
<rscale>  0 0.17056842E+03</rscale>
<asrwt>0</asrwt>
<pdfrwt beam="1">  1        2 0.99143338E-02 0.17629954E+03</pdfrwt>
<pdfrwt beam="2">  1       -2 0.79105492E-01 0.17629954E+03</pdfrwt>
<totfact> 0.93307097E+02</totfact>
</mgrwt>
</event>
<event>
 8    1  0.1273312E-005  0.2019210E+03  0.7546771E-02  0.1152516E+00
          1   -1    0    0  501    0  0.00000000000E+00  0.00000000000E+00  0.97647456918E+03  0.97647456918E+03  0.00000000000E+00 0. -1.
         -1   -1    0    0    0  501 -0.00000000000E+00 -0.00000000000E+00 -0.43069220770E+02  0.43069220770E+02  0.00000000000E+00 0.  1.
         23    2    1    2    0    0 -0.12818649769E+03 -0.93356260325E+02  0.26629220725E+03  0.32254162571E+03  0.89299446479E+02 0.  0.
         23    2    1    2    0    0  0.12818649769E+03  0.93356260325E+02  0.66711314116E+03  0.69700216424E+03  0.12499961726E+03 0.  0.
          5    1    4    4  502    0  0.56477911417E+02  0.10167905593E+03  0.52242188534E+03  0.53523368838E+03  0.47000000000E+01 0. -1.
         -5    1    4    4    0  502  0.71708586275E+02 -0.83227956020E+01  0.14469125582E+03  0.16176847586E+03  0.47000000000E+01 0. -1.
        -11    1    3    3    0    0 -0.76770233871E+02 -0.49543643246E+01  0.14278255193E+03  0.16218838327E+03  0.00000000000E+00 0.  1.
         11    1    3    3    0    0 -0.51416263821E+02 -0.88401896000E+02  0.12350965533E+03  0.16035324244E+03  0.00000000000E+00 0. -1.
<mgrwt>
<rscale>  0 0.19674328E+03</rscale>
<asrwt>0</asrwt>
<pdfrwt beam="1">  1        1 0.15022684E+00 0.20192096E+03</pdfrwt>
<pdfrwt beam="2">  1       -1 0.66260347E-02 0.20192096E+03</pdfrwt>
<totfact> 0.19091124E+03</totfact>
</mgrwt>
</event>
<event>
 8    1  0.1273312E-005  0.1464071E+03  0.7546771E-02  0.1214733E+00
         -4   -1    0    0    0  501 -0.00000000000E+00  0.00000000000E+00  0.75294544931E+02  0.75294544931E+02  0.00000000000E+00 0.  1.
          4   -1    0    0  501    0  0.00000000000E+00 -0.00000000000E+00 -0.28185854084E+03  0.28185854084E+03  0.00000000000E+00 0. -1.
         23    2    1    2    0    0  0.26899867734E+02 -0.71328403994E+02 -0.20798691645E+02  0.12062868705E+03  0.91144667777E+02 0.  0.
         23    2    1    2    0    0 -0.26899867734E+02  0.71328403994E+02 -0.18576530426E+03  0.23652439872E+03  0.12499479518E+03 0.  0.
          5    1    4    4  502    0  0.41445983198E+02  0.46825565071E+02 -0.42234034903E+02  0.75605600134E+02  0.47000000000E+01 0.  1.
         -5    1    4    4    0  502 -0.68345850932E+02  0.24502838923E+02 -0.14353126936E+03  0.16091879859E+03  0.47000000000E+01 0.  1.
        -11    1    3    3    0    0  0.82219576560E+01  0.22004583308E+02 -0.17320333066E+01  0.23554239823E+02  0.00000000000E+00 0.  1.
         11    1    3    3    0    0  0.18677910078E+02 -0.93332987303E+02 -0.19066658338E+02  0.97074447224E+02  0.00000000000E+00 0. -1.
<mgrwt>
<rscale>  0 0.13896197E+03</rscale>
<asrwt>0</asrwt>
<pdfrwt beam="2">  1        4 0.43362853E-01 0.14640711E+03</pdfrwt>
<pdfrwt beam="1">  1       -4 0.11583776E-01 0.14640711E+03</pdfrwt>
<totfact> 0.51462745E+02</totfact>
</mgrwt>
</event>
<event>
 8    1  0.1273312E-005  0.1666991E+03  0.7546771E-02  0.1189332E+00
         -1   -1    0    0    0  501 -0.00000000000E+00  0.00000000000E+00  0.26772427028E+03  0.26772427028E+03  0.00000000000E+00 0.  1.
          1   -1    0    0  501    0  0.00000000000E+00 -0.00000000000E+00 -0.99887093534E+02  0.99887093534E+02  0.00000000000E+00 0. -1.
         23    2    1    2    0    0 -0.35268149783E+02  0.10449899898E+03  0.14175496186E+03  0.19888410785E+03  0.85419763314E+02 0.  0.
         23    2    1    2    0    0  0.35268149783E+02 -0.10449899898E+03  0.26082214880E+02  0.16872725596E+03  0.12499888718E+03 0.  0.
          5    1    4    4  502    0  0.42802532085E+02 -0.46832140188E+01  0.49543400315E+02  0.65807505356E+02  0.47000000000E+01 0.  1.
         -5    1    4    4    0  502 -0.75343823018E+01 -0.99815784958E+02 -0.23461185435E+02  0.10291975061E+03  0.47000000000E+01 0.  1.
        -11    1    3    3    0    0  0.83685421179E+01  0.91344919853E+02  0.77367793116E+02  0.11999875954E+03  0.00000000000E+00 0.  1.
         11    1    3    3    0    0 -0.43636691901E+02  0.13154079123E+02  0.64387168747E+02  0.78885348303E+02  0.00000000000E+00 0. -1.
<mgrwt>
<rscale>  0 0.15943881E+03</rscale>
<asrwt>0</asrwt>
<pdfrwt beam="2">  1        1 0.15367245E-01 0.16669915E+03</pdfrwt>
<pdfrwt beam="1">  1       -1 0.41188349E-01 0.16669915E+03</pdfrwt>
<totfact> 0.20734260E+03</totfact>
</mgrwt>
</event>
<event>
 8    1  0.1273312E-005  0.1296153E+03  0.7546771E-02  0.1239992E+00
         -1   -1    0    0    0  501 -0.00000000000E+00  0.00000000000E+00  0.63331135089E+02  0.63331135089E+02  0.00000000000E+00 0.  1.
          1   -1    0    0  501    0  0.00000000000E+00 -0.00000000000E+00 -0.22645451712E+03  0.22645451712E+03  0.00000000000E+00 0. -1.
         23    2    1    2    0    0 -0.30567118333E+02  0.15513131643E+02 -0.34327016869E+02  0.10706005889E+03  0.95438494043E+02 0.  0.
         23    2    1    2    0    0  0.30567118333E+02 -0.15513131643E+02 -0.12879636516E+03  0.18272559332E+03  0.12500053120E+03 0.  0.
          5    1    4    4  502    0  0.50352289016E+02 -0.61276395995E+02 -0.75709981858E+02  0.10974625765E+03  0.47000000000E+01 0.  1.
         -5    1    4    4    0  502 -0.19785170683E+02  0.45763264351E+02 -0.53086383304E+02  0.72979335674E+02  0.47000000000E+01 0.  1.
        -11    1    3    3    0    0 -0.52233054771E+02  0.35407165410E+02 -0.16916774976E+01  0.63125439768E+02  0.00000000000E+00 0.  1.
         11    1    3    3    0    0  0.21665936438E+02 -0.19894033767E+02 -0.32635339372E+02  0.43934619119E+02  0.00000000000E+00 0. -1.
<mgrwt>
<rscale>  0 0.12190177E+03</rscale>
<asrwt>0</asrwt>
<pdfrwt beam="2">  1        1 0.34839157E-01 0.12961535E+03</pdfrwt>
<pdfrwt beam="1">  1       -1 0.97432515E-02 0.12961535E+03</pdfrwt>
<totfact> 0.75168114E+03</totfact>
</mgrwt>
</event>
<event>
 8    1  0.1273312E-005  0.1379537E+03  0.7546771E-02  0.1228093E+00
          1   -1    0    0  501    0  0.00000000000E+00  0.00000000000E+00  0.24272060555E+03  0.24272060555E+03  0.00000000000E+00 0. -1.
         -1   -1    0    0    0  501 -0.00000000000E+00 -0.00000000000E+00 -0.65504501986E+02  0.65504501986E+02  0.00000000000E+00 0.  1.
         23    2    1    2    0    0  0.46112742166E+02  0.35782135599E+02  0.42681719509E+02  0.11553179473E+03  0.90106160701E+02 0.  0.
         23    2    1    2    0    0 -0.46112742166E+02 -0.35782135599E+02  0.13453438405E+03  0.19269331280E+03  0.12499786433E+03 0.  0.
          5    1    4    4  502    0 -0.38928632010E+02  0.33982138858E+02  0.14980038568E+02  0.54006626511E+02  0.47000000000E+01 0. -1.
         -5    1    4    4    0  502 -0.71841101561E+01 -0.69764274458E+02  0.11955434549E+03  0.13868668629E+03  0.47000000000E+01 0. -1.
        -11    1    3    3    0    0  0.62622021182E+02  0.47370814353E+02  0.12916633816E+02  0.79576070640E+02  0.00000000000E+00 0.  1.
         11    1    3    3    0    0 -0.16509279016E+02 -0.11588678754E+02  0.29765085692E+02  0.35955724095E+02  0.00000000000E+00 0. -1.
<mgrwt>
<rscale>  0 0.12957139E+03</rscale>
<asrwt>0</asrwt>
<pdfrwt beam="1">  1        1 0.37341631E-01 0.13795366E+03</pdfrwt>
<pdfrwt beam="2">  1       -1 0.10077616E-01 0.13795366E+03</pdfrwt>
<totfact> 0.65805358E+03</totfact>
</mgrwt>
</event>
<event>
 8    1  0.1273312E-005  0.1282526E+03  0.7546771E-02  0.1243958E+00
          2   -1    0    0  501    0  0.00000000000E+00  0.00000000000E+00  0.34724951021E+03  0.34724951021E+03  0.00000000000E+00 0. -1.
         -2   -1    0    0    0  501 -0.00000000000E+00 -0.00000000000E+00 -0.58935926640E+02  0.58935926640E+02  0.00000000000E+00 0.  1.
         23    2    1    2    0    0  0.19875853342E+02  0.20705743129E+02  0.68056630411E+01  0.96838652697E+02  0.92236816197E+02 0.  0.
         23    2    1    2    0    0 -0.19875853342E+02 -0.20705743129E+02  0.28150792052E+03  0.30934678415E+03  0.12499978480E+03 0.  0.
          5    1    4    4  502    0  0.12269600179E+02  0.90841767177E+01  0.25966087372E+03  0.26015173398E+03  0.47000000000E+01 0.  1.
         -5    1    4    4    0  502 -0.32145453521E+02 -0.29789919846E+02  0.21847046806E+02  0.49195050164E+02  0.47000000000E+01 0.  1.
        -11    1    3    3    0    0  0.48948390788E+02  0.36102431711E+02  0.15589627033E+02  0.62788271255E+02  0.00000000000E+00 0.  1.
         11    1    3    3    0    0 -0.29072537447E+02 -0.15396688582E+02 -0.87839639918E+01  0.34050381441E+02  0.00000000000E+00 0. -1.
<mgrwt>
<rscale>  0 0.11947938E+03</rscale>
<asrwt>0</asrwt>
<pdfrwt beam="1">  1        2 0.53423001E-01 0.12825258E+03</pdfrwt>
<pdfrwt beam="2">  1       -2 0.90670658E-02 0.12825258E+03</pdfrwt>
<totfact> 0.68754643E+03</totfact>
</mgrwt>
</event>
<event>
 8    1  0.1273312E-005  0.1333464E+03  0.7546771E-02  0.1235417E+00
          1   -1    0    0  501    0  0.00000000000E+00  0.00000000000E+00  0.98301213279E+03  0.98301213279E+03  0.00000000000E+00 0. -1.
         -1   -1    0    0    0  501 -0.00000000000E+00 -0.00000000000E+00 -0.14733114135E+02  0.14733114135E+02  0.00000000000E+00 0.  1.
         23    2    1    2    0    0 -0.44445415432E+02  0.13553230439E+02  0.32153074123E+03  0.33739337914E+03  0.91066951862E+02 0.  0.
         23    2    1    2    0    0  0.44445415432E+02 -0.13553230439E+02  0.64674827742E+03  0.66035186778E+03  0.12498867921E+03 0.  0.
          5    1    4    4  502    0  0.76636042489E+02 -0.35031364596E+02  0.30748720581E+03  0.31885851291E+03  0.47000000000E+01 0. -1.
         -5    1    4    4    0  502 -0.32190627056E+02  0.21478134157E+02  0.33926107160E+03  0.34149335487E+03  0.47000000000E+01 0. -1.
        -11    1    3    3    0    0 -0.35106521056E+01 -0.36859981027E+02  0.12877592901E+03  0.13399336839E+03  0.00000000000E+00 0. -1.
         11    1    3    3    0    0 -0.40934763327E+02  0.50413211466E+02  0.19275481222E+03  0.20340001075E+03  0.00000000000E+00 0.  1.
<mgrwt>
<rscale>  0 0.12477778E+03</rscale>
<asrwt>0</asrwt>
<pdfrwt beam="1">  1        1 0.15123259E+00 0.13334637E+03</pdfrwt>
<pdfrwt beam="2">  1       -1 0.22666337E-02 0.13334637E+03</pdfrwt>
<totfact> 0.90669003E+03</totfact>
</mgrwt>
</event>
<event>
 8    1  0.1273312E-005  0.1508953E+03  0.7546771E-02  0.1202400E+00
         -1   -1    0    0    0  501 -0.00000000000E+00  0.00000000000E+00  0.13470853084E+02  0.13470853084E+02  0.00000000000E+00 0.  1.
          1   -1    0    0  501    0  0.00000000000E+00 -0.00000000000E+00 -0.21772394294E+04  0.21772394294E+04  0.00000000000E+00 0. -1.
         23    2    1    2    0    0 -0.87326956217E+02 -0.54195379215E+02 -0.48489487574E+03  0.50506907491E+03  0.96997904655E+02 0.  0.
         23    2    1    2    0    0  0.87326956217E+02  0.54195379215E+02 -0.16788737006E+04  0.16856412076E+04  0.11048186166E+03 0.  0.
          5    1    4    4  502    0  0.55568793771E+02  0.82915036124E+02 -0.13883749098E+04  0.13919661541E+04  0.47000000000E+01 0. -1.
         -5    1    4    4    0  502  0.31758162446E+02 -0.28719656909E+02 -0.29049879081E+03  0.29367505348E+03  0.47000000000E+01 0.  1.
        -11    1    3    3    0    0  0.57450808071E+01  0.15791803221E+02 -0.21619608360E+02  0.27382375135E+02  0.00000000000E+00 0. -1.
         11    1    3    3    0    0 -0.93072037024E+02 -0.69987182435E+02 -0.46327526738E+03  0.47768669978E+03  0.00000000000E+00 0.  1.
<mgrwt>
<rscale>  0 0.14844263E+03</rscale>
<asrwt>0</asrwt>
<pdfrwt beam="2">  1        1 0.33496018E+00 0.15089526E+03</pdfrwt>
<pdfrwt beam="1">  1       -1 0.20724373E-02 0.15089526E+03</pdfrwt>
<totfact> 0.16938764E+03</totfact>
</mgrwt>
</event>
<event>
 7    1  0.1273312E-005  0.1729857E+03  0.7546771E-02  0.1195241E+00
         -1   -1    0    0    0  501 -0.00000000000E+00  0.00000000000E+00  0.41732244040E+02  0.41732244040E+02  0.00000000000E+00 0.  1.
          1   -1    0    0  501    0  0.00000000000E+00 -0.00000000000E+00 -0.80255445862E+03  0.80255445862E+03  0.00000000000E+00 0. -1.
         23    2    1    2    0    0 -0.33484924227E+02  0.46434245620E+02 -0.65331342330E+02  0.12760574399E+03  0.93475463583E+02 0.  0.
          5    1    1    2  502    0 -0.18386429842E+02 -0.71336351170E+02 -0.60403089402E+03  0.60852472976E+03  0.47000000000E+01 0. -1.
         -5    1    1    2    0  502  0.51871354069E+02  0.24902105550E+02 -0.91459978233E+02  0.10815622891E+03  0.47000000000E+01 0.  1.
        -11    1    3    3    0    0 -0.22687066210E+02  0.73302755970E+02 -0.31169093741E+02  0.82822155313E+02  0.00000000000E+00 0.  1.
         11    1    3    3    0    0 -0.10797858018E+02 -0.26868510350E+02 -0.34162248590E+02  0.44783588678E+02  0.00000000000E+00 0. -1.
<mgrwt>
<rscale>  0 0.15433814E+03</rscale>
<asrwt>0</asrwt>
<pdfrwt beam="2">  1        1 0.12346991E+00 0.17298567E+03</pdfrwt>
<pdfrwt beam="1">  1       -1 0.64203454E-02 0.17298567E+03</pdfrwt>
<totfact> 0.27332614E+03</totfact>
</mgrwt>
</event>
<event>
 8    1  0.1273312E-005  0.1414958E+03  0.7546771E-02  0.1222174E+00
         -2   -1    0    0    0  501 -0.00000000000E+00  0.00000000000E+00  0.29968397463E+03  0.29968397463E+03  0.00000000000E+00 0.  1.
          2   -1    0    0  501    0  0.00000000000E+00 -0.00000000000E+00 -0.54929847909E+02  0.54929847909E+02  0.00000000000E+00 0. -1.
         23    2    1    2    0    0 -0.46205595435E+02  0.47547882026E+02  0.13356289115E+03  0.17465672656E+03  0.90940464625E+02 0.  0.
         23    2    1    2    0    0  0.46205595435E+02 -0.47547882026E+02  0.11119123558E+03  0.17995709598E+03  0.12500122956E+03 0.  0.
          5    1    4    4  502    0  0.56030233216E+02 -0.66397550820E+02  0.24236971258E+02  0.90319115169E+02  0.47000000000E+01 0. -1.
         -5    1    4    4    0  502 -0.98246377807E+01  0.18849668794E+02  0.86954264319E+02  0.89637980814E+02  0.47000000000E+01 0. -1.
        -11    1    3    3    0    0 -0.30895716281E+02 -0.24135940938E+02  0.44429315310E+02  0.59254138998E+02  0.00000000000E+00 0.  1.
         11    1    3    3    0    0 -0.15309879154E+02  0.71683822964E+02  0.89133575837E+02  0.11540258756E+03  0.00000000000E+00 0. -1.
<mgrwt>
<rscale>  0 0.13362488E+03</rscale>
<asrwt>0</asrwt>
<pdfrwt beam="2">  1        2 0.84507460E-02 0.14149581E+03</pdfrwt>
<pdfrwt beam="1">  1       -2 0.46105226E-01 0.14149581E+03</pdfrwt>
<totfact> 0.34335173E+03</totfact>
</mgrwt>
</event>
<event>
 8    1  0.1273312E-005  0.1312521E+03  0.7546771E-02  0.1235974E+00
          2   -1    0    0  501    0  0.00000000000E+00  0.00000000000E+00  0.44474226923E+03  0.44474226923E+03  0.00000000000E+00 0. -1.
         -2   -1    0    0    0  501 -0.00000000000E+00 -0.00000000000E+00 -0.50444784588E+02  0.50444784588E+02  0.00000000000E+00 0.  1.
         23    2    1    2    0    0  0.44774657853E+02 -0.37686934096E+02  0.33349605738E+02  0.11111612000E+03  0.88371493901E+02 0.  0.
         23    2    1    2    0    0 -0.44774657853E+02  0.37686934096E+02  0.36094787890E+03  0.38407093381E+03  0.11748206641E+03 0.  0.
          5    1    4    4  502    0 -0.24236835885E+01  0.73301691909E+02  0.23962688597E+03  0.25064346542E+03  0.47000000000E+01 0. -1.
         -5    1    4    4    0  502 -0.42350974265E+02 -0.35614757813E+02  0.12132099293E+03  0.13342746839E+03  0.47000000000E+01 0.  1.
        -11    1    3    3    0    0  0.45219611351E+02 -0.64245562402E+02  0.30968185550E+02  0.84447226452E+02  0.00000000000E+00 0.  1.
         11    1    3    3    0    0 -0.44495349768E+00  0.26558628307E+02  0.23814201880E+01  0.26668893551E+02  0.00000000000E+00 0. -1.
<mgrwt>
<rscale>  0 0.12442262E+03</rscale>
<asrwt>0</asrwt>
<pdfrwt beam="1">  1        2 0.68421885E-01 0.13125209E+03</pdfrwt>
<pdfrwt beam="2">  1       -2 0.77607364E-02 0.13125209E+03</pdfrwt>
<totfact> 0.67274937E+03</totfact>
</mgrwt>
</event>
<event>
 8    1  0.1273312E-005  0.1339061E+03  0.7546771E-02  0.1234671E+00
         -3   -1    0    0    0  501 -0.00000000000E+00  0.00000000000E+00  0.14500440784E+02  0.14500440784E+02  0.00000000000E+00 0.  1.
          3   -1    0    0  501    0  0.00000000000E+00 -0.00000000000E+00 -0.98200101366E+03  0.98200101366E+03  0.00000000000E+00 0. -1.
         23    2    1    2    0    0 -0.47536777667E+02  0.68048399141E+01 -0.48820446574E+03  0.49885137796E+03  0.90570667698E+02 0.  0.
         23    2    1    2    0    0  0.47536777667E+02 -0.68048399141E+01 -0.47929610714E+03  0.49765007648E+03  0.12499915692E+03 0.  0.
          5    1    4    4  502    0  0.99562758042E+01  0.21728925645E+02 -0.10606919761E+02  0.26568221325E+02  0.47000000000E+01 0. -1.
         -5    1    4    4    0  502  0.37580501862E+02 -0.28533765559E+02 -0.46868918737E+03  0.47108185516E+03  0.47000000000E+01 0. -1.
        -11    1    3    3    0    0 -0.70969223253E+02 -0.12527913325E+02 -0.35167294955E+03  0.35898111748E+03  0.00000000000E+00 0.  1.
         11    1    3    3    0    0  0.23432445586E+02  0.19332753239E+02 -0.13653151619E+03  0.13987026048E+03  0.00000000000E+00 0. -1.
<mgrwt>
<rscale>  0 0.12525524E+03</rscale>
<asrwt>0</asrwt>
<pdfrwt beam="2">  1        3 0.15107708E+00 0.13390609E+03</pdfrwt>
<pdfrwt beam="1">  1       -3 0.22308370E-02 0.13390609E+03</pdfrwt>
<totfact> 0.63091446E+02</totfact>
</mgrwt>
</event>
<event>
 8    1  0.1273312E-005  0.1475699E+03  0.7546771E-02  0.1213073E+00
         -3   -1    0    0    0  501 -0.00000000000E+00  0.00000000000E+00  0.19438034191E+02  0.19438034191E+02  0.00000000000E+00 0.  1.
          3   -1    0    0  501    0  0.00000000000E+00 -0.00000000000E+00 -0.92221430512E+03  0.92221430512E+03  0.00000000000E+00 0. -1.
         23    2    1    2    0    0 -0.75542262821E+02 -0.21176648145E+02 -0.40990940411E+03  0.42716752277E+03  0.91056515578E+02 0.  0.
         23    2    1    2    0    0  0.75542262821E+02  0.21176648145E+02 -0.49286686682E+03  0.51448481655E+03  0.12498717594E+03 0.  0.
          5    1    4    4  502    0  0.75963764255E+02  0.22147618087E+02 -0.13474676313E+03  0.15633230837E+03  0.47000000000E+01 0.  1.
         -5    1    4    4    0  502 -0.42150143393E+00 -0.97096994186E+00 -0.35812010369E+03  0.35815250817E+03  0.47000000000E+01 0.  1.
        -11    1    3    3    0    0 -0.26455301388E+02 -0.53878857348E+02 -0.23665197867E+03  0.24414539367E+03  0.00000000000E+00 0. -1.
         11    1    3    3    0    0 -0.49086961433E+02  0.32702209204E+02 -0.17325742544E+03  0.18302212910E+03  0.00000000000E+00 0.  1.
<mgrwt>
<rscale>  0 0.14019038E+03</rscale>
<asrwt>0</asrwt>
<pdfrwt beam="2">  1        3 0.14187910E+00 0.14756991E+03</pdfrwt>
<pdfrwt beam="1">  1       -3 0.29904673E-02 0.14756991E+03</pdfrwt>
<totfact> 0.47592266E+02</totfact>
</mgrwt>
</event>
<event>
 8    1  0.1273312E-005  0.1482279E+03  0.7546771E-02  0.1216198E+00
         -1   -1    0    0    0  501 -0.00000000000E+00  0.00000000000E+00  0.33161636483E+02  0.33161636483E+02  0.00000000000E+00 0.  1.
          1   -1    0    0  501    0  0.00000000000E+00 -0.00000000000E+00 -0.69024673888E+03  0.69024673888E+03  0.00000000000E+00 0. -1.
         23    2    1    2    0    0 -0.48675972450E+01  0.79518753635E+02 -0.10876747410E+03  0.15540860531E+03  0.77295184195E+02 0.  0.
         23    2    1    2    0    0  0.48675972450E+01 -0.79518753635E+02 -0.54831762829E+03  0.56799977005E+03  0.12499836637E+03 0.  0.
          5    1    4    4  502    0  0.29681229674E+01 -0.22217383137E+02 -0.74527026362E+01  0.24084323615E+02  0.47000000000E+01 0.  1.
         -5    1    4    4    0  502  0.18994742776E+01 -0.57301370498E+02 -0.54086492566E+03  0.54391544643E+03  0.47000000000E+01 0.  1.
        -11    1    3    3    0    0  0.32373477133E+02  0.58237450207E+02 -0.78207369497E+02  0.10274256796E+03  0.00000000000E+00 0. -1.
         11    1    3    3    0    0 -0.37241074378E+02  0.21281303428E+02 -0.30560104606E+02  0.52666037348E+02  0.00000000000E+00 0.  1.
<mgrwt>
<rscale>  0 0.13788923E+03</rscale>
<asrwt>0</asrwt>
<pdfrwt beam="2">  1        1 0.10619181E+00 0.14822792E+03</pdfrwt>
<pdfrwt beam="1">  1       -1 0.51017899E-02 0.14822792E+03</pdfrwt>
<totfact> 0.47846844E+03</totfact>
</mgrwt>
</event>
<event>
 7    1  0.1273312E-005  0.1688152E+03  0.7546771E-02  0.1190439E+00
          2   -1    0    0  501    0  0.00000000000E+00  0.00000000000E+00  0.51070786965E+03  0.51070786965E+03  0.00000000000E+00 0. -1.
         -2   -1    0    0    0  501 -0.00000000000E+00 -0.00000000000E+00 -0.44153739801E+02  0.44153739801E+02  0.00000000000E+00 0.  1.
         23    2    1    2    0    0  0.89048287789E+02 -0.30059933918E+02  0.21891333954E+03  0.25515420390E+03  0.91364218125E+02 0.  0.
          5    1    1    2  502    0 -0.42847243957E+02 -0.48916666557E+02  0.16062164930E+03  0.17334973552E+03  0.47000000000E+01 0. -1.
         -5    1    1    2    0  502 -0.46201043832E+02  0.78976600475E+02  0.87019141013E+02  0.12635767003E+03  0.47000000000E+01 0.  1.
        -11    1    3    3    0    0  0.98328641640E+02 -0.48968765729E+02  0.17881195441E+03  0.20985751553E+03  0.00000000000E+00 0.  1.
         11    1    3    3    0    0 -0.92803538509E+01  0.18908831810E+02  0.40101385129E+02  0.45296688370E+02  0.00000000000E+00 0. -1.
<mgrwt>
<rscale>  0 0.15846687E+03</rscale>
<asrwt>0</asrwt>
<pdfrwt beam="1">  1        2 0.78570437E-01 0.16881519E+03</pdfrwt>
<pdfrwt beam="2">  1       -2 0.67928834E-02 0.16881519E+03</pdfrwt>
<totfact> 0.72017299E+03</totfact>
</mgrwt>
</event>
<event>
 8    1  0.1273312E-005  0.1281966E+03  0.7546771E-02  0.1244771E+00
          1   -1    0    0  501    0  0.00000000000E+00  0.00000000000E+00  0.12702577250E+03  0.12702577250E+03  0.00000000000E+00 0. -1.
         -1   -1    0    0    0  501 -0.00000000000E+00 -0.00000000000E+00 -0.99302138385E+02  0.99302138385E+02  0.00000000000E+00 0.  1.
         23    2    1    2    0    0 -0.21877518357E+01 -0.28364672460E+02 -0.61881996547E-01  0.95154707047E+02  0.90802387315E+02 0.  0.
         23    2    1    2    0    0  0.21877518357E+01  0.28364672460E+02  0.27785516110E+02  0.13117320384E+03  0.12500013439E+03 0.  0.
          5    1    4    4  502    0 -0.12490220077E+02 -0.33108582305E+02 -0.29066622625E+02  0.46034143531E+02  0.47000000000E+01 0.  1.
         -5    1    4    4    0  502  0.14677971913E+02  0.61473254765E+02  0.56852138735E+02  0.85139060305E+02  0.47000000000E+01 0.  1.
        -11    1    3    3    0    0 -0.11937675594E+01 -0.17574674232E+02 -0.45317122513E+02  0.48620323408E+02  0.00000000000E+00 0.  1.
         11    1    3    3    0    0 -0.99398427635E+00 -0.10789998227E+02  0.45255240517E+02  0.46534383640E+02  0.00000000000E+00 0. -1.
<mgrwt>
<rscale>  0 0.11899124E+03</rscale>
<asrwt>0</asrwt>
<pdfrwt beam="1">  1        1 0.19542426E-01 0.12819662E+03</pdfrwt>
<pdfrwt beam="2">  1       -1 0.15277252E-01 0.12819662E+03</pdfrwt>
<totfact> 0.77340266E+03</totfact>
</mgrwt>
</event>
<event>
 8    1  0.1273312E-005  0.2173305E+03  0.7546771E-02  0.1139283E+00
         -2   -1    0    0    0  501 -0.00000000000E+00  0.00000000000E+00  0.14220999889E+02  0.14220999889E+02  0.00000000000E+00 0.  1.
          2   -1    0    0  501    0  0.00000000000E+00 -0.00000000000E+00 -0.40739962164E+04  0.40739962164E+04  0.00000000000E+00 0. -1.
         23    2    1    2    0    0 -0.17357516360E+03  0.38476036719E+02 -0.95020832839E+03  0.97106486788E+03  0.91991127093E+02 0.  0.
         23    2    1    2    0    0  0.17357516360E+03 -0.38476036719E+02 -0.31095668881E+04  0.31171523484E+04  0.12499515463E+03 0.  0.
          5    1    4    4  502    0  0.15309477526E+03  0.19830540325E+02 -0.20847529068E+04  0.20904659847E+04  0.47000000000E+01 0. -1.
         -5    1    4    4    0  502  0.20480388338E+02 -0.58306577044E+02 -0.10248139813E+04  0.10266863637E+04  0.47000000000E+01 0. -1.
        -11    1    3    3    0    0 -0.12983633090E+03  0.67423747803E+02 -0.64512057353E+03  0.66150131442E+03  0.00000000000E+00 0.  1.
         11    1    3    3    0    0 -0.43738832701E+02 -0.28947711084E+02 -0.30508775486E+03  0.30956355346E+03  0.00000000000E+00 0. -1.
<mgrwt>
<rscale>  0 0.21290918E+03</rscale>
<asrwt>0</asrwt>
<pdfrwt beam="2">  1        2 0.62676850E+00 0.21733047E+03</pdfrwt>
<pdfrwt beam="1">  1       -2 0.21878467E-02 0.21733047E+03</pdfrwt>
<totfact> 0.27101788E+02</totfact>
</mgrwt>
</event>
<event>
 8    1  0.1273312E-005  0.1340973E+03  0.7546771E-02  0.1239208E+00
          2   -1    0    0  501    0  0.00000000000E+00  0.00000000000E+00  0.62787766805E+03  0.62787766805E+03  0.00000000000E+00 0. -1.
         -2   -1    0    0    0  501 -0.00000000000E+00 -0.00000000000E+00 -0.23818392377E+02  0.23818392377E+02  0.00000000000E+00 0.  1.
         23    2    1    2    0    0  0.19440779620E+02 -0.44486146254E+02  0.13583617911E+03  0.16464887444E+03  0.79377724707E+02 0.  0.
         23    2    1    2    0    0 -0.19440779620E+02  0.44486146254E+02  0.46822309657E+03  0.48704718599E+03  0.12500052839E+03 0.  0.
          5    1    4    4  502    0 -0.46146768549E+02  0.29671622605E+02  0.77311123957E+02  0.94915906586E+02  0.47000000000E+01 0.  1.
         -5    1    4    4    0  502  0.26705988929E+02  0.14814523650E+02  0.39091197261E+03  0.39213127940E+03  0.47000000000E+01 0.  1.
        -11    1    3    3    0    0  0.31938687504E+02  0.10112509500E+02  0.30303325939E+02  0.45173379007E+02  0.00000000000E+00 0.  1.
         11    1    3    3    0    0 -0.12497907884E+02 -0.54598655754E+02  0.10553285317E+03  0.11947549543E+03  0.00000000000E+00 0. -1.
<mgrwt>
<rscale>  0 0.12238859E+03</rscale>
<asrwt>0</asrwt>
<pdfrwt beam="1">  1        2 0.96596552E-01 0.13409733E+03</pdfrwt>
<pdfrwt beam="2">  1       -2 0.36643685E-02 0.13409733E+03</pdfrwt>
<totfact> 0.14237748E+04</totfact>
</mgrwt>
</event>
<event>
 8    1  0.1273312E-005  0.1295947E+03  0.7546771E-02  0.1241949E+00
         -1   -1    0    0    0  501 -0.00000000000E+00  0.00000000000E+00  0.17165118968E+02  0.17165118968E+02  0.00000000000E+00 0.  1.
          1   -1    0    0  501    0  0.00000000000E+00 -0.00000000000E+00 -0.80903952161E+03  0.80903952161E+03  0.00000000000E+00 0. -1.
         23    2    1    2    0    0 -0.56485632382E+01 -0.33677193454E+02 -0.23455295734E+03  0.25401413440E+03  0.91334719857E+02 0.  0.
         23    2    1    2    0    0  0.56485632382E+01  0.33677193454E+02 -0.55732144530E+03  0.57219050618E+03  0.12501488848E+03 0.  0.
          5    1    4    4  502    0  0.63748984404E+02  0.22109319310E+02 -0.35211431779E+03  0.35855172264E+03  0.47000000000E+01 0.  1.
         -5    1    4    4    0  502 -0.58100421166E+02  0.11567874144E+02 -0.20520712751E+03  0.21363878354E+03  0.47000000000E+01 0.  1.
        -11    1    3    3    0    0  0.17211345081E+02 -0.54201659400E+02 -0.91758255215E+02  0.10795196933E+03  0.00000000000E+00 0.  1.
         11    1    3    3    0    0 -0.22859908319E+02  0.20524465946E+02 -0.14279470212E+03  0.14606216507E+03  0.00000000000E+00 0. -1.
<mgrwt>
<rscale>  0 0.12069855E+03</rscale>
<asrwt>0</asrwt>
<pdfrwt beam="2">  1        1 0.12446762E+00 0.12959468E+03</pdfrwt>
<pdfrwt beam="1">  1       -1 0.26407875E-02 0.12959468E+03</pdfrwt>
<totfact> 0.98799877E+03</totfact>
</mgrwt>
</event>
<event>
 8    1  0.1273312E-005  0.1285187E+03  0.7546771E-02  0.1243811E+00
          2   -1    0    0  501    0  0.00000000000E+00  0.00000000000E+00  0.22343962177E+03  0.22343962177E+03  0.00000000000E+00 0. -1.
         -2   -1    0    0    0  501 -0.00000000000E+00 -0.00000000000E+00 -0.61051056443E+02  0.61051056443E+02  0.00000000000E+00 0.  1.
         23    2    1    2    0    0  0.27868512836E+02  0.10728077804E+02  0.32134957442E+02  0.10150688559E+03  0.91538225189E+02 0.  0.
         23    2    1    2    0    0 -0.27868512836E+02 -0.10728077804E+02  0.13025360789E+03  0.18298379263E+03  0.12500128133E+03 0.  0.
          5    1    4    4  502    0 -0.60617908495E+02 -0.81274889910E+01  0.13610109939E+03  0.14928558592E+03  0.47000000000E+01 0.  1.
         -5    1    4    4    0  502  0.32749395659E+02 -0.26005888134E+01 -0.58474915078E+01  0.33698206705E+02  0.47000000000E+01 0.  1.
        -11    1    3    3    0    0 -0.69668550018E+01  0.15730144896E+02 -0.27396980975E+02  0.32350720141E+02  0.00000000000E+00 0.  1.
         11    1    3    3    0    0  0.34835367837E+02 -0.50020670921E+01  0.59531938417E+02  0.69156165446E+02  0.00000000000E+00 0. -1.
<mgrwt>
<rscale>  0 0.11956818E+03</rscale>
<asrwt>0</asrwt>
<pdfrwt beam="1">  1        2 0.34375326E-01 0.12851874E+03</pdfrwt>
<pdfrwt beam="2">  1       -2 0.93924704E-02 0.12851874E+03</pdfrwt>
<totfact> 0.10390473E+04</totfact>
</mgrwt>
</event>
<event>
 8    1  0.1273312E-005  0.1609710E+03  0.7546771E-02  0.1195225E+00
          2   -1    0    0  501    0  0.00000000000E+00  0.00000000000E+00  0.93399372815E+03  0.93399372815E+03  0.00000000000E+00 0. -1.
         -2   -1    0    0    0  501 -0.00000000000E+00 -0.00000000000E+00 -0.23626299741E+02  0.23626299741E+02  0.00000000000E+00 0.  1.
         23    2    1    2    0    0 -0.73363031739E+02 -0.70021620553E+02  0.42525156869E+03  0.44649473135E+03  0.90738562239E+02 0.  0.
         23    2    1    2    0    0  0.73363031739E+02  0.70021620553E+02  0.48511585972E+03  0.51112529654E+03  0.12500603843E+03 0.  0.
          5    1    4    4  502    0  0.10329306437E+02 -0.20557119310E+02  0.25280870895E+03  0.25389687483E+03  0.47000000000E+01 0.  1.
         -5    1    4    4    0  502  0.63033725301E+02  0.90578739863E+02  0.23230715077E+03  0.25722842172E+03  0.47000000000E+01 0.  1.
        -11    1    3    3    0    0 -0.20548683063E+02 -0.56206782734E+02  0.98810232140E+02  0.11552018342E+03  0.00000000000E+00 0.  1.
         11    1    3    3    0    0 -0.52814348676E+02 -0.13814837820E+02  0.32644133655E+03  0.33097454794E+03  0.00000000000E+00 0. -1.
<mgrwt>
<rscale>  0 0.15435189E+03</rscale>
<asrwt>0</asrwt>
<pdfrwt beam="1">  1        2 0.14369131E+00 0.16097103E+03</pdfrwt>
<pdfrwt beam="2">  1       -2 0.36348161E-02 0.16097103E+03</pdfrwt>
<totfact> 0.89311006E+03</totfact>
</mgrwt>
</event>
<event>
 8    1  0.1273312E-005  0.1255244E+03  0.7546771E-02  0.1250565E+00
          2   -1    0    0  501    0  0.00000000000E+00  0.00000000000E+00  0.15655774002E+03  0.15655774002E+03  0.00000000000E+00 0. -1.
         -2   -1    0    0    0  501 -0.00000000000E+00 -0.00000000000E+00 -0.82993698212E+02  0.82993698212E+02  0.00000000000E+00 0.  1.
         23    2    1    2    0    0  0.58207467106E+01 -0.98758341298E+01 -0.68120109940E+01  0.90498817670E+02  0.89511001077E+02 0.  0.
         23    2    1    2    0    0 -0.58207467106E+01  0.98758341298E+01  0.80376052799E+02  0.14905262056E+03  0.12499984256E+03 0.  0.
          5    1    4    4  502    0 -0.63611870429E+02 -0.91585425021E+01  0.43557492977E+02  0.77779779857E+02  0.47000000000E+01 0. -1.
         -5    1    4    4    0  502  0.57791123718E+02  0.19034376632E+02  0.36818559822E+02  0.71272840702E+02  0.47000000000E+01 0. -1.
        -11    1    3    3    0    0  0.22359112209E+02 -0.17290323750E+02 -0.42170083966E+02  0.50766142023E+02  0.00000000000E+00 0.  1.
         11    1    3    3    0    0 -0.16538365499E+02  0.74144896207E+01  0.35358072972E+02  0.39732675647E+02  0.00000000000E+00 0. -1.
<mgrwt>
<rscale>  0 0.11558417E+03</rscale>
<asrwt>0</asrwt>
<pdfrwt beam="1">  1        2 0.24085806E-01 0.12552440E+03</pdfrwt>
<pdfrwt beam="2">  1       -2 0.12768261E-01 0.12552440E+03</pdfrwt>
<totfact> 0.93907765E+03</totfact>
</mgrwt>
</event>
<event>
 8    1  0.1273312E-005  0.1768453E+03  0.7546771E-02  0.1175981E+00
          2   -1    0    0  501    0  0.00000000000E+00  0.00000000000E+00  0.47671962482E+03  0.47671962482E+03  0.00000000000E+00 0. -1.
         -2   -1    0    0    0  501 -0.00000000000E+00 -0.00000000000E+00 -0.58631333686E+02  0.58631333686E+02  0.00000000000E+00 0.  1.
         23    2    1    2    0    0  0.62940429283E+02  0.10810893955E+03  0.19807224001E+03  0.25307213599E+03  0.95728017352E+02 0.  0.
         23    2    1    2    0    0 -0.62940429283E+02 -0.10810893955E+03  0.22001605113E+03  0.28227882251E+03  0.12500092175E+03 0.  0.
          5    1    4    4  502    0 -0.94727324427E+02 -0.10135386476E+03  0.20119347138E+03  0.24443153401E+03  0.47000000000E+01 0.  1.
         -5    1    4    4    0  502  0.31786895145E+02 -0.67550747867E+01  0.18822579748E+02  0.37847288498E+02  0.47000000000E+01 0.  1.
        -11    1    3    3    0    0  0.73241887060E+02  0.67989450418E+02  0.80208338659E+02  0.12814178467E+03  0.00000000000E+00 0.  1.
         11    1    3    3    0    0 -0.10301457777E+02  0.40119489130E+02  0.11786390135E+03  0.12493035132E+03  0.00000000000E+00 0. -1.
<mgrwt>
<rscale>  0 0.17180266E+03</rscale>
<asrwt>0</asrwt>
<pdfrwt beam="1">  1        2 0.73341478E-01 0.17684533E+03</pdfrwt>
<pdfrwt beam="2">  1       -2 0.90202055E-02 0.17684533E+03</pdfrwt>
<totfact> 0.50173129E+03</totfact>
</mgrwt>
</event>
<event>
 8    1  0.1273312E-005  0.1991805E+03  0.7546771E-02  0.1154682E+00
         -2   -1    0    0    0  501 -0.00000000000E+00  0.00000000000E+00  0.18309870509E+03  0.18309870509E+03  0.00000000000E+00 0.  1.
          2   -1    0    0  501    0  0.00000000000E+00 -0.00000000000E+00 -0.20497041270E+03  0.20497041270E+03  0.00000000000E+00 0. -1.
         23    2    1    2    0    0  0.14206352868E+03  0.62125833668E+02  0.28984852985E+02  0.18249851984E+03  0.91781929877E+02 0.  0.
         23    2    1    2    0    0 -0.14206352868E+03 -0.62125833668E+02 -0.50856560594E+02  0.20557059795E+03  0.12502485992E+03 0.  0.
          5    1    4    4  502    0 -0.69593615307E+02 -0.45620365480E+02  0.36318166188E+02  0.90915280527E+02  0.47000000000E+01 0. -1.
         -5    1    4    4    0  502 -0.72469913375E+02 -0.16505468188E+02 -0.87174726782E+02  0.11465531743E+03  0.47000000000E+01 0. -1.
        -11    1    3    3    0    0  0.37277309178E+02  0.58445303182E+02  0.34641787317E+02  0.77495191284E+02  0.00000000000E+00 0.  1.
         11    1    3    3    0    0  0.10478621950E+03  0.36805304865E+01 -0.56569343321E+01  0.10500332856E+03  0.00000000000E+00 0. -1.
<mgrwt>
<rscale>  0 0.19425091E+03</rscale>
<asrwt>0</asrwt>
<pdfrwt beam="2">  1        2 0.31533910E-01 0.19918052E+03</pdfrwt>
<pdfrwt beam="1">  1       -2 0.28169032E-01 0.19918052E+03</pdfrwt>
<totfact> 0.18817729E+03</totfact>
</mgrwt>
</event>
<event>
 7    1  0.1273312E-005  0.3250309E+03  0.7546771E-02  0.1076641E+00
         -2   -1    0    0    0  501 -0.00000000000E+00  0.00000000000E+00  0.89669767852E+03  0.89669767852E+03  0.00000000000E+00 0.  1.
          2   -1    0    0  501    0  0.00000000000E+00 -0.00000000000E+00 -0.12868717856E+04  0.12868717856E+04  0.00000000000E+00 0. -1.
         23    2    1    2    0    0 -0.22285338992E+03 -0.17453960583E+03  0.85053807478E+03  0.90098931830E+03  0.90769089624E+02 0.  0.
          5    1    1    2  502    0  0.95837250622E+01  0.90525162669E+02 -0.45789939120E+03  0.46688392061E+03  0.47000000000E+01 0. -1.
         -5    1    1    2    0  502  0.21326966486E+03  0.84014443162E+02 -0.78281279065E+03  0.81569622520E+03  0.47000000000E+01 0.  1.
        -11    1    3    3    0    0 -0.56976642122E+02 -0.74118177561E+02  0.39474633904E+03  0.40566552007E+03  0.00000000000E+00 0.  1.
         11    1    3    3    0    0 -0.16587674780E+03 -0.10042142827E+03  0.45579173575E+03  0.49532379823E+03  0.00000000000E+00 0. -1.
<mgrwt>
<rscale>  0 0.31785543E+03</rscale>
<asrwt>0</asrwt>
<pdfrwt beam="2">  1        2 0.19798027E+00 0.32503094E+03</pdfrwt>
<pdfrwt beam="1">  1       -2 0.13795349E+00 0.32503094E+03</pdfrwt>
<totfact> 0.70086750E+00</totfact>
</mgrwt>
</event>
<event>
 8    1  0.1273312E-005  0.1265985E+03  0.7546771E-02  0.1253243E+00
         -2   -1    0    0    0  501 -0.00000000000E+00  0.00000000000E+00  0.25190563487E+02  0.25190563487E+02  0.00000000000E+00 0. -1.
          2   -1    0    0  501    0  0.00000000000E+00 -0.00000000000E+00 -0.50149762677E+03  0.50149762677E+03  0.00000000000E+00 0.  1.
         23    2    1    2    0    0 -0.83710355666E+00  0.19988373869E+02 -0.10317692186E+03  0.13266627386E+03  0.80960652067E+02 0.  0.
         23    2    1    2    0    0  0.83710355666E+00 -0.19988373869E+02 -0.37313014142E+03  0.39402191640E+03  0.12500772908E+03 0.  0.
          5    1    4    4  502    0 -0.47051745646E+02  0.26253083657E+02 -0.11023031342E+03  0.12278396950E+03  0.47000000000E+01 0. -1.
         -5    1    4    4    0  502  0.47888849202E+02 -0.46241457526E+02 -0.26289982801E+03  0.27123794690E+03  0.47000000000E+01 0. -1.
        -11    1    3    3    0    0 -0.37883188348E+02  0.18330639483E+02 -0.75340221014E+02  0.86297724220E+02  0.00000000000E+00 0. -1.
         11    1    3    3    0    0  0.37046084791E+02  0.16577343861E+01 -0.27836700844E+02  0.46368549638E+02  0.00000000000E+00 0.  1.
<mgrwt>
<rscale>  0 0.11405317E+03</rscale>
<asrwt>0</asrwt>
<pdfrwt beam="2">  1        2 0.77153480E-01 0.12659845E+03</pdfrwt>
<pdfrwt beam="1">  1       -2 0.38754714E-02 0.12659845E+03</pdfrwt>
<totfact> 0.16779956E+04</totfact>
</mgrwt>
</event>
<event>
 8    1  0.1273312E-005  0.1388527E+03  0.7546771E-02  0.1226544E+00
          2   -1    0    0  501    0  0.00000000000E+00  0.00000000000E+00  0.21643546998E+03  0.21643546998E+03  0.00000000000E+00 0. -1.
         -2   -1    0    0    0  501 -0.00000000000E+00 -0.00000000000E+00 -0.71037282266E+02  0.71037282266E+02  0.00000000000E+00 0.  1.
         23    2    1    2    0    0  0.18721626069E+02 -0.57479930044E+02  0.72132206307E+02  0.13047601283E+03  0.90368651080E+02 0.  0.
         23    2    1    2    0    0 -0.18721626069E+02  0.57479930044E+02  0.73265981408E+02  0.15699673941E+03  0.12500252203E+03 0.  0.
          5    1    4    4  502    0 -0.35530576805E+02  0.87991572442E+02  0.26771987335E+02  0.98710526363E+02  0.47000000000E+01 0. -1.
         -5    1    4    4    0  502  0.16808950737E+02 -0.30511642398E+02  0.46493994073E+02  0.58286213049E+02  0.47000000000E+01 0. -1.
        -11    1    3    3    0    0  0.47429630956E+01 -0.53644842423E+02  0.91567675058E+02  0.10623042847E+03  0.00000000000E+00 0. -1.
         11    1    3    3    0    0  0.13978662973E+02 -0.38350876211E+01 -0.19435468751E+02  0.24245584364E+02  0.00000000000E+00 0.  1.
<mgrwt>
<rscale>  0 0.13061625E+03</rscale>
<asrwt>0</asrwt>
<pdfrwt beam="1">  1        2 0.33297764E-01 0.13885270E+03</pdfrwt>
<pdfrwt beam="2">  1       -2 0.10928813E-01 0.13885270E+03</pdfrwt>
<totfact> 0.85224500E+03</totfact>
</mgrwt>
</event>
<event>
 8    1  0.1273312E-005  0.1549922E+03  0.7546771E-02  0.1201740E+00
         -1   -1    0    0    0  501 -0.00000000000E+00  0.00000000000E+00  0.51959763093E+02  0.51959763093E+02  0.00000000000E+00 0.  1.
          1   -1    0    0  501    0  0.00000000000E+00 -0.00000000000E+00 -0.40816264393E+03  0.40816264393E+03  0.00000000000E+00 0. -1.
         23    2    1    2    0    0  0.78458707911E+02 -0.47302476991E+02 -0.12660400631E+03  0.18310577354E+03  0.95424612712E+02 0.  0.
         23    2    1    2    0    0 -0.78458707911E+02  0.47302476991E+02 -0.22959887452E+03  0.27701663349E+03  0.12501711430E+03 0.  0.
          5    1    4    4  502    0 -0.10798530653E+03  0.45987984382E+02 -0.14110104040E+03  0.18359551938E+03  0.47000000000E+01 0.  1.
         -5    1    4    4    0  502  0.29526598618E+02  0.13144926089E+01 -0.88497834121E+02  0.93421114106E+02  0.47000000000E+01 0.  1.
        -11    1    3    3    0    0  0.76570038008E+02 -0.26363578996E+02 -0.13738699189E+03  0.15947788109E+03  0.00000000000E+00 0. -1.
         11    1    3    3    0    0  0.18886699032E+01 -0.20938897995E+02  0.10782985577E+02  0.23627892441E+02  0.00000000000E+00 0.  1.
<mgrwt>
<rscale>  0 0.14897364E+03</rscale>
<asrwt>0</asrwt>
<pdfrwt beam="2">  1        1 0.62794254E-01 0.15499217E+03</pdfrwt>
<pdfrwt beam="1">  1       -1 0.79938096E-02 0.15499217E+03</pdfrwt>
<totfact> 0.49297994E+03</totfact>
</mgrwt>
</event>
<event>
 8    1  0.1273312E-005  0.1444270E+03  0.7546771E-02  0.1217212E+00
         -4   -1    0    0    0  501 -0.00000000000E+00  0.00000000000E+00  0.23296601423E+02  0.23296601423E+02  0.00000000000E+00 0.  1.
          4   -1    0    0  501    0  0.00000000000E+00 -0.00000000000E+00 -0.73793885410E+03  0.73793885410E+03  0.00000000000E+00 0. -1.
         23    2    1    2    0    0 -0.43177041197E+01 -0.72215243662E+02 -0.34018014261E+03  0.35988643596E+03  0.92531256207E+02 0.  0.
         23    2    1    2    0    0  0.43177041197E+01  0.72215243662E+02 -0.37446211007E+03  0.40134901956E+03  0.12500191856E+03 0.  0.
          5    1    4    4  502    0 -0.13664753401E+02 -0.32747271215E+02 -0.12601844014E+03  0.13100323092E+03  0.47000000000E+01 0. -1.
         -5    1    4    4    0  502  0.17982457521E+02  0.10496251488E+03 -0.24844366993E+03  0.27034578864E+03  0.47000000000E+01 0. -1.
        -11    1    3    3    0    0 -0.38558797403E+02 -0.73456107525E+02 -0.25072116677E+03  0.26409029527E+03  0.00000000000E+00 0.  1.
         11    1    3    3    0    0  0.34241093284E+02  0.12408638630E+01 -0.89458975841E+02  0.95796140689E+02  0.00000000000E+00 0. -1.
<mgrwt>
<rscale>  0 0.13715270E+03</rscale>
<asrwt>0</asrwt>
<pdfrwt beam="2">  1        4 0.11352904E+00 0.14442702E+03</pdfrwt>
<pdfrwt beam="1">  1       -4 0.35840930E-02 0.14442702E+03</pdfrwt>
<totfact> 0.43466677E+02</totfact>
</mgrwt>
</event>
<event>
 7    1  0.1273312E-005  0.6118737E+03  0.7546771E-02  0.9881074E-01
          2   -1    0    0  501    0  0.00000000000E+00  0.00000000000E+00  0.11938075392E+04  0.11938075392E+04  0.00000000000E+00 0. -1.
         -2   -1    0    0    0  501 -0.00000000000E+00 -0.00000000000E+00 -0.78402383389E+02  0.78402383389E+02  0.00000000000E+00 0.  1.
         23    2    1    2    0    0  0.31499271356E+02  0.18162905162E+02  0.19108620094E+03  0.21571914318E+03  0.93266914414E+02 0.  0.
          5    1    1    2  502    0 -0.24847350132E+03 -0.51462615574E+02  0.69087480500E+03  0.73601465192E+03  0.47000000000E+01 0. -1.
         -5    1    1    2    0  502  0.21697422997E+03  0.33299710411E+02  0.23344414989E+03  0.32047612751E+03  0.47000000000E+01 0.  1.
        -11    1    3    3    0    0  0.60180616571E+02  0.12305156724E+02  0.80122666794E+02  0.10095922557E+03  0.00000000000E+00 0.  1.
         11    1    3    3    0    0 -0.28681345216E+02  0.58577484388E+01  0.11096353414E+03  0.11475991761E+03  0.00000000000E+00 0. -1.
<mgrwt>
<rscale>  0 0.61187370E+03</rscale>
<asrwt>0</asrwt>
<pdfrwt beam="1">  1        2 0.18366269E+00 0.61187370E+03</pdfrwt>
<pdfrwt beam="2">  1       -2 0.12061906E-01 0.61187370E+03</pdfrwt>
<totfact> 0.97503556E+02</totfact>
</mgrwt>
</event>
<event>
 8    1  0.1273312E-005  0.1281596E+03  0.7546771E-02  0.1244583E+00
         -1   -1    0    0    0  501 -0.00000000000E+00  0.00000000000E+00  0.42252690421E+02  0.42252690421E+02  0.00000000000E+00 0.  1.
          1   -1    0    0  501    0  0.00000000000E+00 -0.00000000000E+00 -0.56277368518E+03  0.56277368518E+03  0.00000000000E+00 0. -1.
         23    2    1    2    0    0 -0.25661822135E+02 -0.11895844262E+02 -0.33299461338E+02  0.10123107369E+03  0.91317226903E+02 0.  0.
         23    2    1    2    0    0  0.25661822135E+02  0.11895844262E+02 -0.48722153342E+03  0.50379530191E+03  0.12499937349E+03 0.  0.
          5    1    4    4  502    0 -0.39866657443E+02  0.38415350916E+02 -0.17376621701E+03  0.18243321446E+03  0.47000000000E+01 0.  1.
         -5    1    4    4    0  502  0.65528479577E+02 -0.26519506655E+02 -0.31345531641E+03  0.32136208746E+03  0.47000000000E+01 0.  1.
        -11    1    3    3    0    0  0.84139536298E+01 -0.40736858380E+02  0.56587802636E+01  0.41979852792E+02  0.00000000000E+00 0.  1.
         11    1    3    3    0    0 -0.34075775765E+02  0.28841014118E+02 -0.38958241601E+02  0.59251220899E+02  0.00000000000E+00 0. -1.
<mgrwt>
<rscale>  0 0.11910362E+03</rscale>
<asrwt>0</asrwt>
<pdfrwt beam="2">  1        1 0.86580569E-01 0.12815960E+03</pdfrwt>
<pdfrwt beam="1">  1       -1 0.65004137E-02 0.12815960E+03</pdfrwt>
<totfact> 0.43916525E+03</totfact>
</mgrwt>
</event>
<event>
 8    1  0.1273312E-005  0.1373052E+03  0.7546771E-02  0.1227150E+00
          1   -1    0    0  501    0  0.00000000000E+00  0.00000000000E+00  0.12862061725E+04  0.12862061725E+04  0.00000000000E+00 0. -1.
         -1   -1    0    0    0  501 -0.00000000000E+00 -0.00000000000E+00 -0.27278070433E+02  0.27278070433E+02  0.00000000000E+00 0.  1.
         23    2    1    2    0    0 -0.17829877751E+02  0.53903249682E+02  0.10971293222E+03  0.15609570090E+03  0.95422615120E+02 0.  0.
         23    2    1    2    0    0  0.17829877751E+02 -0.53903249682E+02  0.11492151698E+04  0.11573885420E+04  0.12501706185E+03 0.  0.
          5    1    4    4  502    0 -0.39937947233E+02 -0.27736939548E+02  0.85428308285E+03  0.85567870904E+03  0.47000000000E+01 0.  1.
         -5    1    4    4    0  502  0.57767824984E+02 -0.26166310133E+02  0.29493208698E+03  0.30170983298E+03  0.47000000000E+01 0.  1.
        -11    1    3    3    0    0  0.14067327314E+02  0.15863933011E+01 -0.12818566603E+02  0.19097695966E+02  0.00000000000E+00 0.  1.
         11    1    3    3    0    0 -0.31897205064E+02  0.52316856381E+02  0.12253149882E+03  0.13699800493E+03  0.00000000000E+00 0. -1.
<mgrwt>
<rscale>  0 0.13020602E+03</rscale>
<asrwt>0</asrwt>
<pdfrwt beam="1">  1        1 0.19787783E+00 0.13730525E+03</pdfrwt>
<pdfrwt beam="2">  1       -1 0.41966272E-02 0.13730525E+03</pdfrwt>
<totfact> 0.22701557E+03</totfact>
</mgrwt>
</event>
<event>
 8    1  0.1273312E-005  0.1405399E+03  0.7546771E-02  0.1222484E+00
          1   -1    0    0  501    0  0.00000000000E+00  0.00000000000E+00  0.92696310295E+02  0.92696310295E+02  0.00000000000E+00 0. -1.
         -1   -1    0    0    0  501 -0.00000000000E+00 -0.00000000000E+00 -0.18614810255E+03  0.18614810255E+03  0.00000000000E+00 0.  1.
         23    2    1    2    0    0  0.59502935345E+02  0.24212396335E+02 -0.76276468792E+02  0.13725891465E+03  0.94313681451E+02 0.  0.
         23    2    1    2    0    0 -0.59502935345E+02 -0.24212396335E+02 -0.17175323467E+02  0.14158549820E+03  0.12499848844E+03 0.  0.
          5    1    4    4  502    0 -0.53942415685E+02 -0.71437658759E+02 -0.25243380512E+02  0.93125944605E+02  0.47000000000E+01 0.  1.
         -5    1    4    4    0  502 -0.55605196602E+01  0.47225262424E+02  0.80680570446E+01  0.48459553592E+02  0.47000000000E+01 0.  1.
        -11    1    3    3    0    0  0.38308227402E+02  0.53686745740E+02 -0.76433732933E+02  0.10095495275E+03  0.00000000000E+00 0.  1.
         11    1    3    3    0    0  0.21194707943E+02 -0.29474349405E+02  0.15726414127E+00  0.36303961900E+02  0.00000000000E+00 0. -1.
<mgrwt>
<rscale>  0 0.13340867E+03</rscale>
<asrwt>0</asrwt>
<pdfrwt beam="1">  1        1 0.14260971E-01 0.14053989E+03</pdfrwt>
<pdfrwt beam="2">  1       -1 0.28638170E-01 0.14053989E+03</pdfrwt>
<totfact> 0.42307745E+03</totfact>
</mgrwt>
</event>
<event>
 8    1  0.1273312E-005  0.2008872E+03  0.7546771E-02  0.1153283E+00
          1   -1    0    0  501    0  0.00000000000E+00  0.00000000000E+00  0.75836604874E+02  0.75836604874E+02  0.00000000000E+00 0. -1.
         -1   -1    0    0    0  501 -0.00000000000E+00 -0.00000000000E+00 -0.52347201332E+03  0.52347201332E+03  0.00000000000E+00 0.  1.
         23    2    1    2    0    0 -0.15034767785E+03  0.46112724440E+02 -0.29757909948E+03  0.34856457532E+03  0.90626348994E+02 0.  0.
         23    2    1    2    0    0  0.15034767785E+03 -0.46112724440E+02 -0.15005630897E+03  0.25074404288E+03  0.12499948635E+03 0.  0.
          5    1    4    4  502    0  0.12951554346E+03 -0.23476308611E+02 -0.41921982120E+02  0.13822067736E+03  0.47000000000E+01 0.  1.
         -5    1    4    4    0  502  0.20832134385E+02 -0.22636415829E+02 -0.10813432685E+03  0.11252336552E+03  0.47000000000E+01 0.  1.
        -11    1    3    3    0    0 -0.20559608500E+02  0.27278054582E+02 -0.15544616904E+02  0.37528987172E+02  0.00000000000E+00 0. -1.
         11    1    3    3    0    0 -0.12978806935E+03  0.18834669858E+02 -0.28203448257E+03  0.31103558815E+03  0.00000000000E+00 0.  1.
<mgrwt>
<rscale>  0 0.19585569E+03</rscale>
<asrwt>0</asrwt>
<pdfrwt beam="1">  1        1 0.11667170E-01 0.20088723E+03</pdfrwt>
<pdfrwt beam="2">  1       -1 0.80534159E-01 0.20088723E+03</pdfrwt>
<totfact> 0.83515779E+02</totfact>
</mgrwt>
</event>
<event>
 7    1  0.1273312E-005  0.2427334E+03  0.7546771E-02  0.1133514E+00
          1   -1    0    0  501    0  0.00000000000E+00  0.00000000000E+00  0.63480340896E+03  0.63480340896E+03  0.00000000000E+00 0. -1.
         -1   -1    0    0    0  501 -0.00000000000E+00 -0.00000000000E+00 -0.65815002727E+02  0.65815002727E+02  0.00000000000E+00 0.  1.
         23    2    1    2    0    0 -0.13385834457E+03  0.38176723046E+02  0.20933536222E+03  0.26671769816E+03  0.89115195335E+02 0.  0.
          5    1    1    2  502    0  0.81833846074E+02  0.78804753501E+02  0.18795826872E+03  0.21967559791E+03  0.47000000000E+01 0. -1.
         -5    1    1    2    0  502  0.52024498500E+02 -0.11698147655E+03  0.17169477529E+03  0.21422511562E+03  0.47000000000E+01 0.  1.
        -11    1    3    3    0    0 -0.11802802910E+03  0.64512310368E+02  0.16799860224E+03  0.21521148714E+03  0.00000000000E+00 0.  1.
         11    1    3    3    0    0 -0.15830315471E+02 -0.26335587322E+02  0.41336759980E+02  0.51506211015E+02  0.00000000000E+00 0. -1.
<mgrwt>
<rscale>  0 0.22049634E+03</rscale>
<asrwt>0</asrwt>
<pdfrwt beam="1">  1        1 0.97662059E-01 0.24273343E+03</pdfrwt>
<pdfrwt beam="2">  1       -1 0.10125385E-01 0.24273343E+03</pdfrwt>
<totfact> 0.19360278E+03</totfact>
</mgrwt>
</event>
<event>
 8    1  0.1273312E-005  0.2320668E+03  0.7546771E-02  0.1128060E+00
         -2   -1    0    0    0  501 -0.00000000000E+00  0.00000000000E+00  0.47647883491E+02  0.47647883491E+02  0.00000000000E+00 0. -1.
          2   -1    0    0  501    0  0.00000000000E+00 -0.00000000000E+00 -0.10543412575E+04  0.10543412575E+04  0.00000000000E+00 0.  1.
         23    2    1    2    0    0 -0.94559724565E+02  0.17113694216E+03 -0.48195485340E+03  0.52822480879E+03  0.92258188922E+02 0.  0.
         23    2    1    2    0    0  0.94559724565E+02 -0.17113694216E+03 -0.52473852061E+03  0.57376433220E+03  0.12500239762E+03 0.  0.
          5    1    4    4  502    0  0.72449305189E+02 -0.18950545510E+03 -0.45990163801E+03  0.50268561346E+03  0.47000000000E+01 0.  1.
         -5    1    4    4    0  502  0.22110419376E+02  0.18368512937E+02 -0.64836882596E+02  0.71078718737E+02  0.47000000000E+01 0.  1.
        -11    1    3    3    0    0 -0.46066988978E+02  0.11392027652E+03 -0.39356293185E+03  0.41230059205E+03  0.00000000000E+00 0.  1.
         11    1    3    3    0    0 -0.48492735587E+02  0.57216665644E+02 -0.88391921544E+02  0.11592421674E+03  0.00000000000E+00 0. -1.
<mgrwt>
<rscale>  0 0.22799323E+03</rscale>
<asrwt>0</asrwt>
<pdfrwt beam="2">  1        2 0.16220636E+00 0.23206679E+03</pdfrwt>
<pdfrwt beam="1">  1       -2 0.73304431E-02 0.23206679E+03</pdfrwt>
<totfact> 0.26303264E+03</totfact>
</mgrwt>
</event>
<event>
 8    1  0.1273312E-005  0.1325164E+03  0.7546771E-02  0.1237294E+00
         -2   -1    0    0    0  501 -0.00000000000E+00  0.00000000000E+00  0.68098724689E+02  0.68098724689E+02  0.00000000000E+00 0.  1.
          2   -1    0    0  501    0  0.00000000000E+00 -0.00000000000E+00 -0.20473035512E+03  0.20473035512E+03  0.00000000000E+00 0. -1.
         23    2    1    2    0    0  0.40198598281E+02  0.17890281438E+02 -0.36314663071E+02  0.10662413306E+03  0.90077530619E+02 0.  0.
         23    2    1    2    0    0 -0.40198598281E+02 -0.17890281438E+02 -0.10031696736E+03  0.16620494676E+03  0.12499840364E+03 0.  0.
          5    1    4    4  502    0 -0.66931694300E+02  0.29371900114E+02 -0.35121853314E+02  0.81229273039E+02  0.47000000000E+01 0.  1.
         -5    1    4    4    0  502  0.26733096019E+02 -0.47262181551E+02 -0.65195114050E+02  0.84975673717E+02  0.47000000000E+01 0.  1.
        -11    1    3    3    0    0  0.36096542741E+02  0.48459042940E+02 -0.19621178614E+01  0.60457333277E+02  0.00000000000E+00 0.  1.
         11    1    3    3    0    0  0.41020555398E+01 -0.30568761502E+02 -0.34352545210E+02  0.46166799779E+02  0.00000000000E+00 0. -1.
<mgrwt>
<rscale>  0 0.12358696E+03</rscale>
<asrwt>0</asrwt>
<pdfrwt beam="2">  1        2 0.31496978E-01 0.13251638E+03</pdfrwt>
<pdfrwt beam="1">  1       -2 0.10476727E-01 0.13251638E+03</pdfrwt>
<totfact> 0.96396917E+03</totfact>
</mgrwt>
</event>
<event>
 8    1  0.1273312E-005  0.1487024E+03  0.7546771E-02  0.1211274E+00
          1   -1    0    0  501    0  0.00000000000E+00  0.00000000000E+00  0.89670519437E+02  0.89670519437E+02  0.00000000000E+00 0. -1.
         -1   -1    0    0    0  501 -0.00000000000E+00 -0.00000000000E+00 -0.29582693572E+03  0.29582693572E+03  0.00000000000E+00 0.  1.
         23    2    1    2    0    0  0.35764009117E+02  0.72169005980E+02 -0.20287578895E+03  0.23675885239E+03  0.91699174854E+02 0.  0.
         23    2    1    2    0    0 -0.35764009117E+02 -0.72169005980E+02 -0.32806273348E+01  0.14873860277E+03  0.12499991867E+03 0.  0.
          5    1    4    4  502    0  0.82453623408E+00 -0.87620761494E+02 -0.38143388787E+02  0.95682212626E+02  0.47000000000E+01 0.  1.
         -5    1    4    4    0  502 -0.36588545351E+02  0.15451755514E+02  0.34862761452E+02  0.53056390147E+02  0.47000000000E+01 0.  1.
        -11    1    3    3    0    0  0.12018064746E+02  0.88322271775E+02 -0.17665925026E+03  0.19787306101E+03  0.00000000000E+00 0. -1.
         11    1    3    3    0    0  0.23745944371E+02 -0.16153265795E+02 -0.26216538690E+02  0.38885791374E+02  0.00000000000E+00 0.  1.
<mgrwt>
<rscale>  0 0.14153793E+03</rscale>
<asrwt>0</asrwt>
<pdfrwt beam="1">  1        1 0.13795465E-01 0.14870242E+03</pdfrwt>
<pdfrwt beam="2">  1       -1 0.45511835E-01 0.14870242E+03</pdfrwt>
<totfact> 0.19882944E+03</totfact>
</mgrwt>
</event>
<event>
 7    1  0.1273312E-005  0.3548727E+03  0.7546771E-02  0.1060633E+00
          2   -1    0    0  501    0  0.00000000000E+00  0.00000000000E+00  0.12771304670E+04  0.12771304670E+04  0.00000000000E+00 0. -1.
         -2   -1    0    0    0  501 -0.00000000000E+00 -0.00000000000E+00 -0.24651878983E+02  0.24651878983E+02  0.00000000000E+00 0.  1.
         23    2    1    2    0    0  0.55095048864E+02  0.22215832096E+02  0.19052092309E+03  0.21925177274E+03  0.90797082060E+02 0.  0.
          5    1    1    2  502    0 -0.77752568540E+02  0.45335371798E+00  0.10410841636E+04  0.10439942496E+04  0.47000000000E+01 0. -1.
         -5    1    1    2    0  502  0.22657519676E+02 -0.22669185814E+02  0.20873501306E+02  0.38536323646E+02  0.47000000000E+01 0.  1.
        -11    1    3    3    0    0 -0.12971545240E+02 -0.13030394713E+02  0.95079384046E+02  0.96840804638E+02  0.00000000000E+00 0. -1.
         11    1    3    3    0    0  0.68066594104E+02  0.35246226809E+02  0.95441539041E+02  0.12241096810E+03  0.00000000000E+00 0.  1.
<mgrwt>
<rscale>  0 0.35487274E+03</rscale>
<asrwt>0</asrwt>
<pdfrwt beam="1">  1        2 0.19648156E+00 0.35487274E+03</pdfrwt>
<pdfrwt beam="2">  1       -2 0.37925978E-02 0.35487274E+03</pdfrwt>
<totfact> 0.54020529E+03</totfact>
</mgrwt>
</event>
<event>
 8    1  0.1273312E-005  0.1729976E+03  0.7546771E-02  0.1181038E+00
         -2   -1    0    0    0  501 -0.00000000000E+00  0.00000000000E+00  0.36774389678E+02  0.36774389678E+02  0.00000000000E+00 0.  1.
          2   -1    0    0  501    0  0.00000000000E+00 -0.00000000000E+00 -0.88925277900E+03  0.88925277900E+03  0.00000000000E+00 0. -1.
         23    2    1    2    0    0  0.58080371925E+02 -0.10454426241E+03 -0.19463199456E+03  0.24581391987E+03  0.90774652245E+02 0.  0.
         23    2    1    2    0    0 -0.58080371925E+02  0.10454426241E+03 -0.65784639476E+03  0.68021324880E+03  0.12500140939E+03 0.  0.
          5    1    4    4  502    0 -0.36072029531E+02 -0.16798610359E+02 -0.81687816500E+02  0.90985570224E+02  0.47000000000E+01 0. -1.
         -5    1    4    4    0  502 -0.22008342394E+02  0.12134287276E+03 -0.57615857826E+03  0.58922767858E+03  0.47000000000E+01 0. -1.
        -11    1    3    3    0    0  0.41630162845E+02 -0.40107151436E+02 -0.23838301184E+02  0.62529342378E+02  0.00000000000E+00 0.  1.
         11    1    3    3    0    0  0.16450209079E+02 -0.64437110969E+02 -0.17079369338E+03  0.18328457749E+03  0.00000000000E+00 0. -1.
<mgrwt>
<rscale>  0 0.16697686E+03</rscale>
<asrwt>0</asrwt>
<pdfrwt beam="2">  1        2 0.13680811E+00 0.17299764E+03</pdfrwt>
<pdfrwt beam="1">  1       -2 0.56575989E-02 0.17299764E+03</pdfrwt>
<totfact> 0.49180096E+03</totfact>
</mgrwt>
</event>
<event>
 8    1  0.1273312E-005  0.2904526E+03  0.7546771E-02  0.1091967E+00
         -2   -1    0    0    0  501 -0.00000000000E+00  0.00000000000E+00  0.17591211207E+03  0.17591211207E+03  0.00000000000E+00 0.  1.
          2   -1    0    0  501    0  0.00000000000E+00 -0.00000000000E+00 -0.47388424384E+03  0.47388424384E+03  0.00000000000E+00 0. -1.
         23    2    1    2    0    0  0.22574803939E+03 -0.13333484402E+03 -0.84089158747E+02  0.28909061737E+03  0.88102443299E+02 0.  0.
         23    2    1    2    0    0 -0.22574803939E+03  0.13333484402E+03 -0.21388297303E+03  0.36070573854E+03  0.12498938253E+03 0.  0.
          5    1    4    4  502    0 -0.18596577679E+03  0.78667284422E+02 -0.93524550233E+02  0.22257749947E+03  0.47000000000E+01 0.  1.
         -5    1    4    4    0  502 -0.39782262599E+02  0.54667559601E+02 -0.12035842280E+03  0.13812823907E+03  0.47000000000E+01 0.  1.
        -11    1    3    3    0    0  0.12813679451E+03 -0.82434502400E+02 -0.30503274817E+01  0.15239353592E+03  0.00000000000E+00 0.  1.
         11    1    3    3    0    0  0.97611244882E+02 -0.50900341623E+02 -0.81038831265E+02  0.13669708145E+03  0.00000000000E+00 0. -1.
<mgrwt>
<rscale>  0 0.28692330E+03</rscale>
<asrwt>0</asrwt>
<pdfrwt beam="2">  1        2 0.72905268E-01 0.29045258E+03</pdfrwt>
<pdfrwt beam="1">  1       -2 0.27063402E-01 0.29045258E+03</pdfrwt>
<totfact> 0.81786599E+02</totfact>
</mgrwt>
</event>
<event>
 7    1  0.1273312E-005  0.2415872E+03  0.7546771E-02  0.1118740E+00
         -2   -1    0    0    0  501 -0.00000000000E+00  0.00000000000E+00  0.23017120414E+02  0.23017120414E+02  0.00000000000E+00 0.  1.
          2   -1    0    0  501    0  0.00000000000E+00 -0.00000000000E+00 -0.63392372023E+03  0.63392372023E+03  0.00000000000E+00 0. -1.
         23    2    1    2    0    0  0.81951446505E+01  0.27525219810E+02 -0.14301937556E+03  0.16994826015E+03  0.87195591749E+02 0.  0.
          5    1    1    2  502    0 -0.27690376667E+02 -0.40078284625E+02 -0.45918278408E+03  0.46178343956E+03  0.47000000000E+01 0. -1.
         -5    1    1    2    0  502  0.19495232017E+02  0.12553064815E+02 -0.87044401698E+01  0.25209140928E+02  0.47000000000E+01 0.  1.
        -11    1    3    3    0    0  0.23655435737E+00 -0.13487065796E+02  0.63049320989E+01  0.14889898271E+02  0.00000000000E+00 0. -1.
         11    1    3    3    0    0  0.79585902931E+01  0.41012285606E+02 -0.14932430766E+03  0.15505836188E+03  0.00000000000E+00 0.  1.
<mgrwt>
<rscale>  0 0.24158724E+03</rscale>
<asrwt>0</asrwt>
<pdfrwt beam="2">  1        2 0.97526732E-01 0.24158724E+03</pdfrwt>
<pdfrwt beam="1">  1       -2 0.35410952E-02 0.24158724E+03</pdfrwt>
<totfact> 0.15420846E+04</totfact>
</mgrwt>
</event>
<event>
 8    1  0.1273312E-005  0.1425440E+03  0.7546771E-02  0.1220533E+00
          2   -1    0    0  501    0  0.00000000000E+00  0.00000000000E+00  0.54183337330E+03  0.54183337330E+03  0.00000000000E+00 0. -1.
         -2   -1    0    0    0  501 -0.00000000000E+00 -0.00000000000E+00 -0.37812496088E+02  0.37812496088E+02  0.00000000000E+00 0.  1.
         23    2    1    2    0    0 -0.66441255577E+02  0.16449205219E+02  0.10133143410E+03  0.15247193290E+03  0.91074771422E+02 0.  0.
         23    2    1    2    0    0  0.66441255577E+02 -0.16449205219E+02  0.40268944311E+03  0.42717393649E+03  0.12503506560E+03 0.  0.
          5    1    4    4  502    0  0.59429102971E+02 -0.89992993002E+01  0.62648700771E+02  0.86946853745E+02  0.47000000000E+01 0.  1.
         -5    1    4    4    0  502  0.70121526062E+01 -0.74499059183E+01  0.34004074234E+03  0.34022708275E+03  0.47000000000E+01 0.  1.
        -11    1    3    3    0    0 -0.37967354373E+02 -0.31456171828E+02  0.18548878704E+02  0.52678948787E+02  0.00000000000E+00 0.  1.
         11    1    3    3    0    0 -0.28473901205E+02  0.47905377046E+02  0.82782555396E+02  0.99792984111E+02  0.00000000000E+00 0. -1.
<mgrwt>
<rscale>  0 0.13477813E+03</rscale>
<asrwt>0</asrwt>
<pdfrwt beam="1">  1        2 0.83358975E-01 0.14254397E+03</pdfrwt>
<pdfrwt beam="2">  1       -2 0.58173075E-02 0.14254397E+03</pdfrwt>
<totfact> 0.84572291E+03</totfact>
</mgrwt>
</event>
<event>
 8    1  0.1273312E-005  0.1316872E+03  0.7546771E-02  0.1237092E+00
          1   -1    0    0  501    0  0.00000000000E+00  0.00000000000E+00  0.22410074054E+03  0.22410074054E+03  0.00000000000E+00 0. -1.
         -1   -1    0    0    0  501 -0.00000000000E+00 -0.00000000000E+00 -0.64286724713E+02  0.64286724713E+02  0.00000000000E+00 0.  1.
         23    2    1    2    0    0  0.33842486039E+01  0.41327669595E+02  0.39204618354E+02  0.10981491577E+03  0.93823686836E+02 0.  0.
         23    2    1    2    0    0 -0.33842486039E+01 -0.41327669595E+02  0.12060939748E+03  0.17857254949E+03  0.12498839650E+03 0.  0.
          5    1    4    4  502    0  0.11239280827E+01  0.29176327523E+02 -0.89754547183E+01  0.30905826141E+02  0.47000000000E+01 0.  1.
         -5    1    4    4    0  502 -0.45081766866E+01 -0.70503997117E+02  0.12958485219E+03  0.14766672335E+03  0.47000000000E+01 0.  1.
        -11    1    3    3    0    0  0.12142372679E+02  0.62875841079E+02 -0.22256523700E+00  0.64037942979E+02  0.00000000000E+00 0.  1.
         11    1    3    3    0    0 -0.87581240749E+01 -0.21548171484E+02  0.39427183591E+02  0.45776972787E+02  0.00000000000E+00 0. -1.
<mgrwt>
<rscale>  0 0.12371480E+03</rscale>
<asrwt>0</asrwt>
<pdfrwt beam="1">  1        1 0.34477037E-01 0.13168724E+03</pdfrwt>
<pdfrwt beam="2">  1       -1 0.98902654E-02 0.13168724E+03</pdfrwt>
<totfact> 0.74514383E+03</totfact>
</mgrwt>
</event>
<event>
 8    1  0.1273312E-005  0.1478453E+03  0.7546771E-02  0.1212835E+00
          1   -1    0    0  501    0  0.00000000000E+00  0.00000000000E+00  0.21513326262E+04  0.21513326262E+04  0.00000000000E+00 0. -1.
         -1   -1    0    0    0  501 -0.00000000000E+00 -0.00000000000E+00 -0.10021207054E+02  0.10021207054E+02  0.00000000000E+00 0.  1.
         23    2    1    2    0    0 -0.76723631024E+02 -0.18635074299E+02  0.53840492726E+03  0.55164346829E+03  0.90536560892E+02 0.  0.
         23    2    1    2    0    0  0.76723631024E+02  0.18635074299E+02  0.16029064919E+04  0.16097103650E+04  0.12499782314E+03 0.  0.
          5    1    4    4  502    0  0.20794163395E+02  0.65046694824E+02  0.54171469381E+03  0.54602231569E+03  0.47000000000E+01 0. -1.
         -5    1    4    4    0  502  0.55929467629E+02 -0.46411620525E+02  0.10611917981E+04  0.10636880493E+04  0.47000000000E+01 0. -1.
        -11    1    3    3    0    0 -0.61305040093E+02  0.29232307202E+02  0.25948541911E+03  0.26822661772E+03  0.00000000000E+00 0.  1.
         11    1    3    3    0    0 -0.15418590931E+02 -0.47867381502E+02  0.27891950816E+03  0.28341685057E+03  0.00000000000E+00 0. -1.
<mgrwt>
<rscale>  0 0.14036745E+03</rscale>
<asrwt>0</asrwt>
<pdfrwt beam="1">  1        1 0.33097388E+00 0.14784532E+03</pdfrwt>
<pdfrwt beam="2">  1       -1 0.15417259E-02 0.14784532E+03</pdfrwt>
<totfact> 0.26969804E+03</totfact>
</mgrwt>
</event>
<event>
 8    1  0.1273312E-005  0.1932992E+03  0.7546771E-02  0.1160195E+00
         -1   -1    0    0    0  501 -0.00000000000E+00  0.00000000000E+00  0.10644373718E+03  0.10644373718E+03  0.00000000000E+00 0.  1.
          1   -1    0    0  501    0  0.00000000000E+00 -0.00000000000E+00 -0.32601456452E+03  0.32601456452E+03  0.00000000000E+00 0. -1.
         23    2    1    2    0    0 -0.43300380306E+02  0.14094071524E+03 -0.14251778181E+03  0.22436757687E+03  0.91050992703E+02 0.  0.
         23    2    1    2    0    0  0.43300380306E+02 -0.14094071524E+03 -0.77053045531E+02  0.20809072483E+03  0.12500147914E+03 0.  0.
          5    1    4    4  502    0  0.42417451640E+02 -0.88960193032E+02  0.17383992261E+02  0.10018707170E+03  0.47000000000E+01 0.  1.
         -5    1    4    4    0  502  0.88292866529E+00 -0.51980522207E+02 -0.94437037793E+02  0.10790365313E+03  0.47000000000E+01 0.  1.
        -11    1    3    3    0    0 -0.90449421691E+01  0.10087894305E+03 -0.13839265293E+03  0.17149605977E+03  0.00000000000E+00 0. -1.
         11    1    3    3    0    0 -0.34255438137E+02  0.40061772187E+02 -0.41251288801E+01  0.52871517105E+02  0.00000000000E+00 0.  1.
<mgrwt>
<rscale>  0 0.18809014E+03</rscale>
<asrwt>0</asrwt>
<pdfrwt beam="2">  1        1 0.50156086E-01 0.19329919E+03</pdfrwt>
<pdfrwt beam="1">  1       -1 0.16375960E-01 0.19329919E+03</pdfrwt>
<totfact> 0.21740085E+03</totfact>
</mgrwt>
</event>
<event>
 7    1  0.1273312E-005  0.1411224E+03  0.7546771E-02  0.1232178E+00
         -1   -1    0    0    0  501 -0.00000000000E+00  0.00000000000E+00  0.29932625436E+03  0.29932625436E+03  0.00000000000E+00 0.  1.
          1   -1    0    0  501    0  0.00000000000E+00 -0.00000000000E+00 -0.64639653068E+02  0.64639653068E+02  0.00000000000E+00 0. -1.
         23    2    1    2    0    0  0.61946803630E+01  0.86619743726E+01  0.19761430385E+03  0.21805540827E+03  0.91560603578E+02 0.  0.
          5    1    1    2  502    0  0.22183792412E+02 -0.42876047500E+02 -0.35894634069E+02  0.60340623546E+02  0.47000000000E+01 0. -1.
         -5    1    1    2    0  502 -0.28378472775E+02  0.34214073127E+02  0.72966931513E+02  0.85569875607E+02  0.47000000000E+01 0.  1.
        -11    1    3    3    0    0  0.42260231705E+02 -0.10169699000E+02  0.14600174144E+03  0.15233469225E+03  0.00000000000E+00 0.  1.
         11    1    3    3    0    0 -0.36065551342E+02  0.18831673372E+02  0.51612562411E+02  0.65720716021E+02  0.00000000000E+00 0. -1.
<mgrwt>
<rscale>  0 0.12686840E+03</rscale>
<asrwt>0</asrwt>
<pdfrwt beam="2">  1        1 0.99445622E-02 0.14112235E+03</pdfrwt>
<pdfrwt beam="1">  1       -1 0.46050192E-01 0.14112235E+03</pdfrwt>
<totfact> 0.29880265E+03</totfact>
</mgrwt>
</event>
<event>
 8    1  0.1273312E-005  0.2287190E+03  0.7546771E-02  0.1130478E+00
         -2   -1    0    0    0  501 -0.00000000000E+00  0.00000000000E+00  0.76215176731E+02  0.76215176731E+02  0.00000000000E+00 0.  1.
          2   -1    0    0  501    0  0.00000000000E+00 -0.00000000000E+00 -0.13209616528E+04  0.13209616528E+04  0.00000000000E+00 0. -1.
         23    2    1    2    0    0 -0.59558106669E+02  0.18204102521E+03 -0.10987627193E+03  0.23948828014E+03  0.92713204347E+02 0.  0.
         23    2    1    2    0    0  0.59558106669E+02 -0.18204102521E+03 -0.11348702042E+04  0.11576885494E+04  0.12500517685E+03 0.  0.
          5    1    4    4  502    0  0.56091436361E+02 -0.14303675034E+02 -0.21919834232E+03  0.22676165378E+03  0.47000000000E+01 0.  1.
         -5    1    4    4    0  502  0.34666703073E+01 -0.16773735017E+03 -0.91567186187E+03  0.93092689566E+03  0.47000000000E+01 0.  1.
        -11    1    3    3    0    0 -0.49205148484E+02  0.18183036715E+03 -0.74398866474E+02  0.20253054186E+03  0.00000000000E+00 0.  1.
         11    1    3    3    0    0 -0.10352958184E+02  0.21065805635E+00 -0.35477405460E+02  0.36957738271E+02  0.00000000000E+00 0. -1.
<mgrwt>
<rscale>  0 0.22462973E+03</rscale>
<asrwt>0</asrwt>
<pdfrwt beam="2">  1        2 0.20322486E+00 0.22871904E+03</pdfrwt>
<pdfrwt beam="1">  1       -2 0.11725412E-01 0.22871904E+03</pdfrwt>
<totfact> 0.88189532E+02</totfact>
</mgrwt>
</event>
<event>
 8    1  0.1273312E-005  0.1378387E+03  0.7546771E-02  0.1227467E+00
          2   -1    0    0  501    0  0.00000000000E+00  0.00000000000E+00  0.46544675365E+03  0.46544675365E+03  0.00000000000E+00 0. -1.
         -2   -1    0    0    0  501 -0.00000000000E+00 -0.00000000000E+00 -0.39191192025E+02  0.39191192025E+02  0.00000000000E+00 0.  1.
         23    2    1    2    0    0  0.41859390305E+02 -0.40284665078E+02  0.90528202679E+02  0.14171597719E+03  0.92265919562E+02 0.  0.
         23    2    1    2    0    0 -0.41859390305E+02  0.40284665078E+02  0.33572735894E+03  0.36292196848E+03  0.12499773146E+03 0.  0.
          5    1    4    4  502    0 -0.59075028861E+02 -0.64315372716E+01  0.67416710216E+02  0.89990702425E+02  0.47000000000E+01 0. -1.
         -5    1    4    4    0  502  0.17215638556E+02  0.46716202350E+02  0.26831064873E+03  0.27293126606E+03  0.47000000000E+01 0. -1.
        -11    1    3    3    0    0  0.68599748903E+02 -0.37411762057E+02  0.82542833013E+02  0.11366127208E+03  0.00000000000E+00 0.  1.
         11    1    3    3    0    0 -0.26740358599E+02 -0.28729030217E+01  0.79853696661E+01  0.28054705104E+02  0.00000000000E+00 0. -1.
<mgrwt>
<rscale>  0 0.12999216E+03</rscale>
<asrwt>0</asrwt>
<pdfrwt beam="1">  1        2 0.71607189E-01 0.13783866E+03</pdfrwt>
<pdfrwt beam="2">  1       -2 0.60294145E-02 0.13783866E+03</pdfrwt>
<totfact> 0.94480345E+03</totfact>
</mgrwt>
</event>
<event>
 8    1  0.1273312E-005  0.1549686E+03  0.7546771E-02  0.1206802E+00
         -2   -1    0    0    0  501 -0.00000000000E+00  0.00000000000E+00  0.60742054794E+02  0.60742054794E+02  0.00000000000E+00 0.  1.
          2   -1    0    0  501    0  0.00000000000E+00 -0.00000000000E+00 -0.31635978821E+03  0.31635978821E+03  0.00000000000E+00 0. -1.
         23    2    1    2    0    0 -0.45938184987E+02 -0.79914685538E+02 -0.14138404041E+03  0.18458011232E+03  0.74724140524E+02 0.  0.
         23    2    1    2    0    0  0.45938184987E+02  0.79914685538E+02 -0.11423369301E+03  0.19252173068E+03  0.12457369852E+03 0.  0.
          5    1    4    4  502    0 -0.30781262101E+02  0.37261981954E+02 -0.88467966776E+02  0.10091884136E+03  0.47000000000E+01 0.  1.
         -5    1    4    4    0  502  0.76719447088E+02  0.42652703584E+02 -0.25765726231E+02  0.91602889325E+02  0.47000000000E+01 0.  1.
        -11    1    3    3    0    0  0.19287095407E+02 -0.16287151968E+02 -0.17175955276E+02  0.30533208284E+02  0.00000000000E+00 0.  1.
         11    1    3    3    0    0 -0.65225280394E+02 -0.63627533570E+02 -0.12420808513E+03  0.15404690404E+03  0.00000000000E+00 0. -1.
<mgrwt>
<rscale>  0 0.14496382E+03</rscale>
<asrwt>0</asrwt>
<pdfrwt beam="2">  1        2 0.48670737E-01 0.15496864E+03</pdfrwt>
<pdfrwt beam="1">  1       -2 0.93449315E-02 0.15496864E+03</pdfrwt>
<totfact> 0.73294076E+03</totfact>
</mgrwt>
</event>
<event>
 8    1  0.1273312E-005  0.2328619E+03  0.7546771E-02  0.1127590E+00
         -1   -1    0    0    0  501 -0.00000000000E+00  0.00000000000E+00  0.69031921571E+02  0.69031921571E+02  0.00000000000E+00 0.  1.
          1   -1    0    0  501    0  0.00000000000E+00 -0.00000000000E+00 -0.84113793998E+03  0.84113793998E+03  0.00000000000E+00 0. -1.
         23    2    1    2    0    0 -0.14626370648E+03  0.13116909836E+03 -0.20940827083E+03  0.30119251344E+03  0.90921405947E+02 0.  0.
         23    2    1    2    0    0  0.14626370648E+03 -0.13116909836E+03 -0.56269774757E+03  0.60897734811E+03  0.12500500466E+03 0.  0.
          5    1    4    4  502    0  0.95642963013E+02 -0.10788249136E+03 -0.51704458665E+03  0.53678990573E+03  0.47000000000E+01 0. -1.
         -5    1    4    4    0  502  0.50620743466E+02 -0.23286607000E+02 -0.45653160928E+02  0.72187442380E+02  0.47000000000E+01 0. -1.
        -11    1    3    3    0    0 -0.10007772063E+03  0.11144759291E+03 -0.98025534353E+02  0.17901151225E+03  0.00000000000E+00 0.  1.
         11    1    3    3    0    0 -0.46185985850E+02  0.19721505454E+02 -0.11138273648E+03  0.12218100119E+03  0.00000000000E+00 0. -1.
<mgrwt>
<rscale>  0 0.22865463E+03</rscale>
<asrwt>0</asrwt>
<pdfrwt beam="2">  1        1 0.12940583E+00 0.23286188E+03</pdfrwt>
<pdfrwt beam="1">  1       -1 0.10620296E-01 0.23286188E+03</pdfrwt>
<totfact> 0.11832536E+03</totfact>
</mgrwt>
</event>
<event>
 8    1  0.1273312E-005  0.1607571E+03  0.7546771E-02  0.1195477E+00
         -2   -1    0    0    0  501 -0.00000000000E+00  0.00000000000E+00  0.16611694401E+03  0.16611694401E+03  0.00000000000E+00 0.  1.
          2   -1    0    0  501    0  0.00000000000E+00 -0.00000000000E+00 -0.13291066431E+03  0.13291066431E+03  0.00000000000E+00 0. -1.
         23    2    1    2    0    0 -0.16428745080E+02 -0.99720679936E+02  0.24229145694E+02  0.13802005962E+03  0.90820524585E+02 0.  0.
         23    2    1    2    0    0  0.16428745080E+02  0.99720679936E+02  0.89771340063E+01  0.16100754869E+03  0.12501489562E+03 0.  0.
          5    1    4    4  502    0  0.69145697897E+02  0.61851797995E+02 -0.94481931622E+01  0.93370931274E+02  0.47000000000E+01 0. -1.
         -5    1    4    4    0  502 -0.52716952818E+02  0.37868881941E+02  0.18425327169E+02  0.67636617413E+02  0.47000000000E+01 0. -1.
        -11    1    3    3    0    0  0.13004404385E+02 -0.81827310452E+02 -0.16705106402E+02  0.84521499331E+02  0.00000000000E+00 0. -1.
         11    1    3    3    0    0 -0.29433149465E+02 -0.17893369484E+02  0.40934252095E+02  0.53498560294E+02  0.00000000000E+00 0.  1.
<mgrwt>
<rscale>  0 0.15413947E+03</rscale>
<asrwt>0</asrwt>
<pdfrwt beam="2">  1        2 0.20447794E-01 0.16075709E+03</pdfrwt>
<pdfrwt beam="1">  1       -2 0.25556453E-01 0.16075709E+03</pdfrwt>
<totfact> 0.35864788E+03</totfact>
</mgrwt>
</event>
<event>
 8    1  0.1273312E-005  0.1254845E+03  0.7546771E-02  0.1249516E+00
          1   -1    0    0  501    0  0.00000000000E+00  0.00000000000E+00  0.31099813080E+03  0.31099813080E+03  0.00000000000E+00 0. -1.
         -1   -1    0    0    0  501 -0.00000000000E+00 -0.00000000000E+00 -0.39476654382E+02  0.39476654382E+02  0.00000000000E+00 0.  1.
         23    2    1    2    0    0  0.36597594075E+00 -0.11623066848E+02  0.83478491672E+02  0.12440725446E+03  0.91505610583E+02 0.  0.
         23    2    1    2    0    0 -0.36597594075E+00  0.11623066848E+02  0.18804298475E+03  0.22606753073E+03  0.12494452655E+03 0.  0.
          5    1    4    4  502    0 -0.56287301167E+02 -0.17636772488E+02  0.11566175360E+03  0.12991938756E+03  0.47000000000E+01 0.  1.
         -5    1    4    4    0  502  0.55921325226E+02  0.29259839336E+02  0.72381231144E+02  0.96148143169E+02  0.47000000000E+01 0.  1.
        -11    1    3    3    0    0 -0.39036602775E+02 -0.92717805161E+01  0.73428356858E+02  0.83675240430E+02  0.00000000000E+00 0. -1.
         11    1    3    3    0    0  0.39402578716E+02 -0.23512863317E+01  0.10050134814E+02  0.40732014026E+02  0.00000000000E+00 0.  1.
<mgrwt>
<rscale>  0 0.11619148E+03</rscale>
<asrwt>0</asrwt>
<pdfrwt beam="1">  1        1 0.47845865E-01 0.12548452E+03</pdfrwt>
<pdfrwt beam="2">  1       -1 0.60733316E-02 0.12548452E+03</pdfrwt>
<totfact> 0.10317998E+04</totfact>
</mgrwt>
</event>
<event>
 8    1  0.1273312E-005  0.1324163E+03  0.7546771E-02  0.1237602E+00
          1   -1    0    0  501    0  0.00000000000E+00  0.00000000000E+00  0.14853273059E+04  0.14853273059E+04  0.00000000000E+00 0. -1.
         -1   -1    0    0    0  501 -0.00000000000E+00 -0.00000000000E+00 -0.13035639599E+02  0.13035639599E+02  0.00000000000E+00 0.  1.
         23    2    1    2    0    0 -0.41742217951E+02  0.12918101618E+02  0.25438648081E+03  0.27328045112E+03  0.89779915554E+02 0.  0.
         23    2    1    2    0    0  0.41742217951E+02 -0.12918101618E+02  0.12179051855E+04  0.12250824943E+04  0.12499914831E+03 0.  0.
          5    1    4    4  502    0 -0.22328358162E+02  0.32911440538E+00  0.90915779270E+03  0.90944414118E+03  0.47000000000E+01 0.  1.
         -5    1    4    4    0  502  0.64070576114E+02 -0.13247216024E+02  0.30874739276E+03  0.31563835317E+03  0.47000000000E+01 0.  1.
        -11    1    3    3    0    0  0.35966812563E+01  0.40530256362E+02  0.15892934459E+03  0.16405540030E+03  0.00000000000E+00 0. -1.
         11    1    3    3    0    0 -0.45338899208E+02 -0.27612154743E+02  0.95457136229E+02  0.10922505083E+03  0.00000000000E+00 0.  1.
<mgrwt>
<rscale>  0 0.12339327E+03</rscale>
<asrwt>0</asrwt>
<pdfrwt beam="1">  1        1 0.22851176E+00 0.13241630E+03</pdfrwt>
<pdfrwt beam="2">  1       -1 0.20054842E-02 0.13241630E+03</pdfrwt>
<totfact> 0.49116647E+03</totfact>
</mgrwt>
</event>
<event>
 8    1  0.1273312E-005  0.1484003E+03  0.7546771E-02  0.1211776E+00
          2   -1    0    0  501    0  0.00000000000E+00  0.00000000000E+00  0.14662204852E+04  0.14662204852E+04  0.00000000000E+00 0. -1.
         -2   -1    0    0    0  501 -0.00000000000E+00 -0.00000000000E+00 -0.14907065256E+02  0.14907065256E+02  0.00000000000E+00 0.  1.
         23    2    1    2    0    0 -0.78354299296E+02 -0.16067309586E+02  0.36414986204E+03  0.38388224328E+03  0.91448892967E+02 0.  0.
         23    2    1    2    0    0  0.78354299296E+02  0.16067309586E+02  0.10871635579E+04  0.10972453072E+04  0.12500043135E+03 0.  0.
          5    1    4    4  502    0  0.18608342436E+02  0.51140840072E+02  0.19867332263E+03  0.20604571108E+03  0.47000000000E+01 0. -1.
         -5    1    4    4    0  502  0.59745956859E+02 -0.35073530486E+02  0.88849023529E+03  0.89119959611E+03  0.47000000000E+01 0. -1.
        -11    1    3    3    0    0 -0.69266260466E+02  0.25864342799E+02  0.17595355165E+03  0.19085709681E+03  0.00000000000E+00 0.  1.
         11    1    3    3    0    0 -0.90880388300E+01 -0.41931652385E+02  0.18819631040E+03  0.19302514647E+03  0.00000000000E+00 0. -1.
<mgrwt>
<rscale>  0 0.14116065E+03</rscale>
<asrwt>0</asrwt>
<pdfrwt beam="1">  1        2 0.22557227E+00 0.14840035E+03</pdfrwt>
<pdfrwt beam="2">  1       -2 0.22933958E-02 0.14840035E+03</pdfrwt>
<totfact> 0.88037939E+03</totfact>
</mgrwt>
</event>
<event>
 8    1  0.1273312E-005  0.1683564E+03  0.7546771E-02  0.1186125E+00
          1   -1    0    0  501    0  0.00000000000E+00  0.00000000000E+00  0.48341651781E+03  0.48341651781E+03  0.00000000000E+00 0. -1.
         -1   -1    0    0    0  501 -0.00000000000E+00 -0.00000000000E+00 -0.56549373153E+02  0.56549373153E+02  0.00000000000E+00 0.  1.
         23    2    1    2    0    0 -0.83041408662E+02 -0.76309704088E+02  0.11433672116E+03  0.18497414840E+03  0.91779645232E+02 0.  0.
         23    2    1    2    0    0  0.83041408662E+02  0.76309704088E+02  0.31253042350E+03  0.35499174257E+03  0.12499930075E+03 0.  0.
          5    1    4    4  502    0 -0.20181060587E+02 -0.99851880873E+01  0.10594043315E+03  0.10840869228E+03  0.47000000000E+01 0. -1.
         -5    1    4    4    0  502  0.10322246925E+03  0.86294892175E+02  0.20658999035E+03  0.24658305029E+03  0.47000000000E+01 0. -1.
        -11    1    3    3    0    0 -0.14739004248E+02  0.19789575997E+02  0.72936177105E+01  0.25730573714E+02  0.00000000000E+00 0.  1.
         11    1    3    3    0    0 -0.68302404414E+02 -0.96099280084E+02  0.10704310345E+03  0.15924357468E+03  0.00000000000E+00 0. -1.
<mgrwt>
<rscale>  0 0.16229938E+03</rscale>
<asrwt>0</asrwt>
<pdfrwt beam="1">  1        1 0.74371769E-01 0.16835638E+03</pdfrwt>
<pdfrwt beam="2">  1       -1 0.86999039E-02 0.16835638E+03</pdfrwt>
<totfact> 0.35003693E+03</totfact>
</mgrwt>
</event>
<event>
 8    1  0.1273312E-005  0.1329679E+03  0.7546771E-02  0.1236404E+00
         -2   -1    0    0    0  501 -0.00000000000E+00  0.00000000000E+00  0.16126595628E+02  0.16126595628E+02  0.00000000000E+00 0.  1.
          2   -1    0    0  501    0  0.00000000000E+00 -0.00000000000E+00 -0.86179463163E+03  0.86179463163E+03  0.00000000000E+00 0. -1.
         23    2    1    2    0    0 -0.14054341382E+02 -0.43084123999E+02 -0.31302203421E+03  0.32892921368E+03  0.90320913716E+02 0.  0.
         23    2    1    2    0    0  0.14054341382E+02  0.43084123999E+02 -0.53264600178E+03  0.54899201358E+03  0.12500680583E+03 0.  0.
          5    1    4    4  502    0 -0.15151849807E+02 -0.40863107615E+02 -0.18719274450E+03  0.19225656220E+03  0.47000000000E+01 0.  1.
         -5    1    4    4    0  502  0.29206191189E+02  0.83947231614E+02 -0.34545325728E+03  0.35673545137E+03  0.47000000000E+01 0.  1.
        -11    1    3    3    0    0 -0.22671170569E+02  0.20328290260E+02 -0.52777410723E+02  0.60931735922E+02  0.00000000000E+00 0.  1.
         11    1    3    3    0    0  0.86168291868E+01 -0.63412414259E+02 -0.26024462349E+03  0.26799747775E+03  0.00000000000E+00 0. -1.
<mgrwt>
<rscale>  0 0.12415010E+03</rscale>
<asrwt>0</asrwt>
<pdfrwt beam="2">  1        2 0.13258379E+00 0.13296792E+03</pdfrwt>
<pdfrwt beam="1">  1       -2 0.24810147E-02 0.13296792E+03</pdfrwt>
<totfact> 0.17211067E+04</totfact>
</mgrwt>
</event>
<event>
 7    1  0.1273312E-005  0.1442909E+03  0.7546771E-02  0.1226592E+00
          2   -1    0    0  501    0  0.00000000000E+00  0.00000000000E+00  0.46575948653E+03  0.46575948653E+03  0.00000000000E+00 0. -1.
         -2   -1    0    0    0  501 -0.00000000000E+00 -0.00000000000E+00 -0.31309148544E+02  0.31309148544E+02  0.00000000000E+00 0.  1.
         23    2    1    2    0    0 -0.30885744991E+02 -0.12094039155E+02  0.16000021970E+03  0.18699973547E+03  0.90932039100E+02 0.  0.
          5    1    1    2  502    0  0.63587468057E+02 -0.34583262014E+02  0.21785084360E+03  0.22960933814E+03  0.47000000000E+01 0. -1.
         -5    1    1    2    0  502 -0.32701723066E+02  0.46677301169E+02  0.56599274690E+02  0.80459561466E+02  0.47000000000E+01 0.  1.
        -11    1    3    3    0    0 -0.35337223649E+02  0.33396652320E+02  0.10329655857E+03  0.11416757321E+03  0.00000000000E+00 0. -1.
         11    1    3    3    0    0  0.44514786582E+01 -0.45490691475E+02  0.56703661132E+02  0.72832162256E+02  0.00000000000E+00 0.  1.
<mgrwt>
<rscale>  0 0.13058395E+03</rscale>
<asrwt>0</asrwt>
<pdfrwt beam="1">  1        2 0.71655301E-01 0.14429087E+03</pdfrwt>
<pdfrwt beam="2">  1       -2 0.48167924E-02 0.14429087E+03</pdfrwt>
<totfact> 0.13291411E+04</totfact>
</mgrwt>
</event>
<event>
 8    1  0.1273312E-005  0.1819344E+03  0.7546771E-02  0.1170148E+00
          1   -1    0    0  501    0  0.00000000000E+00  0.00000000000E+00  0.57311365445E+03  0.57311365445E+03  0.00000000000E+00 0. -1.
         -1   -1    0    0    0  501 -0.00000000000E+00 -0.00000000000E+00 -0.55626719120E+02  0.55626719120E+02  0.00000000000E+00 0.  1.
         23    2    1    2    0    0 -0.13206417888E+03 -0.59017588784E+01  0.17328171526E+03  0.23941098854E+03  0.99072147900E+02 0.  0.
         23    2    1    2    0    0  0.13206417888E+03  0.59017588784E+01  0.34420522007E+03  0.38932938503E+03  0.12499743367E+03 0.  0.
          5    1    4    4  502    0  0.13914020526E+03 -0.19813279840E+02  0.33007812496E+03  0.35878436609E+03  0.47000000000E+01 0. -1.
         -5    1    4    4    0  502 -0.70760263813E+01  0.25715038718E+02  0.14127095115E+02  0.30545018940E+02  0.47000000000E+01 0. -1.
        -11    1    3    3    0    0 -0.61376965807E+02  0.18437576604E+02  0.14666273059E+03  0.16005321836E+03  0.00000000000E+00 0. -1.
         11    1    3    3    0    0 -0.70687213070E+02 -0.24339335482E+02  0.26618984671E+02  0.79357770181E+02  0.00000000000E+00 0.  1.
<mgrwt>
<rscale>  0 0.17759827E+03</rscale>
<asrwt>0</asrwt>
<pdfrwt beam="1">  1        1 0.88171327E-01 0.18193443E+03</pdfrwt>
<pdfrwt beam="2">  1       -1 0.85579572E-02 0.18193443E+03</pdfrwt>
<totfact> 0.28694981E+03</totfact>
</mgrwt>
</event>
<event>
 8    1  0.1273312E-005  0.1332456E+03  0.7546771E-02  0.1235841E+00
          3   -1    0    0  501    0  0.00000000000E+00  0.00000000000E+00  0.47261810069E+03  0.47261810069E+03  0.00000000000E+00 0. -1.
         -3   -1    0    0    0  501 -0.00000000000E+00 -0.00000000000E+00 -0.31920362228E+02  0.31920362228E+02  0.00000000000E+00 0.  1.
         23    2    1    2    0    0 -0.26065970136E+02  0.38068439143E+02  0.11976297246E+03  0.15704240853E+03  0.90501423461E+02 0.  0.
         23    2    1    2    0    0  0.26065970136E+02 -0.38068439143E+02  0.32093476600E+03  0.34749605438E+03  0.12500297166E+03 0.  0.
          5    1    4    4  502    0  0.28521334397E+02  0.14326499849E+02  0.12501187260E+02  0.34598913229E+02  0.47000000000E+01 0.  1.
         -5    1    4    4    0  502 -0.24553642611E+01 -0.52394938992E+02  0.30843357874E+03  0.31289714115E+03  0.47000000000E+01 0.  1.
        -11    1    3    3    0    0 -0.29957541832E+02  0.50673031130E+02  0.12841649611E+03  0.14126573141E+03  0.00000000000E+00 0. -1.
         11    1    3    3    0    0  0.38915716962E+01 -0.12604591987E+02 -0.86535236563E+01  0.15776677125E+02  0.00000000000E+00 0.  1.
<mgrwt>
<rscale>  0 0.12450738E+03</rscale>
<asrwt>0</asrwt>
<pdfrwt beam="1">  1        3 0.72710472E-01 0.13324558E+03</pdfrwt>
<pdfrwt beam="2">  1       -3 0.49108253E-02 0.13324558E+03</pdfrwt>
<totfact> 0.99111277E+02</totfact>
</mgrwt>
</event>
<event>
 8    1  0.1273312E-005  0.1410294E+03  0.7546771E-02  0.1222081E+00
         -1   -1    0    0    0  501 -0.00000000000E+00  0.00000000000E+00  0.20128902966E+02  0.20128902966E+02  0.00000000000E+00 0.  1.
          1   -1    0    0  501    0  0.00000000000E+00 -0.00000000000E+00 -0.85895399163E+03  0.85895399163E+03  0.00000000000E+00 0. -1.
         23    2    1    2    0    0 -0.63095145426E+02 -0.17244583152E+02 -0.26999906728E+03  0.29303482651E+03  0.93228430156E+02 0.  0.
         23    2    1    2    0    0  0.63095145426E+02  0.17244583152E+02 -0.56882602139E+03  0.58604806809E+03  0.12494367725E+03 0.  0.
          5    1    4    4  502    0  0.66557180827E+01  0.33978458778E+01  0.44006285838E+01  0.98640494595E+01  0.47000000000E+01 0.  1.
         -5    1    4    4    0  502  0.56439427343E+02  0.13846737274E+02 -0.57322664997E+03  0.57618401863E+03  0.47000000000E+01 0.  1.
        -11    1    3    3    0    0 -0.20033174220E+02  0.17029779223E+02 -0.11424866875E+02  0.28668258280E+02  0.00000000000E+00 0.  1.
         11    1    3    3    0    0 -0.43061971206E+02 -0.34274362375E+02 -0.25857420041E+03  0.26436656823E+03  0.00000000000E+00 0. -1.
<mgrwt>
<rscale>  0 0.13369015E+03</rscale>
<asrwt>0</asrwt>
<pdfrwt beam="2">  1        1 0.13214674E+00 0.14102941E+03</pdfrwt>
<pdfrwt beam="1">  1       -1 0.30967549E-02 0.14102941E+03</pdfrwt>
<totfact> 0.71838926E+03</totfact>
</mgrwt>
</event>
<event>
 8    1  0.1273312E-005  0.1193688E+03  0.7546771E-02  0.1253214E+00
          2   -1    0    0  501    0  0.00000000000E+00  0.00000000000E+00  0.21123523820E+03  0.21123523820E+03  0.00000000000E+00 0. -1.
         -2   -1    0    0    0  501 -0.00000000000E+00 -0.00000000000E+00 -0.73802864141E+02  0.73802864141E+02  0.00000000000E+00 0.  1.
         23    2    1    2    0    0  0.20973303227E+02 -0.35258778686E+02 -0.44247429614E+01  0.99640286075E+02  0.90694803248E+02 0.  0.
         23    2    1    2    0    0 -0.20973303227E+02  0.35258778686E+02  0.14185711702E+03  0.18539781627E+03  0.11209749196E+03 0.  0.
          5    1    4    4  502    0 -0.54119329828E+02  0.29310142683E+02  0.13800263214E+03  0.15117805000E+03  0.47000000000E+01 0. -1.
         -5    1    4    4    0  502  0.33146026601E+02  0.59486360022E+01  0.38544848860E+01  0.34219766268E+02  0.47000000000E+01 0.  1.
        -11    1    3    3    0    0 -0.10364587006E+02 -0.35430138450E+02 -0.38504905829E+02  0.53341795501E+02  0.00000000000E+00 0.  1.
         11    1    3    3    0    0  0.31337890233E+02  0.17135976401E+00  0.34080162867E+02  0.46298490575E+02  0.00000000000E+00 0. -1.
<mgrwt>
<rscale>  0 0.11406954E+03</rscale>
<asrwt>0</asrwt>
<pdfrwt beam="1">  1        2 0.32497729E-01 0.11936879E+03</pdfrwt>
<pdfrwt beam="2">  1       -2 0.11354287E-01 0.11936879E+03</pdfrwt>
<totfact> 0.81424579E+03</totfact>
</mgrwt>
</event>
<event>
 7    1  0.1273312E-005  0.3375033E+03  0.7546771E-02  0.1067864E+00
          2   -1    0    0  501    0  0.00000000000E+00  0.00000000000E+00  0.22217313750E+03  0.22217313750E+03  0.00000000000E+00 0. -1.
         -2   -1    0    0    0  501 -0.00000000000E+00 -0.00000000000E+00 -0.12817532940E+03  0.12817532940E+03  0.00000000000E+00 0.  1.
         23    2    1    2    0    0 -0.40438661951E+02  0.55828454965E+02  0.17320237432E+01  0.11427832554E+03  0.91128667372E+02 0.  0.
          5    1    1    2  502    0  0.76939209670E+02 -0.45885891846E+02  0.14529730451E+03  0.17075875893E+03  0.47000000000E+01 0. -1.
         -5    1    1    2    0  502 -0.36500547719E+02 -0.99425631192E+01 -0.53031520157E+02  0.65311382433E+02  0.47000000000E+01 0.  1.
        -11    1    3    3    0    0 -0.66186888286E+02  0.33649842675E+02 -0.15989616198E+02  0.75951852639E+02  0.00000000000E+00 0.  1.
         11    1    3    3    0    0  0.25748226336E+02  0.22178612290E+02  0.17721639942E+02  0.38326472898E+02  0.00000000000E+00 0. -1.
<mgrwt>
<rscale>  0 0.33750327E+03</rscale>
<asrwt>0</asrwt>
<pdfrwt beam="1">  1        2 0.34180483E-01 0.33750327E+03</pdfrwt>
<pdfrwt beam="2">  1       -2 0.19719281E-01 0.33750327E+03</pdfrwt>
<totfact> 0.32785293E+03</totfact>
</mgrwt>
</event>
<event>
 8    1  0.1273312E-005  0.1830718E+03  0.7546771E-02  0.1168059E+00
          1   -1    0    0  501    0  0.00000000000E+00  0.00000000000E+00  0.38730558549E+03  0.38730558549E+03  0.00000000000E+00 0. -1.
         -1   -1    0    0    0  501 -0.00000000000E+00 -0.00000000000E+00 -0.91660194279E+02  0.91660194279E+02  0.00000000000E+00 0.  1.
         23    2    1    2    0    0  0.20126239283E+02  0.13223270030E+03  0.59556545516E+02  0.18021298575E+03  0.10506752868E+03 0.  0.
         23    2    1    2    0    0 -0.20126239283E+02 -0.13223270030E+03  0.23608884570E+03  0.29875279402E+03  0.12499894533E+03 0.  0.
          5    1    4    4  502    0 -0.41098278703E+02 -0.62128515454E+01  0.17120823957E+02  0.45198237240E+02  0.47000000000E+01 0.  1.
         -5    1    4    4    0  502  0.20972039420E+02 -0.12601984876E+03  0.21896802174E+03  0.25355455678E+03  0.47000000000E+01 0.  1.
        -11    1    3    3    0    0  0.31665979930E+02  0.88513165279E+02 -0.12815727188E+02  0.94876538596E+02  0.00000000000E+00 0.  1.
         11    1    3    3    0    0 -0.11539740647E+02  0.43719535024E+02  0.72372272704E+02  0.85336447157E+02  0.00000000000E+00 0. -1.
<mgrwt>
<rscale>  0 0.17973563E+03</rscale>
<asrwt>0</asrwt>
<pdfrwt beam="1">  1        1 0.59585474E-01 0.18307181E+03</pdfrwt>
<pdfrwt beam="2">  1       -1 0.14101569E-01 0.18307181E+03</pdfrwt>
<totfact> 0.22122044E+03</totfact>
</mgrwt>
</event>
<event>
 7    1  0.1273312E-005  0.3746802E+03  0.7546771E-02  0.1098061E+00
         -2   -1    0    0    0  501 -0.00000000000E+00  0.00000000000E+00  0.13121080003E+03  0.13121080003E+03  0.00000000000E+00 0. -1.
          2   -1    0    0  501    0  0.00000000000E+00 -0.00000000000E+00 -0.13109205711E+04  0.13109205711E+04  0.00000000000E+00 0.  1.
         23    2    1    2    0    0  0.60006596684E+02 -0.13319848817E+02  0.74781883565E+02  0.13288173977E+03  0.91033052437E+02 0.  0.
          5    1    1    2  502    0  0.33791331690E+01  0.97654968254E+02 -0.11697911326E+04  0.11738744802E+04  0.47000000000E+01 0.  1.
         -5    1    1    2    0  502 -0.63385729853E+02 -0.84335119437E+02 -0.84700522044E+02  0.13537515117E+03  0.47000000000E+01 0. -1.
        -11    1    3    3    0    0 -0.84867125931E+01  0.21403588563E+02  0.44939909350E+02  0.50494884358E+02  0.00000000000E+00 0.  1.
         11    1    3    3    0    0  0.68493309277E+02 -0.34723437379E+02  0.29841974216E+02  0.82386855409E+02  0.00000000000E+00 0. -1.
<mgrwt>
<rscale>  0 0.27570049E+03</rscale>
<asrwt>0</asrwt>
<pdfrwt beam="2">  1        2 0.20168009E+00 0.37468024E+03</pdfrwt>
<pdfrwt beam="1">  1       -2 0.20186277E-01 0.37468024E+03</pdfrwt>
<totfact> 0.35565941E+02</totfact>
</mgrwt>
</event>
<event>
 8    1  0.1273312E-005  0.2126422E+03  0.7546771E-02  0.1143339E+00
         -1   -1    0    0    0  501 -0.00000000000E+00  0.00000000000E+00  0.21749780120E+03  0.21749780120E+03  0.00000000000E+00 0.  1.
          1   -1    0    0  501    0  0.00000000000E+00 -0.00000000000E+00 -0.19053690715E+03  0.19053690715E+03  0.00000000000E+00 0. -1.
         23    2    1    2    0    0 -0.66926369636E+02  0.15846147684E+03  0.12270832279E+01  0.19384104971E+03  0.89351375069E+02 0.  0.
         23    2    1    2    0    0  0.66926369636E+02 -0.15846147684E+03  0.25733810819E+02  0.21419365864E+03  0.12501006275E+03 0.  0.
          5    1    4    4  502    0  0.35336831433E+02 -0.16772451815E+03  0.42920992047E+02  0.17676115864E+03  0.47000000000E+01 0.  1.
         -5    1    4    4    0  502  0.31589538203E+02  0.92630413121E+01 -0.17187181228E+02  0.37432500007E+02  0.47000000000E+01 0.  1.
        -11    1    3    3    0    0 -0.68580089322E+02  0.60522617320E+02 -0.19968274704E+02  0.93621300212E+02  0.00000000000E+00 0. -1.
         11    1    3    3    0    0  0.16537196859E+01  0.97938859516E+02  0.21195357932E+02  0.10021974950E+03  0.00000000000E+00 0.  1.
<mgrwt>
<rscale>  0 0.20777645E+03</rscale>
<asrwt>0</asrwt>
<pdfrwt beam="2">  1        1 0.29313370E-01 0.21264217E+03</pdfrwt>
<pdfrwt beam="1">  1       -1 0.33461200E-01 0.21264217E+03</pdfrwt>
<totfact> 0.13134795E+03</totfact>
</mgrwt>
</event>
<event>
 8    1  0.1273312E-005  0.1286474E+03  0.7546771E-02  0.1243849E+00
          2   -1    0    0  501    0  0.00000000000E+00  0.00000000000E+00  0.13291644704E+03  0.13291644704E+03  0.00000000000E+00 0. -1.
         -2   -1    0    0    0  501 -0.00000000000E+00 -0.00000000000E+00 -0.94989296545E+02  0.94989296545E+02  0.00000000000E+00 0.  1.
         23    2    1    2    0    0 -0.29993053851E+02  0.47191780184E+01  0.12007664628E+02  0.96673207431E+02  0.90992698085E+02 0.  0.
         23    2    1    2    0    0  0.29993053851E+02 -0.47191780184E+01  0.25919485866E+02  0.13123253615E+03  0.12501321881E+03 0.  0.
          5    1    4    4  502    0 -0.14766188306E+02 -0.53445992536E+02 -0.88416227528E+01  0.56345174844E+02  0.47000000000E+01 0.  1.
         -5    1    4    4    0  502  0.44759242157E+02  0.48726814518E+02  0.34761108619E+02  0.74887361310E+02  0.47000000000E+01 0.  1.
        -11    1    3    3    0    0  0.11798805425E+02 -0.14116974468E+02 -0.29543170794E+02  0.34803731382E+02  0.00000000000E+00 0.  1.
         11    1    3    3    0    0 -0.41791859277E+02  0.18836152486E+02  0.41550835422E+02  0.61869476049E+02  0.00000000000E+00 0. -1.
<mgrwt>
<rscale>  0 0.11954552E+03</rscale>
<asrwt>0</asrwt>
<pdfrwt beam="1">  1        2 0.20448684E-01 0.12864742E+03</pdfrwt>
<pdfrwt beam="2">  1       -2 0.14613738E-01 0.12864742E+03</pdfrwt>
<totfact> 0.90812538E+03</totfact>
</mgrwt>
</event>
<event>
 8    1  0.1273312E-005  0.1721115E+03  0.7546771E-02  0.1181931E+00
         -1   -1    0    0    0  501 -0.00000000000E+00  0.00000000000E+00  0.92223544229E+03  0.92223544229E+03  0.00000000000E+00 0.  1.
          1   -1    0    0  501    0  0.00000000000E+00 -0.00000000000E+00 -0.28449175425E+02  0.28449175425E+02  0.00000000000E+00 0. -1.
         23    2    1    2    0    0 -0.91549990423E+01 -0.11795074164E+03  0.35831248563E+03  0.38823058986E+03  0.91317917631E+02 0.  0.
         23    2    1    2    0    0  0.91549990423E+01  0.11795074164E+03  0.53547378123E+03  0.56245402786E+03  0.12500468634E+03 0.  0.
          5    1    4    4  502    0  0.62388038024E+02  0.62703505331E+02  0.20790560254E+03  0.22598855377E+03  0.47000000000E+01 0.  1.
         -5    1    4    4    0  502 -0.53233038982E+02  0.55247236305E+02  0.32756817870E+03  0.33646547409E+03  0.47000000000E+01 0.  1.
        -11    1    3    3    0    0  0.13337161957E+02 -0.68539164843E+02  0.30216804668E+03  0.31013065866E+03  0.00000000000E+00 0.  1.
         11    1    3    3    0    0 -0.22492161000E+02 -0.49411576794E+02  0.56144438953E+02  0.78099931197E+02  0.00000000000E+00 0. -1.
<mgrwt>
<rscale>  0 0.16614260E+03</rscale>
<asrwt>0</asrwt>
<pdfrwt beam="2">  1        1 0.43767969E-02 0.17211148E+03</pdfrwt>
<pdfrwt beam="1">  1       -1 0.14188235E+00 0.17211148E+03</pdfrwt>
<totfact> 0.86774619E+02</totfact>
</mgrwt>
</event>
<event>
 8    1  0.1273312E-005  0.1444916E+03  0.7546771E-02  0.1217526E+00
          1   -1    0    0  501    0  0.00000000000E+00  0.00000000000E+00  0.17731774306E+03  0.17731774306E+03  0.00000000000E+00 0. -1.
         -1   -1    0    0    0  501 -0.00000000000E+00 -0.00000000000E+00 -0.99802347950E+02  0.99802347950E+02  0.00000000000E+00 0.  1.
         23    2    1    2    0    0  0.68489301947E+02  0.23708643514E+02  0.80618119976E+01  0.11680281638E+03  0.91241552175E+02 0.  0.
         23    2    1    2    0    0 -0.68489301947E+02 -0.23708643514E+02  0.69453583112E+02  0.16031727463E+03  0.12499977632E+03 0.  0.
          5    1    4    4  502    0  0.23464261790E+02  0.18471275837E+02  0.48107050981E+02  0.56816704995E+02  0.47000000000E+01 0. -1.
         -5    1    4    4    0  502 -0.91953563738E+02 -0.42179919351E+02  0.21346532131E+02  0.10350056963E+03  0.47000000000E+01 0. -1.
        -11    1    3    3    0    0  0.10138273973E+02 -0.33124722546E+02 -0.21624798399E+01  0.34708906090E+02  0.00000000000E+00 0. -1.
         11    1    3    3    0    0  0.58351027974E+02  0.56833366059E+02  0.10224291837E+02  0.82093910291E+02  0.00000000000E+00 0.  1.
<mgrwt>
<rscale>  0 0.13692605E+03</rscale>
<asrwt>0</asrwt>
<pdfrwt beam="1">  1        1 0.27279653E-01 0.14449162E+03</pdfrwt>
<pdfrwt beam="2">  1       -1 0.15354207E-01 0.14449162E+03</pdfrwt>
<totfact> 0.50796030E+03</totfact>
</mgrwt>
</event>
<event>
 8    1  0.1273312E-005  0.1779679E+03  0.7546771E-02  0.1175384E+00
         -4   -1    0    0    0  501 -0.00000000000E+00  0.00000000000E+00  0.34719411025E+03  0.34719411025E+03  0.00000000000E+00 0.  1.
          4   -1    0    0  501    0  0.00000000000E+00 -0.00000000000E+00 -0.88118439682E+02  0.88118439682E+02  0.00000000000E+00 0. -1.
         23    2    1    2    0    0  0.10953261895E+03 -0.63643663205E+02  0.18532318026E+03  0.24266779349E+03  0.92168684342E+02 0.  0.
         23    2    1    2    0    0 -0.10953261895E+03  0.63643663205E+02  0.73752490302E+02  0.19264475644E+03  0.12499864751E+03 0.  0.
          5    1    4    4  502    0 -0.11757904203E+03  0.51969465490E+02  0.12096938637E+02  0.12920558189E+03  0.47000000000E+01 0.  1.
         -5    1    4    4    0  502  0.80464230755E+01  0.11674197715E+02  0.61655551665E+02  0.63439174551E+02  0.47000000000E+01 0.  1.
        -11    1    3    3    0    0  0.39772819280E+02  0.14831194972E+02  0.20250539898E+02  0.47031115912E+02  0.00000000000E+00 0. -1.
         11    1    3    3    0    0  0.69759799671E+02 -0.78474858176E+02  0.16507264036E+03  0.19563667758E+03  0.00000000000E+00 0.  1.
<mgrwt>
<rscale>  0 0.17238408E+03</rscale>
<asrwt>0</asrwt>
<pdfrwt beam="2">  1        4 0.13556683E-01 0.17796790E+03</pdfrwt>
<pdfrwt beam="1">  1       -4 0.53414478E-01 0.17796790E+03</pdfrwt>
<totfact> 0.26587121E+02</totfact>
</mgrwt>
</event>
<event>
 8    1  0.1273312E-005  0.1591013E+03  0.7546771E-02  0.1197182E+00
         -2   -1    0    0    0  501 -0.00000000000E+00  0.00000000000E+00  0.99268584674E+02  0.99268584674E+02  0.00000000000E+00 0.  1.
          2   -1    0    0  501    0  0.00000000000E+00 -0.00000000000E+00 -0.25285718728E+03  0.25285718728E+03  0.00000000000E+00 0. -1.
         23    2    1    2    0    0 -0.96231036903E+02  0.20721409635E+02 -0.60908418689E+01  0.13517228506E+03  0.92437324783E+02 0.  0.
         23    2    1    2    0    0  0.96231036903E+02 -0.20721409635E+02 -0.14749776074E+03  0.21695348690E+03  0.12499374693E+03 0.  0.
          5    1    4    4  502    0  0.43852092382E+02 -0.26706643522E+02 -0.15513314603E+03  0.16347670724E+03  0.47000000000E+01 0. -1.
         -5    1    4    4    0  502  0.52378944522E+02  0.59852338863E+01  0.76353852849E+01  0.53476779656E+02  0.47000000000E+01 0. -1.
        -11    1    3    3    0    0 -0.12390469224E+01  0.27454127890E+02 -0.26057208107E+02  0.37871393819E+02  0.00000000000E+00 0. -1.
         11    1    3    3    0    0 -0.94991989981E+02 -0.67327182551E+01  0.19966366238E+02  0.97300891242E+02  0.00000000000E+00 0.  1.
<mgrwt>
<rscale>  0 0.15270979E+03</rscale>
<asrwt>0</asrwt>
<pdfrwt beam="2">  1        2 0.38901106E-01 0.15910131E+03</pdfrwt>
<pdfrwt beam="1">  1       -2 0.15272090E-01 0.15910131E+03</pdfrwt>
<totfact> 0.42411085E+03</totfact>
</mgrwt>
</event>
<event>
 8    1  0.1273312E-005  0.3821224E+03  0.7546771E-02  0.1051093E+00
         -2   -1    0    0    0  501 -0.00000000000E+00  0.00000000000E+00  0.31974157068E+03  0.31974157068E+03  0.00000000000E+00 0.  1.
          2   -1    0    0  501    0  0.00000000000E+00 -0.00000000000E+00 -0.49334359309E+03  0.49334359309E+03  0.00000000000E+00 0. -1.
         23    2    1    2    0    0  0.23706629826E+03  0.27239031560E+03  0.41937224144E+02  0.37436578840E+03  0.89409725176E+02 0.  0.
         23    2    1    2    0    0 -0.23706629826E+03 -0.27239031560E+03 -0.21553924655E+03  0.43871937537E+03  0.12498243764E+03 0.  0.
          5    1    4    4  502    0 -0.72556782140E+02 -0.11957246190E+02 -0.34199898269E+02  0.81235370452E+02  0.47000000000E+01 0.  1.
         -5    1    4    4    0  502 -0.16450951612E+03 -0.26043306941E+03 -0.18133934829E+03  0.35748400492E+03  0.47000000000E+01 0.  1.
        -11    1    3    3    0    0  0.16834341746E+03  0.12594830622E+03  0.23680954775E+02  0.21157331982E+03  0.00000000000E+00 0.  1.
         11    1    3    3    0    0  0.68722880805E+02  0.14644200938E+03  0.18256269369E+02  0.16279246858E+03  0.00000000000E+00 0. -1.
<mgrwt>
<rscale>  0 0.37956867E+03</rscale>
<asrwt>0</asrwt>
<pdfrwt beam="2">  1        2 0.75899014E-01 0.38212239E+03</pdfrwt>
<pdfrwt beam="1">  1       -2 0.49191011E-01 0.38212239E+03</pdfrwt>
<totfact> 0.25102165E+02</totfact>
</mgrwt>
</event>
<event>
 8    1  0.1273312E-005  0.1584179E+03  0.7546771E-02  0.1198176E+00
          1   -1    0    0  501    0  0.00000000000E+00  0.00000000000E+00  0.89516982167E+03  0.89516982167E+03  0.00000000000E+00 0. -1.
         -1   -1    0    0    0  501 -0.00000000000E+00 -0.00000000000E+00 -0.24506758255E+02  0.24506758255E+02  0.00000000000E+00 0.  1.
         23    2    1    2    0    0  0.54964959653E+02  0.80307162589E+02  0.32513027958E+03  0.35160769593E+03  0.91912382097E+02 0.  0.
         23    2    1    2    0    0 -0.54964959653E+02 -0.80307162589E+02  0.54553278383E+03  0.56806888400E+03  0.12500340626E+03 0.  0.
          5    1    4    4  502    0  0.27965156538E+02  0.13855235544E+02  0.14139449950E+03  0.14487412474E+03  0.47000000000E+01 0.  1.
         -5    1    4    4    0  502 -0.82930116190E+02 -0.94162398133E+02  0.40413828434E+03  0.42319475926E+03  0.47000000000E+01 0.  1.
        -11    1    3    3    0    0  0.69082163508E+02  0.47196508412E+02  0.28795023535E+03  0.29985862295E+03  0.00000000000E+00 0. -1.
         11    1    3    3    0    0 -0.14117203855E+02  0.33110654178E+02  0.37180044231E+02  0.51749072975E+02  0.00000000000E+00 0.  1.
<mgrwt>
<rscale>  0 0.15188513E+03</rscale>
<asrwt>0</asrwt>
<pdfrwt beam="1">  1        1 0.13771841E+00 0.15841792E+03</pdfrwt>
<pdfrwt beam="2">  1       -1 0.37702712E-02 0.15841792E+03</pdfrwt>
<totfact> 0.50716708E+03</totfact>
</mgrwt>
</event>
<event>
 8    1  0.1273312E-005  0.1524018E+03  0.7546771E-02  0.1205778E+00
         -3   -1    0    0    0  501 -0.00000000000E+00  0.00000000000E+00  0.23059874059E+03  0.23059874059E+03  0.00000000000E+00 0.  1.
          3   -1    0    0  501    0  0.00000000000E+00 -0.00000000000E+00 -0.16844655338E+03  0.16844655338E+03  0.00000000000E+00 0. -1.
         23    2    1    2    0    0  0.32053907476E+02  0.81088288354E+02  0.16987301578E+03  0.21241708544E+03  0.93066713728E+02 0.  0.
         23    2    1    2    0    0 -0.32053907476E+02 -0.81088288354E+02 -0.10772082857E+03  0.18662820853E+03  0.12499419114E+03 0.  0.
          5    1    4    4  502    0 -0.51775905256E+02  0.14172657182E+02 -0.49425621370E+02  0.73120384466E+02  0.47000000000E+01 0. -1.
         -5    1    4    4    0  502  0.19721997780E+02 -0.95260945536E+02 -0.58295207203E+02  0.11350782406E+03  0.47000000000E+01 0. -1.
        -11    1    3    3    0    0  0.23766524161E+02  0.59833183918E+02  0.17713792603E+03  0.18847467312E+03  0.00000000000E+00 0.  1.
         11    1    3    3    0    0  0.82873833151E+01  0.21255104437E+02 -0.72649102515E+01  0.23942412322E+02  0.00000000000E+00 0. -1.
<mgrwt>
<rscale>  0 0.14576277E+03</rscale>
<asrwt>0</asrwt>
<pdfrwt beam="2">  1        3 0.25914854E-01 0.15240181E+03</pdfrwt>
<pdfrwt beam="1">  1       -3 0.35476729E-01 0.15240181E+03</pdfrwt>
<totfact> 0.26052678E+02</totfact>
</mgrwt>
</event>
<event>
 8    1  0.1273312E-005  0.2086580E+03  0.7546771E-02  0.1146905E+00
         -1   -1    0    0    0  501 -0.00000000000E+00  0.00000000000E+00  0.71575561567E+02  0.71575561567E+02  0.00000000000E+00 0.  1.
          1   -1    0    0  501    0  0.00000000000E+00 -0.00000000000E+00 -0.55440476510E+03  0.55440476510E+03  0.00000000000E+00 0. -1.
         23    2    1    2    0    0  0.61680610587E+02 -0.15527354121E+03 -0.20341156587E+03  0.27725065628E+03  0.87047636122E+02 0.  0.
         23    2    1    2    0    0 -0.61680610587E+02  0.15527354121E+03 -0.27941763766E+03  0.34872967038E+03  0.12499518571E+03 0.  0.
          5    1    4    4  502    0 -0.10846778494E+01  0.14714839563E+03 -0.19199457792E+03  0.24194593366E+03  0.47000000000E+01 0. -1.
         -5    1    4    4    0  502 -0.60595932738E+02  0.81251455744E+01 -0.87423059734E+02  0.10678373672E+03  0.47000000000E+01 0. -1.
        -11    1    3    3    0    0  0.50140238899E+02 -0.12209200613E+03 -0.93201299504E+02  0.16157655692E+03  0.00000000000E+00 0.  1.
         11    1    3    3    0    0  0.11540371688E+02 -0.33181535078E+02 -0.11021026637E+03  0.11567409935E+03  0.00000000000E+00 0. -1.
<mgrwt>
<rscale>  0 0.20339585E+03</rscale>
<asrwt>0</asrwt>
<pdfrwt beam="2">  1        1 0.85293038E-01 0.20865801E+03</pdfrwt>
<pdfrwt beam="1">  1       -1 0.11011625E-01 0.20865801E+03</pdfrwt>
<totfact> 0.20442902E+03</totfact>
</mgrwt>
</event>
<event>
 8    1  0.1273312E-005  0.1331002E+03  0.7546771E-02  0.1235593E+00
          2   -1    0    0  501    0  0.00000000000E+00  0.00000000000E+00  0.13278973644E+04  0.13278973644E+04  0.00000000000E+00 0. -1.
         -2   -1    0    0    0  501 -0.00000000000E+00 -0.00000000000E+00 -0.12832765960E+02  0.12832765960E+02  0.00000000000E+00 0.  1.
         23    2    1    2    0    0 -0.41140380076E+02  0.19948710081E+02  0.30065949525E+03  0.31763024212E+03  0.91664369931E+02 0.  0.
         23    2    1    2    0    0  0.41140380076E+02 -0.19948710081E+02  0.10144051032E+04  0.10230998883E+04  0.12500074417E+03 0.  0.
          5    1    4    4  502    0  0.52622971662E+02 -0.28252873267E+02  0.10017163827E+04  0.10035064540E+04  0.47000000000E+01 0.  1.
         -5    1    4    4    0  502 -0.11482591586E+02  0.83041631865E+01  0.12688720541E+02  0.19593434225E+02  0.47000000000E+01 0.  1.
        -11    1    3    3    0    0 -0.48619911925E+02 -0.25475664209E+02  0.13607792229E+03  0.14673140849E+03  0.00000000000E+00 0.  1.
         11    1    3    3    0    0  0.74795318488E+01  0.45424374290E+02  0.16458157296E+03  0.17089883363E+03  0.00000000000E+00 0. -1.
<mgrwt>
<rscale>  0 0.12466533E+03</rscale>
<asrwt>0</asrwt>
<pdfrwt beam="1">  1        2 0.20429179E+00 0.13310022E+03</pdfrwt>
<pdfrwt beam="2">  1       -2 0.19742727E-02 0.13310022E+03</pdfrwt>
<totfact> 0.12897610E+04</totfact>
</mgrwt>
</event>
<event>
 8    1  0.1273312E-005  0.1267447E+03  0.7546771E-02  0.1238766E+00
         -1   -1    0    0    0  501 -0.00000000000E+00  0.00000000000E+00  0.95226576896E+02  0.95226576896E+02  0.00000000000E+00 0.  1.
          1   -1    0    0  501    0  0.00000000000E+00 -0.00000000000E+00 -0.14872883156E+03  0.14872883156E+03  0.00000000000E+00 0. -1.
         23    2    1    2    0    0  0.15355512964E+02  0.60483106105E+02 -0.21874909165E+02  0.11332423558E+03  0.92031911950E+02 0.  0.
         23    2    1    2    0    0 -0.15355512964E+02 -0.60483106105E+02 -0.31627345501E+02  0.13063117287E+03  0.11031870395E+03 0.  0.
          5    1    4    4  502    0  0.21236518933E+02  0.24686777667E+02 -0.15707968813E+02  0.36458977114E+02  0.47000000000E+01 0. -1.
         -5    1    4    4    0  502 -0.36592031897E+02 -0.85169883773E+02 -0.15919376688E+02  0.94172195760E+02  0.47000000000E+01 0.  1.
        -11    1    3    3    0    0  0.30419551611E+02 -0.13144013508E+02 -0.18821466835E+02  0.38109865195E+02  0.00000000000E+00 0. -1.
         11    1    3    3    0    0 -0.15064038648E+02  0.73627119614E+02 -0.30534423304E+01  0.75214370389E+02  0.00000000000E+00 0.  1.
<mgrwt>
<rscale>  0 0.12266386E+03</rscale>
<asrwt>0</asrwt>
<pdfrwt beam="2">  1        1 0.22881358E-01 0.12674468E+03</pdfrwt>
<pdfrwt beam="1">  1       -1 0.14650243E-01 0.12674468E+03</pdfrwt>
<totfact> 0.67590365E+03</totfact>
</mgrwt>
</event>
<event>
 8    1  0.1493525E-005  0.1397879E+03  0.7546771E-02  0.1224378E+00
          2   -1    0    0  501    0  0.00000000000E+00  0.00000000000E+00  0.42726940102E+03  0.42726940102E+03  0.00000000000E+00 0. -1.
         -2   -1    0    0    0  501 -0.00000000000E+00 -0.00000000000E+00 -0.37800400451E+02  0.37800400451E+02  0.00000000000E+00 0.  1.
         23    2    1    2    0    0  0.48940580511E+02 -0.38990038585E+02  0.13837515745E+03  0.17768717506E+03  0.92247734136E+02 0.  0.
         23    2    1    2    0    0 -0.48940580511E+02  0.38990038585E+02  0.25109384312E+03  0.28738262641E+03  0.12500100951E+03 0.  0.
          5    1    4    4  502    0  0.35922161368E+02  0.39285751671E+02  0.11692138259E+03  0.12855532532E+03  0.47000000000E+01 0. -1.
         -5    1    4    4    0  502 -0.84862741879E+02 -0.29571308635E+00  0.13417246053E+03  0.15882730109E+03  0.47000000000E+01 0. -1.
        -11    1    3    3    0    0  0.33955580646E+02 -0.36148471919E+02  0.15033543864E+03  0.15830488808E+03  0.00000000000E+00 0. -1.
         11    1    3    3    0    0  0.14984999865E+02 -0.28415666658E+01 -0.11960281199E+02  0.19382286976E+02  0.00000000000E+00 0.  1.
<mgrwt>
<rscale>  0 0.13209593E+03</rscale>
<asrwt>0</asrwt>
<pdfrwt beam="1">  1        2 0.65733751E-01 0.13978790E+03</pdfrwt>
<pdfrwt beam="2">  1       -2 0.58154465E-02 0.13978790E+03</pdfrwt>
<totfact> 0.10958465E+04</totfact>
</mgrwt>
</event>
<event>
 8    1  0.1273312E-005  0.1953982E+03  0.7546771E-02  0.1157982E+00
         -1   -1    0    0    0  501 -0.00000000000E+00  0.00000000000E+00  0.88139672529E+02  0.88139672529E+02  0.00000000000E+00 0.  1.
          1   -1    0    0  501    0  0.00000000000E+00 -0.00000000000E+00 -0.45560810447E+03  0.45560810447E+03  0.00000000000E+00 0. -1.
         23    2    1    2    0    0 -0.82576933853E+02 -0.12544617077E+03 -0.74777296597E+02  0.19182652985E+03  0.93005815416E+02 0.  0.
         23    2    1    2    0    0  0.82576933853E+02  0.12544617077E+03 -0.29269113535E+03  0.35192124716E+03  0.12499908689E+03 0.  0.
          5    1    4    4  502    0  0.18925368644E+02  0.14322633870E+02 -0.17894401343E+03  0.18057230508E+03  0.47000000000E+01 0.  1.
         -5    1    4    4    0  502  0.63651565209E+02  0.11112353690E+03 -0.11374712192E+03  0.17134894208E+03  0.47000000000E+01 0.  1.
        -11    1    3    3    0    0  0.18217375850E+02 -0.22803656497E+02 -0.28282420461E+02  0.40642032918E+02  0.00000000000E+00 0. -1.
         11    1    3    3    0    0 -0.10079430970E+03 -0.10264251427E+03 -0.46494876136E+02  0.15118449693E+03  0.00000000000E+00 0.  1.
<mgrwt>
<rscale>  0 0.19053283E+03</rscale>
<asrwt>0</asrwt>
<pdfrwt beam="2">  1        1 0.70093554E-01 0.19539822E+03</pdfrwt>
<pdfrwt beam="1">  1       -1 0.13559950E-01 0.19539822E+03</pdfrwt>
<totfact> 0.19133600E+03</totfact>
</mgrwt>
</event>
<event>
 8    1  0.1273312E-005  0.1438802E+03  0.7546771E-02  0.1218486E+00
         -2   -1    0    0    0  501 -0.00000000000E+00  0.00000000000E+00  0.20807286028E+03  0.20807286028E+03  0.00000000000E+00 0.  1.
          2   -1    0    0  501    0  0.00000000000E+00 -0.00000000000E+00 -0.81223485208E+02  0.81223485208E+02  0.00000000000E+00 0. -1.
         23    2    1    2    0    0  0.65806275500E+02 -0.27455244775E+02  0.65182296342E+02  0.13275770489E+03  0.91058333451E+02 0.  0.
         23    2    1    2    0    0 -0.65806275500E+02  0.27455244775E+02  0.61667078729E+02  0.15653864060E+03  0.12496904032E+03 0.  0.
          5    1    4    4  502    0 -0.21724865317E+02  0.28896909780E+01  0.93857871323E+02  0.96497202531E+02  0.47000000000E+01 0. -1.
         -5    1    4    4    0  502 -0.44081410183E+02  0.24565553797E+02 -0.32190792594E+02  0.60041438065E+02  0.47000000000E+01 0. -1.
        -11    1    3    3    0    0  0.14449999471E+02 -0.34657611306E+02  0.71256170488E+02  0.80544362551E+02  0.00000000000E+00 0.  1.
         11    1    3    3    0    0  0.51356276029E+02  0.72023665310E+01 -0.60738741461E+01  0.52213342341E+02  0.00000000000E+00 0. -1.
<mgrwt>
<rscale>  0 0.13623575E+03</rscale>
<asrwt>0</asrwt>
<pdfrwt beam="2">  1        2 0.12495921E-01 0.14388022E+03</pdfrwt>
<pdfrwt beam="1">  1       -2 0.32011209E-01 0.14388022E+03</pdfrwt>
<totfact> 0.42287396E+03</totfact>
</mgrwt>
</event>
<event>
 8    1  0.1273312E-005  0.1312083E+03  0.7546771E-02  0.1238925E+00
          2   -1    0    0  501    0  0.00000000000E+00  0.00000000000E+00  0.38153486738E+03  0.38153486738E+03  0.00000000000E+00 0. -1.
         -2   -1    0    0    0  501 -0.00000000000E+00 -0.00000000000E+00 -0.36517150393E+02  0.36517150393E+02  0.00000000000E+00 0.  1.
         23    2    1    2    0    0 -0.26061448618E+02 -0.30223817315E+02  0.10785972448E+03  0.14701784046E+03  0.91585189911E+02 0.  0.
         23    2    1    2    0    0  0.26061448618E+02  0.30223817315E+02  0.23715799250E+03  0.27103417731E+03  0.12499173423E+03 0.  0.
          5    1    4    4  502    0  0.73936653986E+02  0.47369627686E+01  0.16231248017E+03  0.17848388957E+03  0.47000000000E+01 0.  1.
         -5    1    4    4    0  502 -0.47875205368E+02  0.25486854546E+02  0.74845512335E+02  0.92550287738E+02  0.47000000000E+01 0.  1.
        -11    1    3    3    0    0 -0.19774746972E+02  0.99778689345E+01 -0.85186253948E+01  0.23731107537E+02  0.00000000000E+00 0.  1.
         11    1    3    3    0    0 -0.62867016458E+01 -0.40201686249E+02  0.11637834988E+03  0.12328673292E+03  0.00000000000E+00 0. -1.
<mgrwt>
<rscale>  0 0.12256461E+03</rscale>
<asrwt>0</asrwt>
<pdfrwt beam="1">  1        2 0.58697669E-01 0.13120828E+03</pdfrwt>
<pdfrwt beam="2">  1       -2 0.56180234E-02 0.13120828E+03</pdfrwt>
<totfact> 0.12970356E+04</totfact>
</mgrwt>
</event>
<event>
 8    1  0.1273312E-005  0.1838543E+03  0.7546771E-02  0.1169451E+00
          2   -1    0    0  501    0  0.00000000000E+00  0.00000000000E+00  0.77082917611E+03  0.77082917611E+03  0.00000000000E+00 0. -1.
         -2   -1    0    0    0  501 -0.00000000000E+00 -0.00000000000E+00 -0.47365738085E+02  0.47365738085E+02  0.00000000000E+00 0.  1.
         23    2    1    2    0    0 -0.95772692566E+02 -0.94889625144E+02  0.17126221139E+03  0.23619097441E+03  0.90988909980E+02 0.  0.
         23    2    1    2    0    0  0.95772692566E+02  0.94889625144E+02  0.55220122663E+03  0.58200393979E+03  0.12500376647E+03 0.  0.
          5    1    4    4  502    0  0.12352554862E+02  0.40233698451E+02  0.38455301771E+03  0.38687782248E+03  0.47000000000E+01 0.  1.
         -5    1    4    4    0  502  0.83420137704E+02  0.54655926693E+02  0.16764820893E+03  0.19512611730E+03  0.47000000000E+01 0.  1.
        -11    1    3    3    0    0 -0.55261271723E+02  0.30359936770E+01  0.44860197388E+02  0.71242281826E+02  0.00000000000E+00 0.  1.
         11    1    3    3    0    0 -0.40511420843E+02 -0.97925618821E+02  0.12640201400E+03  0.16494869258E+03  0.00000000000E+00 0. -1.
<mgrwt>
<rscale>  0 0.17830751E+03</rscale>
<asrwt>0</asrwt>
<pdfrwt beam="1">  1        2 0.11858909E+00 0.18385427E+03</pdfrwt>
<pdfrwt beam="2">  1       -2 0.72870372E-02 0.18385427E+03</pdfrwt>
<totfact> 0.40125542E+03</totfact>
</mgrwt>
</event>
<event>
 8    1  0.1273312E-005  0.1284392E+03  0.7546771E-02  0.1248144E+00
         -1   -1    0    0    0  501 -0.00000000000E+00  0.00000000000E+00  0.24985249166E+02  0.24985249166E+02  0.00000000000E+00 0.  1.
          1   -1    0    0  501    0  0.00000000000E+00 -0.00000000000E+00 -0.47142581039E+03  0.47142581039E+03  0.00000000000E+00 0. -1.
         23    2    1    2    0    0  0.27425017139E+02  0.10894477176E+02 -0.17150625125E+03  0.19295510857E+03  0.83345416845E+02 0.  0.
         23    2    1    2    0    0 -0.27425017139E+02 -0.10894477176E+02 -0.27493430998E+03  0.30345595098E+03  0.12500327271E+03 0.  0.
          5    1    4    4  502    0  0.99796718712E+01 -0.44446099797E+02 -0.33336097374E+02  0.56643049229E+02  0.47000000000E+01 0.  1.
         -5    1    4    4    0  502 -0.37404689010E+02  0.33551622621E+02 -0.24159821260E+03  0.24681290175E+03  0.47000000000E+01 0.  1.
        -11    1    3    3    0    0 -0.28498805930E+02  0.10007426052E+02 -0.82270326018E+02  0.87639814347E+02  0.00000000000E+00 0. -1.
         11    1    3    3    0    0  0.55923823068E+02  0.88705112406E+00 -0.89235925231E+02  0.10531529423E+03  0.00000000000E+00 0.  1.
<mgrwt>
<rscale>  0 0.11699176E+03</rscale>
<asrwt>0</asrwt>
<pdfrwt beam="2">  1        1 0.72527050E-01 0.12843924E+03</pdfrwt>
<pdfrwt beam="1">  1       -1 0.38438843E-02 0.12843924E+03</pdfrwt>
<totfact> 0.12038594E+04</totfact>
</mgrwt>
</event>
<event>
 8    1  0.1273312E-005  0.1282500E+03  0.7546771E-02  0.1242829E+00
         -2   -1    0    0    0  501 -0.00000000000E+00  0.00000000000E+00  0.44442075133E+02  0.44442075133E+02  0.00000000000E+00 0.  1.
          2   -1    0    0  501    0  0.00000000000E+00 -0.00000000000E+00 -0.47353632396E+03  0.47353632396E+03  0.00000000000E+00 0. -1.
         23    2    1    2    0    0 -0.22668887702E+02 -0.17558835870E+02 -0.37151275779E+02  0.10558615120E+03  0.94583438541E+02 0.  0.
         23    2    1    2    0    0  0.22668887702E+02  0.17558835870E+02 -0.39194297305E+03  0.41239224790E+03  0.12500352321E+03 0.  0.
          5    1    4    4  502    0 -0.42590145840E+02  0.26142066606E+02 -0.26076224872E+03  0.26554918288E+03  0.47000000000E+01 0.  1.
         -5    1    4    4    0  502  0.65259033541E+02 -0.85832307358E+01 -0.13118072433E+03  0.14684306502E+03  0.47000000000E+01 0.  1.
        -11    1    3    3    0    0  0.29263489688E+02 -0.28491088873E+02 -0.66609706725E-01  0.40842360495E+02  0.00000000000E+00 0.  1.
         11    1    3    3    0    0 -0.51932377390E+02  0.10932253004E+02 -0.37084666072E+02  0.64743790704E+02  0.00000000000E+00 0. -1.
<mgrwt>
<rscale>  0 0.12016280E+03</rscale>
<asrwt>0</asrwt>
<pdfrwt beam="2">  1        2 0.72851746E-01 0.12825004E+03</pdfrwt>
<pdfrwt beam="1">  1       -2 0.68372420E-02 0.12825004E+03</pdfrwt>
<totfact> 0.76216927E+03</totfact>
</mgrwt>
</event>
<event>
 8    1  0.1273312E-005  0.1799287E+03  0.7546771E-02  0.1173632E+00
         -1   -1    0    0    0  501 -0.00000000000E+00  0.00000000000E+00  0.63052212266E+02  0.63052212266E+02  0.00000000000E+00 0. -1.
          1   -1    0    0  501    0  0.00000000000E+00 -0.00000000000E+00 -0.48606953159E+03  0.48606953159E+03  0.00000000000E+00 0.  1.
         23    2    1    2    0    0  0.11639609310E+03  0.56520207276E+02 -0.12615191692E+03  0.20198575790E+03  0.90229462657E+02 0.  0.
         23    2    1    2    0    0 -0.11639609310E+03 -0.56520207276E+02 -0.29686540240E+03  0.34713598596E+03  0.12502696223E+03 0.  0.
          5    1    4    4  502    0 -0.12048373361E+03 -0.22444107191E+02 -0.28541686428E+03  0.31065244957E+03  0.47000000000E+01 0.  1.
         -5    1    4    4    0  502  0.40876405118E+01 -0.34076100084E+02 -0.11448538127E+02  0.36483536385E+02  0.47000000000E+01 0.  1.
        -11    1    3    3    0    0  0.10668570182E+03  0.10358263002E+02 -0.10580812076E+03  0.15061371453E+03  0.00000000000E+00 0. -1.
         11    1    3    3    0    0  0.97103912820E+01  0.46161944273E+02 -0.20343796163E+02  0.51372043373E+02  0.00000000000E+00 0.  1.
<mgrwt>
<rscale>  0 0.17410657E+03</rscale>
<asrwt>0</asrwt>
<pdfrwt beam="2">  1        1 0.74779927E-01 0.17992867E+03</pdfrwt>
<pdfrwt beam="1">  1       -1 0.97003405E-02 0.17992867E+03</pdfrwt>
<totfact> 0.29497434E+03</totfact>
</mgrwt>
</event>
<event>
 8    1  0.1273312E-005  0.2699331E+03  0.7546771E-02  0.1103115E+00
          2   -1    0    0  501    0  0.00000000000E+00  0.00000000000E+00  0.65106580220E+03  0.65106580220E+03  0.00000000000E+00 0. -1.
         -2   -1    0    0    0  501 -0.00000000000E+00 -0.00000000000E+00 -0.10732128855E+03  0.10732128855E+03  0.00000000000E+00 0.  1.
         23    2    1    2    0    0  0.12762241504E+03  0.20236094863E+03  0.24167244826E+03  0.35328040513E+03  0.95728982299E+02 0.  0.
         23    2    1    2    0    0 -0.12762241504E+03 -0.20236094863E+03  0.30207206539E+03  0.40510668562E+03  0.12500583865E+03 0.  0.
          5    1    4    4  502    0 -0.15206094991E+03 -0.18510444141E+03  0.27056846315E+03  0.36140776136E+03  0.47000000000E+01 0. -1.
         -5    1    4    4    0  502  0.24438534867E+02 -0.17256507215E+02  0.31503602241E+02  0.43698924265E+02  0.47000000000E+01 0. -1.
        -11    1    3    3    0    0  0.11394197286E+03  0.92718921617E+02  0.14622260685E+03  0.20726944387E+03  0.00000000000E+00 0. -1.
         11    1    3    3    0    0  0.13680442179E+02  0.10964202701E+03  0.95449841406E+02  0.14601096127E+03  0.00000000000E+00 0.  1.
<mgrwt>
<rscale>  0 0.26681753E+03</rscale>
<asrwt>0</asrwt>
<pdfrwt beam="1">  1        2 0.10016397E+00 0.26993313E+03</pdfrwt>
<pdfrwt beam="2">  1       -2 0.16510968E-01 0.26993313E+03</pdfrwt>
<totfact> 0.13353969E+03</totfact>
</mgrwt>
</event>
<event>
 8    1  0.1273312E-005  0.1609394E+03  0.7546771E-02  0.1193362E+00
          2   -1    0    0  501    0  0.00000000000E+00  0.00000000000E+00  0.84291407221E+03  0.84291407221E+03  0.00000000000E+00 0.  1.
         -2   -1    0    0    0  501 -0.00000000000E+00 -0.00000000000E+00 -0.27354104052E+02  0.27354104052E+02  0.00000000000E+00 0. -1.
         23    2    1    2    0    0  0.57734625473E+02  0.83324762985E+02  0.34865577949E+03  0.37640480782E+03  0.99214029604E+02 0.  0.
         23    2    1    2    0    0 -0.57734625473E+02 -0.83324762985E+02  0.46690418866E+03  0.49386336844E+03  0.12500080877E+03 0.  0.
          5    1    4    4  502    0  0.73603564384E+01 -0.78286739939E+02  0.35994455414E+03  0.36846324180E+03  0.47000000000E+01 0.  1.
         -5    1    4    4    0  502 -0.65094981911E+02 -0.50380230450E+01  0.10695963452E+03  0.12540012665E+03  0.47000000000E+01 0.  1.
        -11    1    3    3    0    0  0.56349611742E+02  0.53131833438E+02  0.33391132904E+03  0.34277550398E+03  0.00000000000E+00 0.  1.
         11    1    3    3    0    0  0.13850137303E+01  0.30192929546E+02  0.14744450457E+02  0.33629303842E+02  0.00000000000E+00 0. -1.
<mgrwt>
<rscale>  0 0.15593717E+03</rscale>
<asrwt>0</asrwt>
<pdfrwt beam="1">  1        2 0.12967907E+00 0.16093945E+03</pdfrwt>
<pdfrwt beam="2">  1       -2 0.42083243E-02 0.16093945E+03</pdfrwt>
<totfact> 0.82099104E+03</totfact>
</mgrwt>
</event>
<event>
 8    1  0.1273312E-005  0.1769995E+03  0.7546771E-02  0.1177039E+00
         -2   -1    0    0    0  501 -0.00000000000E+00  0.00000000000E+00  0.25972695602E+02  0.25972695602E+02  0.00000000000E+00 0. -1.
          2   -1    0    0  501    0  0.00000000000E+00 -0.00000000000E+00 -0.10681501337E+04  0.10681501337E+04  0.00000000000E+00 0.  1.
         23    2    1    2    0    0  0.69687665865E+01  0.12498219009E+03 -0.41479235211E+03  0.44224794990E+03  0.88664774677E+02 0.  0.
         23    2    1    2    0    0 -0.69687665865E+01 -0.12498219009E+03 -0.62738508599E+03  0.65187487941E+03  0.12513872595E+03 0.  0.
          5    1    4    4  502    0  0.56294325248E+02 -0.37862331277E+02 -0.28101328444E+03  0.28912482290E+03  0.47000000000E+01 0. -1.
         -5    1    4    4    0  502 -0.63263091835E+02 -0.87119858817E+02 -0.34637180155E+03  0.36275005651E+03  0.47000000000E+01 0. -1.
        -11    1    3    3    0    0  0.32621129266E+02  0.19602881003E+02 -0.58299541859E+02  0.69622177495E+02  0.00000000000E+00 0. -1.
         11    1    3    3    0    0 -0.25652362679E+02  0.10537930909E+03 -0.35649281025E+03  0.37262577240E+03  0.00000000000E+00 0.  1.
<mgrwt>
<rscale>  0 0.17077842E+03</rscale>
<asrwt>0</asrwt>
<pdfrwt beam="2">  1        2 0.16433080E+00 0.17699947E+03</pdfrwt>
<pdfrwt beam="1">  1       -2 0.39957991E-02 0.17699947E+03</pdfrwt>
<totfact> 0.64628603E+03</totfact>
</mgrwt>
</event>
<event>
 8    1  0.1273312E-005  0.1196135E+03  0.7546771E-02  0.1258409E+00
          3   -1    0    0  501    0  0.00000000000E+00  0.00000000000E+00  0.36072012589E+03  0.36072012589E+03  0.00000000000E+00 0. -1.
         -3   -1    0    0    0  501 -0.00000000000E+00 -0.00000000000E+00 -0.71716251832E+02  0.71716251832E+02  0.00000000000E+00 0.  1.
         23    2    1    2    0    0 -0.19008372854E+02  0.81034794085E+01 -0.28049105373E+02  0.93570667743E+02  0.86843151328E+02 0.  0.
         23    2    1    2    0    0  0.19008372854E+02 -0.81034794085E+01  0.31705297943E+03  0.33886570998E+03  0.11781507975E+03 0.  0.
          5    1    4    4  502    0 -0.80179223136E+01 -0.57287644595E+02  0.21039209964E+03  0.21825005589E+03  0.47000000000E+01 0. -1.
         -5    1    4    4    0  502  0.27026295167E+02  0.49184165186E+02  0.10666087979E+03  0.12061565409E+03  0.47000000000E+01 0.  1.
        -11    1    3    3    0    0 -0.24890271178E+02  0.40834793128E+02 -0.35416055984E+02  0.59508847666E+02  0.00000000000E+00 0.  1.
         11    1    3    3    0    0  0.58818983245E+01 -0.32731313719E+02  0.73669506108E+01  0.34061820077E+02  0.00000000000E+00 0. -1.
<mgrwt>
<rscale>  0 0.11117537E+03</rscale>
<asrwt>0</asrwt>
<pdfrwt beam="1">  1        3 0.55495403E-01 0.11961345E+03</pdfrwt>
<pdfrwt beam="2">  1       -3 0.11033270E-01 0.11961345E+03</pdfrwt>
<totfact> 0.46133175E+02</totfact>
</mgrwt>
</event>
<event>
 8    1  0.1273312E-005  0.1284726E+03  0.7546771E-02  0.1243794E+00
         -4   -1    0    0    0  501 -0.00000000000E+00  0.00000000000E+00  0.12748166577E+03  0.12748166577E+03  0.00000000000E+00 0.  1.
          4   -1    0    0  501    0  0.00000000000E+00 -0.00000000000E+00 -0.10310314418E+03  0.10310314418E+03  0.00000000000E+00 0. -1.
         23    2    1    2    0    0  0.21030157474E+02 -0.20902548259E+02  0.32765515983E+02  0.10183870768E+03  0.91751617411E+02 0.  0.
         23    2    1    2    0    0 -0.21030157474E+02  0.20902548259E+02 -0.83869943852E+01  0.12874610227E+03  0.12500413244E+03 0.  0.
          5    1    4    4  502    0  0.42389704961E+02 -0.12244876224E+02 -0.30332593616E+02  0.53749235491E+02  0.47000000000E+01 0.  1.
         -5    1    4    4    0  502 -0.63419862434E+02  0.33147424483E+02  0.21945599231E+02  0.74996866779E+02  0.47000000000E+01 0.  1.
        -11    1    3    3    0    0  0.67122625870E+01  0.92934649890E+01  0.58529561344E+02  0.59641701113E+02  0.00000000000E+00 0.  1.
         11    1    3    3    0    0  0.14317894887E+02 -0.30196013248E+02 -0.25764045360E+02  0.42197006569E+02  0.00000000000E+00 0. -1.
<mgrwt>
<rscale>  0 0.11957875E+03</rscale>
<asrwt>0</asrwt>
<pdfrwt beam="2">  1        4 0.15862022E-01 0.12847263E+03</pdfrwt>
<pdfrwt beam="1">  1       -4 0.19612564E-01 0.12847263E+03</pdfrwt>
<totfact> 0.12998374E+03</totfact>
</mgrwt>
</event>
<event>
 8    1  0.1273312E-005  0.1591546E+03  0.7546771E-02  0.1197838E+00
          2   -1    0    0  501    0  0.00000000000E+00  0.00000000000E+00  0.42168063760E+03  0.42168063760E+03  0.00000000000E+00 0. -1.
         -2   -1    0    0    0  501 -0.00000000000E+00 -0.00000000000E+00 -0.10088360576E+03  0.10088360576E+03  0.00000000000E+00 0.  1.
         23    2    1    2    0    0  0.10765055737E+02 -0.97931967948E+02 -0.30904655278E+02  0.13652762704E+03  0.89320425746E+02 0.  0.
         23    2    1    2    0    0 -0.10765055737E+02  0.97931967948E+02  0.35170168712E+03  0.38603661633E+03  0.12499454251E+03 0.  0.
          5    1    4    4  502    0  0.54231921975E+02  0.68710225603E+02  0.18785370523E+03  0.20730002661E+03  0.47000000000E+01 0.  1.
         -5    1    4    4    0  502 -0.64996977711E+02  0.29221742344E+02  0.16384798188E+03  0.17873658972E+03  0.47000000000E+01 0.  1.
        -11    1    3    3    0    0  0.33196363609E+02 -0.94878500883E+02 -0.44708739575E+02  0.11001272600E+03  0.00000000000E+00 0.  1.
         11    1    3    3    0    0 -0.22431307872E+02 -0.30534670648E+01  0.13804084297E+02  0.26514901041E+02  0.00000000000E+00 0. -1.
<mgrwt>
<rscale>  0 0.15216478E+03</rscale>
<asrwt>0</asrwt>
<pdfrwt beam="1">  1        2 0.64873943E-01 0.15915462E+03</pdfrwt>
<pdfrwt beam="2">  1       -2 0.15520555E-01 0.15915462E+03</pdfrwt>
<totfact> 0.23912314E+03</totfact>
</mgrwt>
</event>
<event>
 8    1  0.1273312E-005  0.1789394E+03  0.7546771E-02  0.1174619E+00
         -2   -1    0    0    0  501 -0.00000000000E+00  0.00000000000E+00  0.55333733260E+02  0.55333733260E+02  0.00000000000E+00 0.  1.
          2   -1    0    0  501    0  0.00000000000E+00 -0.00000000000E+00 -0.56721856439E+03  0.56721856439E+03  0.00000000000E+00 0. -1.
         23    2    1    2    0    0  0.24201032561E+02 -0.12573214816E+03 -0.14156463240E+03  0.21126609416E+03  0.90545868687E+02 0.  0.
         23    2    1    2    0    0 -0.24201032561E+02  0.12573214816E+03 -0.37032019873E+03  0.41128620349E+03  0.12500011414E+03 0.  0.
          5    1    4    4  502    0 -0.61159789729E+02  0.12564721470E+03 -0.31443263738E+03  0.34411875260E+03  0.47000000000E+01 0. -1.
         -5    1    4    4    0  502  0.36958757168E+02  0.84933459568E-01 -0.55887561352E+02  0.67167450889E+02  0.47000000000E+01 0. -1.
        -11    1    3    3    0    0  0.27592795449E+02 -0.62006975634E+02 -0.14975918021E+02  0.69501838166E+02  0.00000000000E+00 0.  1.
         11    1    3    3    0    0 -0.33917628880E+01 -0.63725172529E+02 -0.12658871438E+03  0.14176425599E+03  0.00000000000E+00 0. -1.
<mgrwt>
<rscale>  0 0.17313323E+03</rscale>
<asrwt>0</asrwt>
<pdfrwt beam="2">  1        2 0.87264394E-01 0.17893935E+03</pdfrwt>
<pdfrwt beam="1">  1       -2 0.85128821E-02 0.17893935E+03</pdfrwt>
<totfact> 0.45260228E+03</totfact>
</mgrwt>
</event>
<event>
 8    1  0.1273312E-005  0.1293450E+03  0.7546771E-02  0.1242371E+00
         -1   -1    0    0    0  501 -0.00000000000E+00  0.00000000000E+00  0.38373750734E+02  0.38373750734E+02  0.00000000000E+00 0.  1.
          1   -1    0    0  501    0  0.00000000000E+00 -0.00000000000E+00 -0.47215356405E+03  0.47215356405E+03  0.00000000000E+00 0. -1.
         23    2    1    2    0    0 -0.29481452351E+01  0.33053846002E+02 -0.58266640860E+02  0.11336200566E+03  0.91404018481E+02 0.  0.
         23    2    1    2    0    0  0.29481452351E+01 -0.33053846002E+02 -0.37551317246E+03  0.39716530913E+03  0.12501556618E+03 0.  0.
          5    1    4    4  502    0 -0.54668142428E+01 -0.79104222288E+02 -0.27396259607E+03  0.28524543482E+03  0.47000000000E+01 0. -1.
         -5    1    4    4    0  502  0.84149594779E+01  0.46050376286E+02 -0.10155057639E+03  0.11191987431E+03  0.47000000000E+01 0. -1.
        -11    1    3    3    0    0 -0.11040710231E+02 -0.23373112419E+02  0.69265946781E+01  0.26761490624E+02  0.00000000000E+00 0.  1.
         11    1    3    3    0    0  0.80925649964E+01  0.56426958421E+02 -0.65193235538E+02  0.86600515037E+02  0.00000000000E+00 0. -1.
<mgrwt>
<rscale>  0 0.12044130E+03</rscale>
<asrwt>0</asrwt>
<pdfrwt beam="2">  1        1 0.72639010E-01 0.12934504E+03</pdfrwt>
<pdfrwt beam="1">  1       -1 0.59036539E-02 0.12934504E+03</pdfrwt>
<totfact> 0.63834571E+03</totfact>
</mgrwt>
</event>
<event>
 8    1  0.1273312E-005  0.1252776E+03  0.7546771E-02  0.1253968E+00
         -1   -1    0    0    0  501 -0.00000000000E+00  0.00000000000E+00  0.10291726735E+03  0.10291726735E+03  0.00000000000E+00 0.  1.
          1   -1    0    0  501    0  0.00000000000E+00 -0.00000000000E+00 -0.11096227196E+03  0.11096227196E+03  0.00000000000E+00 0. -1.
         23    2    1    2    0    0 -0.70252041721E+01  0.43472962645E+01  0.15966937820E+02  0.86321503914E+02  0.84428706351E+02 0.  0.
         23    2    1    2    0    0  0.70252041721E+01 -0.43472962645E+01 -0.24011942430E+02  0.12755803540E+03  0.12500490605E+03 0.  0.
          5    1    4    4  502    0 -0.72523497632E+00 -0.63230403449E+02 -0.22816925898E+00  0.63409399518E+02  0.47000000000E+01 0.  1.
         -5    1    4    4    0  502  0.77504391484E+01  0.58883107184E+02 -0.23783773171E+02  0.64148635877E+02  0.47000000000E+01 0.  1.
        -11    1    3    3    0    0 -0.12273226496E+02 -0.38890865833E+02  0.12376986581E+02  0.42618321538E+02  0.00000000000E+00 0. -1.
         11    1    3    3    0    0  0.52480223238E+01  0.43238162098E+02  0.35899512388E+01  0.43703182376E+02  0.00000000000E+00 0.  1.
<mgrwt>
<rscale>  0 0.11364359E+03</rscale>
<asrwt>0</asrwt>
<pdfrwt beam="2">  1        1 0.17071119E-01 0.12527761E+03</pdfrwt>
<pdfrwt beam="1">  1       -1 0.15833426E-01 0.12527761E+03</pdfrwt>
<totfact> 0.86731189E+03</totfact>
</mgrwt>
</event>
<event>
 8    1  0.1273312E-005  0.1301929E+03  0.7546771E-02  0.1241747E+00
         -2   -1    0    0    0  501 -0.00000000000E+00  0.00000000000E+00  0.30538652393E+03  0.30538652393E+03  0.00000000000E+00 0.  1.
          2   -1    0    0  501    0  0.00000000000E+00 -0.00000000000E+00 -0.42219360899E+02  0.42219360899E+02  0.00000000000E+00 0. -1.
         23    2    1    2    0    0  0.31345260473E+02  0.18514341035E+02  0.12150420676E+03  0.15520373027E+03  0.89440591733E+02 0.  0.
         23    2    1    2    0    0 -0.31345260473E+02 -0.18514341035E+02  0.14166295627E+03  0.19240215456E+03  0.12499955889E+03 0.  0.
          5    1    4    4  502    0 -0.62049379306E+02 -0.52425740821E+02  0.70434571917E+02  0.10761831951E+03  0.47000000000E+01 0.  1.
         -5    1    4    4    0  502  0.30704118834E+02  0.33911399786E+02  0.71228384353E+02  0.84783835053E+02  0.47000000000E+01 0.  1.
        -11    1    3    3    0    0  0.40651927507E+02  0.10950751275E+02  0.13244185919E+03  0.13897245853E+03  0.00000000000E+00 0.  1.
         11    1    3    3    0    0 -0.93066670348E+01  0.75635897598E+01 -0.10937652433E+02  0.16231271734E+02  0.00000000000E+00 0. -1.
<mgrwt>
<rscale>  0 0.12082205E+03</rscale>
<asrwt>0</asrwt>
<pdfrwt beam="2">  1        2 0.64952865E-02 0.13019292E+03</pdfrwt>
<pdfrwt beam="1">  1       -2 0.46982541E-01 0.13019292E+03</pdfrwt>
<totfact> 0.45899243E+03</totfact>
</mgrwt>
</event>
<event>
 8    1  0.1273312E-005  0.1599380E+03  0.7546771E-02  0.1195905E+00
          2   -1    0    0  501    0  0.00000000000E+00  0.00000000000E+00  0.47461658650E+02  0.47461658650E+02  0.00000000000E+00 0. -1.
         -2   -1    0    0    0  501 -0.00000000000E+00 -0.00000000000E+00 -0.46374599285E+03  0.46374599285E+03  0.00000000000E+00 0.  1.
         23    2    1    2    0    0 -0.94872643636E+02  0.30887926181E+02 -0.19809114259E+03  0.24067403815E+03  0.93429167688E+02 0.  0.
         23    2    1    2    0    0  0.94872643636E+02 -0.30887926181E+02 -0.21819319161E+03  0.27053361335E+03  0.12500113836E+03 0.  0.
          5    1    4    4  502    0  0.86819143048E+02 -0.41872022216E+02 -0.23156962242E+03  0.25087329446E+03  0.47000000000E+01 0.  1.
         -5    1    4    4    0  502  0.80535005886E+01  0.10984096034E+02  0.13376430813E+02  0.19660318886E+02  0.47000000000E+01 0.  1.
        -11    1    3    3    0    0  0.18433355079E+02  0.30505327386E+01 -0.40403934508E+02  0.44514854298E+02  0.00000000000E+00 0.  1.
         11    1    3    3    0    0 -0.11330599872E+03  0.27837393443E+02 -0.15768720808E+03  0.19615918386E+03  0.00000000000E+00 0. -1.
<mgrwt>
<rscale>  0 0.15377905E+03</rscale>
<asrwt>0</asrwt>
<pdfrwt beam="1">  1        2 0.73017939E-02 0.15993801E+03</pdfrwt>
<pdfrwt beam="2">  1       -2 0.71345534E-01 0.15993801E+03</pdfrwt>
<totfact> 0.17061303E+03</totfact>
</mgrwt>
</event>
<event>
 8    1  0.1273312E-005  0.2075729E+03  0.7546771E-02  0.1147532E+00
         -2   -1    0    0    0  501 -0.00000000000E+00  0.00000000000E+00  0.42106785003E+02  0.42106785003E+02  0.00000000000E+00 0.  1.
          2   -1    0    0  501    0  0.00000000000E+00 -0.00000000000E+00 -0.10094058246E+04  0.10094058246E+04  0.00000000000E+00 0. -1.
         23    2    1    2    0    0 -0.72752958426E+02 -0.14890303033E+03 -0.31632029275E+03  0.36824118449E+03  0.89877343895E+02 0.  0.
         23    2    1    2    0    0  0.72752958426E+02  0.14890303033E+03 -0.65097874685E+03  0.68327142512E+03  0.12498562371E+03 0.  0.
          5    1    4    4  502    0  0.74532785167E+02  0.18643960807E+02 -0.25788372232E+03  0.26912606261E+03  0.47000000000E+01 0.  1.
         -5    1    4    4    0  502 -0.17798267408E+01  0.13025906952E+03 -0.39309502454E+03  0.41414536252E+03  0.47000000000E+01 0.  1.
        -11    1    3    3    0    0 -0.61084043388E+02 -0.38414171576E+02 -0.16868410310E+03  0.18346998548E+03  0.00000000000E+00 0. -1.
         11    1    3    3    0    0 -0.11668915039E+02 -0.11048885876E+03 -0.14763618965E+03  0.18477119901E+03  0.00000000000E+00 0.  1.
<mgrwt>
<rscale>  0 0.20263867E+03</rscale>
<asrwt>0</asrwt>
<pdfrwt beam="2">  1        2 0.15529321E+00 0.20757291E+03</pdfrwt>
<pdfrwt beam="1">  1       -2 0.64779667E-02 0.20757291E+03</pdfrwt>
<totfact> 0.33827495E+03</totfact>
</mgrwt>
</event>
<event>
 8    1  0.1273312E-005  0.1501988E+03  0.7546771E-02  0.1209393E+00
         -2   -1    0    0    0  501 -0.00000000000E+00  0.00000000000E+00  0.18541740795E+02  0.18541740795E+02  0.00000000000E+00 0.  1.
          2   -1    0    0  501    0  0.00000000000E+00 -0.00000000000E+00 -0.10097119159E+04  0.10097119159E+04  0.00000000000E+00 0. -1.
         23    2    1    2    0    0 -0.79530553776E+02 -0.24626518344E+02 -0.46465179338E+03  0.48073078259E+03  0.90935261827E+02 0.  0.
         23    2    1    2    0    0  0.79530553776E+02  0.24626518344E+02 -0.52651838168E+03  0.54752287407E+03  0.12501246733E+03 0.  0.
          5    1    4    4  502    0  0.10128797129E+03  0.47818760776E+02 -0.46242118418E+03  0.47581648626E+03  0.47000000000E+01 0. -1.
         -5    1    4    4    0  502 -0.21757417515E+02 -0.23192242432E+02 -0.64097197497E+02  0.71706387811E+02  0.47000000000E+01 0. -1.
        -11    1    3    3    0    0 -0.30829474578E+02 -0.56885574671E+02 -0.23144992578E+03  0.24032372595E+03  0.00000000000E+00 0.  1.
         11    1    3    3    0    0 -0.48701079198E+02  0.32259056327E+02 -0.23320186760E+03  0.24040705664E+03  0.00000000000E+00 0. -1.
<mgrwt>
<rscale>  0 0.14296615E+03</rscale>
<asrwt>0</asrwt>
<pdfrwt beam="2">  1        2 0.15534029E+00 0.15019884E+03</pdfrwt>
<pdfrwt beam="1">  1       -2 0.28525756E-02 0.15019884E+03</pdfrwt>
<totfact> 0.11448682E+04</totfact>
</mgrwt>
</event>
<event>
 7    1  0.1273312E-005  0.1989072E+03  0.7546771E-02  0.1163496E+00
         -1   -1    0    0    0  501 -0.00000000000E+00  0.00000000000E+00  0.11836285757E+03  0.11836285757E+03  0.00000000000E+00 0.  1.
          1   -1    0    0  501    0  0.00000000000E+00 -0.00000000000E+00 -0.46826176466E+03  0.46826176466E+03  0.00000000000E+00 0. -1.
         23    2    1    2    0    0  0.24072895684E+02 -0.11327255714E+03  0.36733191194E+02  0.15182758880E+03  0.91061039303E+02 0.  0.
          5    1    1    2  502    0 -0.36789131039E+02  0.92422841314E+02 -0.39591772066E+03  0.40825035615E+03  0.47000000000E+01 0. -1.
         -5    1    1    2    0  502  0.12716235355E+02  0.20849715824E+02  0.92856223847E+01  0.26546677280E+02  0.47000000000E+01 0.  1.
        -11    1    3    3    0    0 -0.20960550817E+02 -0.85994321808E+02  0.15914302648E+01  0.88526271377E+02  0.00000000000E+00 0.  1.
         11    1    3    3    0    0  0.45033446501E+02 -0.27278235331E+02  0.35141760929E+02  0.63301317425E+02  0.00000000000E+00 0. -1.
<mgrwt>
<rscale>  0 0.18452325E+03</rscale>
<asrwt>0</asrwt>
<pdfrwt beam="2">  1        1 0.72040270E-01 0.19890722E+03</pdfrwt>
<pdfrwt beam="1">  1       -1 0.18209671E-01 0.19890722E+03</pdfrwt>
<totfact> 0.11565158E+03</totfact>
</mgrwt>
</event>
<event>
 8    1  0.1273312E-005  0.1281037E+03  0.7546771E-02  0.1247535E+00
          1   -1    0    0  501    0  0.00000000000E+00  0.00000000000E+00  0.33350527580E+03  0.33350527580E+03  0.00000000000E+00 0. -1.
         -1   -1    0    0    0  501 -0.00000000000E+00 -0.00000000000E+00 -0.35729939025E+02  0.35729939025E+02  0.00000000000E+00 0.  1.
         23    2    1    2    0    0  0.16933288212E+02  0.22332965343E+02  0.12108381003E+03  0.15099120290E+03  0.85741219429E+02 0.  0.
         23    2    1    2    0    0 -0.16933288212E+02 -0.22332965343E+02  0.17669152674E+03  0.21824401193E+03  0.12500022212E+03 0.  0.
          5    1    4    4  502    0 -0.15089580253E+02 -0.53979061507E+02  0.22206673326E+02  0.60470330357E+02  0.47000000000E+01 0.  1.
         -5    1    4    4    0  502 -0.18437079598E+01  0.31646096163E+02  0.15448485341E+03  0.15777368157E+03  0.47000000000E+01 0.  1.
        -11    1    3    3    0    0 -0.26882000177E+02 -0.58192138184E+01  0.11793660745E+02  0.29926503584E+02  0.00000000000E+00 0.  1.
         11    1    3    3    0    0  0.43815288389E+02  0.28152179162E+02  0.10929014929E+03  0.12106469931E+03  0.00000000000E+00 0. -1.
<mgrwt>
<rscale>  0 0.11734906E+03</rscale>
<asrwt>0</asrwt>
<pdfrwt beam="1">  1        1 0.51308502E-01 0.12810368E+03</pdfrwt>
<pdfrwt beam="2">  1       -1 0.54969139E-02 0.12810368E+03</pdfrwt>
<totfact> 0.10990499E+04</totfact>
</mgrwt>
</event>
<event>
 7    1  0.1273312E-005  0.1640772E+03  0.7546771E-02  0.1199636E+00
          2   -1    0    0  501    0  0.00000000000E+00  0.00000000000E+00  0.29012775368E+03  0.29012775368E+03  0.00000000000E+00 0. -1.
         -2   -1    0    0    0  501 -0.00000000000E+00 -0.00000000000E+00 -0.68924181567E+02  0.68924181567E+02  0.00000000000E+00 0.  1.
         23    2    1    2    0    0  0.60173420057E+02 -0.36238462814E+02  0.71038650509E+02  0.13663155082E+03  0.93207425369E+02 0.  0.
          5    1    1    2  502    0 -0.57273960878E+02  0.48455131182E+02  0.17706754598E+03  0.19236219008E+03  0.47000000000E+01 0. -1.
         -5    1    1    2    0  502 -0.28994591798E+01 -0.12216668369E+02 -0.26902624373E+02  0.30058194353E+02  0.47000000000E+01 0.  1.
        -11    1    3    3    0    0  0.75157826232E+02 -0.53715064931E+02  0.64603559681E+02  0.11272811081E+03  0.00000000000E+00 0.  1.
         11    1    3    3    0    0 -0.14984406174E+02  0.17476602117E+02  0.64350908273E+01  0.23903440002E+02  0.00000000000E+00 0. -1.
<mgrwt>
<rscale>  0 0.15068327E+03</rscale>
<asrwt>0</asrwt>
<pdfrwt beam="1">  1        2 0.44635038E-01 0.16407719E+03</pdfrwt>
<pdfrwt beam="2">  1       -2 0.10603720E-01 0.16407719E+03</pdfrwt>
<totfact> 0.66084419E+03</totfact>
</mgrwt>
</event>
<event>
 7    1  0.1273312E-005  0.2367345E+03  0.7546771E-02  0.1152932E+00
          2   -1    0    0  501    0  0.00000000000E+00  0.00000000000E+00  0.24900155473E+03  0.24900155473E+03  0.00000000000E+00 0. -1.
         -2   -1    0    0    0  501 -0.00000000000E+00 -0.00000000000E+00 -0.14632708705E+03  0.14632708705E+03  0.00000000000E+00 0.  1.
         23    2    1    2    0    0 -0.11277937805E+02  0.61632688224E+02 -0.40183483645E+02  0.11882979217E+03  0.92628435217E+02 0.  0.
          5    1    1    2  502    0 -0.29996939758E+02  0.20634523647E+02  0.17506488526E+03  0.17887259156E+03  0.47000000000E+01 0. -1.
         -5    1    1    2    0  502  0.41274877562E+02 -0.82267211871E+02 -0.32206933931E+02  0.97626258046E+02  0.47000000000E+01 0.  1.
        -11    1    3    3    0    0  0.32316657265E+02 -0.44519929952E+01 -0.13155786097E+02  0.35174725105E+02  0.00000000000E+00 0. -1.
         11    1    3    3    0    0 -0.43594595069E+02  0.66084681219E+02 -0.27027697548E+02  0.83655067066E+02  0.00000000000E+00 0.  1.
<mgrwt>
<rscale>  0 0.19626150E+03</rscale>
<asrwt>0</asrwt>
<pdfrwt beam="1">  1        2 0.38307932E-01 0.23673449E+03</pdfrwt>
<pdfrwt beam="2">  1       -2 0.22511860E-01 0.23673449E+03</pdfrwt>
<totfact> 0.22752342E+03</totfact>
</mgrwt>
</event>
<event>
 8    1  0.1273312E-005  0.1485148E+03  0.7546771E-02  0.1211233E+00
          1   -1    0    0  501    0  0.00000000000E+00  0.00000000000E+00  0.51231032403E+03  0.51231032403E+03  0.00000000000E+00 0. -1.
         -1   -1    0    0    0  501 -0.00000000000E+00 -0.00000000000E+00 -0.54544897347E+02  0.54544897347E+02  0.00000000000E+00 0.  1.
         23    2    1    2    0    0  0.56970884354E+02  0.56496390663E+02  0.49181017904E+02  0.13211635949E+03  0.92727752590E+02 0.  0.
         23    2    1    2    0    0 -0.56970884354E+02 -0.56496390663E+02  0.40858440878E+03  0.43473886189E+03  0.12497653826E+03 0.  0.
          5    1    4    4  502    0 -0.72330819378E+01 -0.55749144586E+02  0.59103635916E+02  0.81704433019E+02  0.47000000000E+01 0. -1.
         -5    1    4    4    0  502 -0.49737802416E+02 -0.74724607679E+00  0.34948077287E+03  0.35303442887E+03  0.47000000000E+01 0. -1.
        -11    1    3    3    0    0  0.54677810983E+02  0.28823872256E+02 -0.13759441625E+02  0.63322988397E+02  0.00000000000E+00 0.  1.
         11    1    3    3    0    0  0.22930733711E+01  0.27672518407E+02  0.62940459528E+02  0.68793371091E+02  0.00000000000E+00 0. -1.
<mgrwt>
<rscale>  0 0.14156920E+03</rscale>
<asrwt>0</asrwt>
<pdfrwt beam="1">  1        1 0.78816970E-01 0.14851484E+03</pdfrwt>
<pdfrwt beam="2">  1       -1 0.83915230E-02 0.14851484E+03</pdfrwt>
<totfact> 0.34098916E+03</totfact>
</mgrwt>
</event>
<event>
 8    1  0.1273312E-005  0.1387460E+03  0.7546771E-02  0.1226357E+00
          2   -1    0    0  501    0  0.00000000000E+00  0.00000000000E+00  0.52046403782E+02  0.52046403782E+02  0.00000000000E+00 0. -1.
         -2   -1    0    0    0  501 -0.00000000000E+00 -0.00000000000E+00 -0.30417610103E+03  0.30417610103E+03  0.00000000000E+00 0.  1.
         23    2    1    2    0    0  0.82194884448E+01  0.59678934135E+02 -0.14096239012E+03  0.17843432993E+03  0.91319655611E+02 0.  0.
         23    2    1    2    0    0 -0.82194884448E+01 -0.59678934135E+02 -0.11116730713E+03  0.17778817488E+03  0.12498531827E+03 0.  0.
          5    1    4    4  502    0  0.46037574335E+02 -0.34716413019E+02 -0.10188638515E+03  0.11716489689E+03  0.47000000000E+01 0. -1.
         -5    1    4    4    0  502 -0.54257062780E+02 -0.24962521116E+02 -0.92809219805E+01  0.60623277994E+02  0.47000000000E+01 0. -1.
        -11    1    3    3    0    0 -0.25887971209E+02 -0.78437022695E+01 -0.68636822068E+02  0.73774819974E+02  0.00000000000E+00 0.  1.
         11    1    3    3    0    0  0.34107459654E+02  0.67522636404E+02 -0.72325568050E+02  0.10465950996E+03  0.00000000000E+00 0. -1.
<mgrwt>
<rscale>  0 0.13074348E+03</rscale>
<asrwt>0</asrwt>
<pdfrwt beam="1">  1        2 0.80071392E-02 0.13874604E+03</pdfrwt>
<pdfrwt beam="2">  1       -2 0.46796322E-01 0.13874604E+03</pdfrwt>
<totfact> 0.35640386E+03</totfact>
</mgrwt>
</event>
<event>
 8    1  0.1273312E-005  0.2951196E+03  0.7546771E-02  0.1089450E+00
         -3   -1    0    0    0  501 -0.00000000000E+00  0.00000000000E+00  0.81618581103E+03  0.81618581103E+03  0.00000000000E+00 0.  1.
          3   -1    0    0  501    0  0.00000000000E+00 -0.00000000000E+00 -0.10283838052E+03  0.10283838052E+03  0.00000000000E+00 0. -1.
         23    2    1    2    0    0 -0.18774957678E+03  0.19031817503E+03  0.39135689692E+03  0.48224792020E+03  0.89061352128E+02 0.  0.
         23    2    1    2    0    0  0.18774957678E+03 -0.19031817503E+03  0.32199053359E+03  0.43677627135E+03  0.12499878467E+03 0.  0.
          5    1    4    4  502    0  0.13324872406E+03 -0.10721915867E+03  0.11223149689E+03  0.20461957224E+03  0.47000000000E+01 0.  1.
         -5    1    4    4    0  502  0.54500852722E+02 -0.83099016363E+02  0.20975903670E+03  0.23215669912E+03  0.47000000000E+01 0.  1.
        -11    1    3    3    0    0 -0.15920981669E+03  0.17121921536E+03  0.37983625673E+03  0.44602619583E+03  0.00000000000E+00 0.  1.
         11    1    3    3    0    0 -0.28539760084E+02  0.19098959669E+02  0.11520640196E+02  0.36221724374E+02  0.00000000000E+00 0. -1.
<mgrwt>
<rscale>  0 0.29172799E+03</rscale>
<asrwt>0</asrwt>
<pdfrwt beam="2">  1        3 0.15821290E-01 0.29511965E+03</pdfrwt>
<pdfrwt beam="1">  1       -3 0.12556704E+00 0.29511965E+03</pdfrwt>
<totfact> 0.44949244E+01</totfact>
</mgrwt>
</event>
<event>
 8    1  0.1273312E-005  0.1286434E+03  0.7546771E-02  0.1241000E+00
         -2   -1    0    0    0  501 -0.00000000000E+00  0.00000000000E+00  0.13315907307E+02  0.13315907307E+02  0.00000000000E+00 0.  1.
          2   -1    0    0  501    0  0.00000000000E+00 -0.00000000000E+00 -0.10837753527E+04  0.10837753527E+04  0.00000000000E+00 0. -1.
         23    2    1    2    0    0  0.25870315867E+02  0.16000872667E+02 -0.32196447739E+03  0.33762181877E+03  0.96964254432E+02 0.  0.
         23    2    1    2    0    0 -0.25870315867E+02 -0.16000872667E+02 -0.74849496799E+03  0.75946944123E+03  0.12499525543E+03 0.  0.
          5    1    4    4  502    0  0.33046372383E+00 -0.64602701329E+02 -0.53472551710E+03  0.53863446498E+03  0.47000000000E+01 0.  1.
         -5    1    4    4    0  502 -0.26200779591E+02  0.48601828661E+02 -0.21376945089E+03  0.22083497624E+03  0.47000000000E+01 0.  1.
        -11    1    3    3    0    0 -0.36628773981E+02  0.11703379177E+02 -0.10622688818E+03  0.11297250967E+03  0.00000000000E+00 0.  1.
         11    1    3    3    0    0  0.62499089848E+02  0.42974934898E+01 -0.21573758921E+03  0.22464930911E+03  0.00000000000E+00 0. -1.
<mgrwt>
<rscale>  0 0.12128002E+03</rscale>
<asrwt>0</asrwt>
<pdfrwt beam="2">  1        2 0.16673471E+00 0.12864336E+03</pdfrwt>
<pdfrwt beam="1">  1       -2 0.20486006E-02 0.12864336E+03</pdfrwt>
<totfact> 0.16643593E+04</totfact>
</mgrwt>
</event>
<event>
 8    1  0.1273312E-005  0.1924017E+03  0.7546771E-02  0.1160826E+00
          2   -1    0    0  501    0  0.00000000000E+00  0.00000000000E+00  0.64188631271E+03  0.64188631271E+03  0.00000000000E+00 0. -1.
         -2   -1    0    0    0  501 -0.00000000000E+00 -0.00000000000E+00 -0.54637972493E+02  0.54637972493E+02  0.00000000000E+00 0.  1.
         23    2    1    2    0    0 -0.46355497815E+02 -0.13872506855E+03  0.20322320041E+03  0.26699696910E+03  0.92705099652E+02 0.  0.
         23    2    1    2    0    0  0.46355497815E+02  0.13872506855E+03  0.38402513981E+03  0.42952731611E+03  0.12499972183E+03 0.  0.
          5    1    4    4  502    0  0.35403910195E+02  0.44568781275E+02  0.33135925652E+02  0.66029483492E+02  0.47000000000E+01 0.  1.
         -5    1    4    4    0  502  0.10951587619E+02  0.94156287271E+02  0.35088921416E+03  0.36349783262E+03  0.47000000000E+01 0.  1.
        -11    1    3    3    0    0 -0.21463604309E+01 -0.81303974552E+02  0.44961585042E+02  0.92932702912E+02  0.00000000000E+00 0.  1.
         11    1    3    3    0    0 -0.44209137384E+02 -0.57421093994E+02  0.15826161537E+03  0.17406426618E+03  0.00000000000E+00 0. -1.
<mgrwt>
<rscale>  0 0.18740215E+03</rscale>
<asrwt>0</asrwt>
<pdfrwt beam="1">  1        2 0.98751735E-01 0.19240168E+03</pdfrwt>
<pdfrwt beam="2">  1       -2 0.84058424E-02 0.19240168E+03</pdfrwt>
<totfact> 0.40138919E+03</totfact>
</mgrwt>
</event>
<event>
 8    1  0.1273312E-005  0.1390194E+03  0.7546771E-02  0.1226457E+00
         -1   -1    0    0    0  501 -0.00000000000E+00  0.00000000000E+00  0.34920209132E+02  0.34920209132E+02  0.00000000000E+00 0.  1.
          1   -1    0    0  501    0  0.00000000000E+00 -0.00000000000E+00 -0.47851235774E+03  0.47851235774E+03  0.00000000000E+00 0. -1.
         23    2    1    2    0    0  0.58264282666E+02 -0.17514183771E+02 -0.12323289238E+03  0.16420993320E+03  0.89872593860E+02 0.  0.
         23    2    1    2    0    0 -0.58264282666E+02  0.17514183771E+02 -0.32035925622E+03  0.34922263367E+03  0.12499968622E+03 0.  0.
          5    1    4    4  502    0 -0.71470706991E+02 -0.36951810893E+02 -0.15745286255E+03  0.17688129412E+03  0.47000000000E+01 0. -1.
         -5    1    4    4    0  502  0.13206424325E+02  0.54465994664E+02 -0.16290639367E+03  0.17234133955E+03  0.47000000000E+01 0. -1.
        -11    1    3    3    0    0 -0.19745907218E+02 -0.23005698342E+02 -0.33530667880E+02  0.45204741970E+02  0.00000000000E+00 0.  1.
         11    1    3    3    0    0  0.78010189884E+02  0.54915145701E+01 -0.89702224502E+02  0.11900519123E+03  0.00000000000E+00 0. -1.
<mgrwt>
<rscale>  0 0.13067517E+03</rscale>
<asrwt>0</asrwt>
<pdfrwt beam="2">  1        1 0.73617285E-01 0.13901940E+03</pdfrwt>
<pdfrwt beam="1">  1       -1 0.53723399E-02 0.13901940E+03</pdfrwt>
<totfact> 0.72491863E+03</totfact>
</mgrwt>
</event>
<event>
 8    1  0.1273312E-005  0.1539310E+03  0.7546771E-02  0.1204478E+00
         -1   -1    0    0    0  501 -0.00000000000E+00  0.00000000000E+00  0.12497584987E+03  0.12497584987E+03  0.00000000000E+00 0.  1.
          1   -1    0    0  501    0  0.00000000000E+00 -0.00000000000E+00 -0.16001913544E+03  0.16001913544E+03  0.00000000000E+00 0. -1.
         23    2    1    2    0    0 -0.70391963558E+01  0.89563014823E+02 -0.31036252836E+02  0.13101180169E+03  0.90165177769E+02 0.  0.
         23    2    1    2    0    0  0.70391963558E+01 -0.89563014823E+02 -0.40070327280E+01  0.15398318362E+03  0.12499472236E+03 0.  0.
          5    1    4    4  502    0 -0.37565842389E+02 -0.45799055433E+02 -0.48852057875E+02  0.76924375536E+02  0.47000000000E+01 0. -1.
         -5    1    4    4    0  502  0.44605038745E+02 -0.43763959390E+02  0.44845025147E+02  0.77058808084E+02  0.47000000000E+01 0. -1.
        -11    1    3    3    0    0 -0.62681303792E+01  0.54425673835E+02  0.28591165705E+02  0.61797234463E+02  0.00000000000E+00 0.  1.
         11    1    3    3    0    0 -0.77106597659E+00  0.35137340988E+02 -0.59627418541E+02  0.69214567226E+02  0.00000000000E+00 0. -1.
<mgrwt>
<rscale>  0 0.14678675E+03</rscale>
<asrwt>0</asrwt>
<pdfrwt beam="2">  1        1 0.24618328E-01 0.15393104E+03</pdfrwt>
<pdfrwt beam="1">  1       -1 0.19227054E-01 0.15393104E+03</pdfrwt>
<totfact> 0.40577747E+03</totfact>
</mgrwt>
</event>
<event>
 8    1  0.1273312E-005  0.1258631E+03  0.7546771E-02  0.1250894E+00
         -2   -1    0    0    0  501 -0.00000000000E+00  0.00000000000E+00  0.19264426777E+02  0.19264426777E+02  0.00000000000E+00 0.  1.
          2   -1    0    0  501    0  0.00000000000E+00 -0.00000000000E+00 -0.63767621861E+03  0.63767621861E+03  0.00000000000E+00 0. -1.
         23    2    1    2    0    0 -0.55397834166E+01  0.13698807257E+02 -0.17922789209E+03  0.20007740668E+03  0.87692558635E+02 0.  0.
         23    2    1    2    0    0  0.55397834166E+01 -0.13698807257E+02 -0.43918389974E+03  0.45686323871E+03  0.12499269806E+03 0.  0.
          5    1    4    4  502    0 -0.16275539051E+02  0.29333576200E+02 -0.37451289629E+03  0.37604168831E+03  0.47000000000E+01 0.  1.
         -5    1    4    4    0  502  0.21815322468E+02 -0.43032383457E+02 -0.64671003460E+02  0.80821550399E+02  0.47000000000E+01 0.  1.
        -11    1    3    3    0    0  0.83042691940E+01  0.39212580187E+02 -0.16074000132E+03  0.16566211202E+03  0.00000000000E+00 0. -1.
         11    1    3    3    0    0 -0.13844052611E+02 -0.25513772931E+02 -0.18487890767E+02  0.34415294665E+02  0.00000000000E+00 0.  1.
<mgrwt>
<rscale>  0 0.11539432E+03</rscale>
<asrwt>0</asrwt>
<pdfrwt beam="2">  1        2 0.98104031E-01 0.12586310E+03</pdfrwt>
<pdfrwt beam="1">  1       -2 0.29637580E-02 0.12586310E+03</pdfrwt>
<totfact> 0.19022396E+04</totfact>
</mgrwt>
</event>
<event>
 8    1  0.1273312E-005  0.1633642E+03  0.7546771E-02  0.1192212E+00
         -2   -1    0    0    0  501 -0.00000000000E+00  0.00000000000E+00  0.23369697350E+02  0.23369697350E+02  0.00000000000E+00 0.  1.
          2   -1    0    0  501    0  0.00000000000E+00 -0.00000000000E+00 -0.11351692729E+04  0.11351692729E+04  0.00000000000E+00 0. -1.
         23    2    1    2    0    0  0.80936419462E+02  0.67174249969E+02 -0.30291765997E+03  0.33332516450E+03  0.91013585335E+02 0.  0.
         23    2    1    2    0    0 -0.80936419462E+02 -0.67174249969E+02 -0.80888191557E+03  0.82521380574E+03  0.12499915195E+03 0.  0.
          5    1    4    4  502    0  0.19459852483E+02  0.11052920793E+02 -0.29114463821E+03  0.29204133830E+03  0.47000000000E+01 0.  1.
         -5    1    4    4    0  502 -0.10039627194E+03 -0.78227170762E+02 -0.51773727736E+03  0.53317246744E+03  0.47000000000E+01 0.  1.
        -11    1    3    3    0    0  0.67698415076E+02  0.19408730399E+01 -0.19609721857E+03  0.20746315702E+03  0.00000000000E+00 0. -1.
         11    1    3    3    0    0  0.13238004386E+02  0.65233376929E+02 -0.10682044140E+03  0.12586200748E+03  0.00000000000E+00 0.  1.
<mgrwt>
<rscale>  0 0.15692538E+03</rscale>
<asrwt>0</asrwt>
<pdfrwt beam="2">  1        2 0.17464144E+00 0.16336423E+03</pdfrwt>
<pdfrwt beam="1">  1       -2 0.35953377E-02 0.16336423E+03</pdfrwt>
<totfact> 0.68989093E+03</totfact>
</mgrwt>
</event>
<event>
 8    1  0.1273312E-005  0.1610397E+03  0.7546771E-02  0.1195366E+00
         -2   -1    0    0    0  501 -0.00000000000E+00  0.00000000000E+00  0.71145498122E+02  0.71145498122E+02  0.00000000000E+00 0.  1.
          2   -1    0    0  501    0  0.00000000000E+00 -0.00000000000E+00 -0.91614332189E+03  0.91614332189E+03  0.00000000000E+00 0. -1.
         23    2    1    2    0    0 -0.78214763471E+02  0.64763711529E+02 -0.88563774313E+01  0.13578056211E+03  0.89699710532E+02 0.  0.
         23    2    1    2    0    0  0.78214763471E+02 -0.64763711529E+02 -0.83614144633E+03  0.85150825790E+03  0.12498762915E+03 0.  0.
          5    1    4    4  502    0  0.78872947579E+02 -0.65171289595E+02 -0.83947132746E+03  0.84569642217E+03  0.47000000000E+01 0.  1.
         -5    1    4    4    0  502 -0.65818410849E+00  0.40757806559E+00  0.33298811272E+01  0.58118357273E+01  0.47000000000E+01 0.  1.
        -11    1    3    3    0    0 -0.10945033681E+02  0.19253240414E+02 -0.42457073441E+02  0.47886157853E+02  0.00000000000E+00 0. -1.
         11    1    3    3    0    0 -0.67269729790E+02  0.45510471116E+02  0.33600696010E+02  0.87894404256E+02  0.00000000000E+00 0.  1.
<mgrwt>
<rscale>  0 0.15423315E+03</rscale>
<asrwt>0</asrwt>
<pdfrwt beam="2">  1        2 0.14094513E+00 0.16103973E+03</pdfrwt>
<pdfrwt beam="1">  1       -2 0.10945461E-01 0.16103973E+03</pdfrwt>
<totfact> 0.16951867E+03</totfact>
</mgrwt>
</event>
<event>
 8    1  0.1273312E-005  0.2053308E+03  0.7546771E-02  0.1149215E+00
          4   -1    0    0  501    0  0.00000000000E+00  0.00000000000E+00  0.26723298716E+03  0.26723298716E+03  0.00000000000E+00 0.  1.
         -4   -1    0    0    0  501 -0.00000000000E+00 -0.00000000000E+00 -0.15621340443E+03  0.15621340443E+03  0.00000000000E+00 0. -1.
         23    2    1    2    0    0 -0.11457468236E+03 -0.11578183841E+03 -0.57727400159E+01  0.18722368649E+03  0.92122702487E+02 0.  0.
         23    2    1    2    0    0  0.11457468236E+03  0.11578183841E+03  0.11679232274E+03  0.23622270509E+03  0.12501171067E+03 0.  0.
          5    1    4    4  502    0  0.95435531594E+01 -0.22688589152E+02 -0.27802840529E+01  0.25212525935E+02  0.47000000000E+01 0. -1.
         -5    1    4    4    0  502  0.10503112920E+03  0.13847042756E+03  0.11957260680E+03  0.21101017915E+03  0.47000000000E+01 0. -1.
        -11    1    3    3    0    0 -0.11000683988E+03 -0.49989956934E+02  0.17543939031E+01  0.12084526682E+03  0.00000000000E+00 0.  1.
         11    1    3    3    0    0 -0.45678424770E+01 -0.65791881476E+02 -0.75271339190E+01  0.66378419671E+02  0.00000000000E+00 0. -1.
<mgrwt>
<rscale>  0 0.20062224E+03</rscale>
<asrwt>0</asrwt>
<pdfrwt beam="1">  1        4 0.41112767E-01 0.20533076E+03</pdfrwt>
<pdfrwt beam="2">  1       -4 0.24032831E-01 0.20533076E+03</pdfrwt>
<totfact> 0.16565341E+02</totfact>
</mgrwt>
</event>
<event>
 7    1  0.1273312E-005  0.2271429E+03  0.7546771E-02  0.1157991E+00
          1   -1    0    0  501    0  0.00000000000E+00  0.00000000000E+00  0.18062457476E+04  0.18062457476E+04  0.00000000000E+00 0. -1.
         -1   -1    0    0    0  501 -0.00000000000E+00 -0.00000000000E+00 -0.58463005264E+02  0.58463005264E+02  0.00000000000E+00 0.  1.
         23    2    1    2    0    0 -0.59477907902E+02 -0.12647334126E+02  0.10811176916E+02  0.11294845993E+03  0.94566888845E+02 0.  0.
          5    1    1    2  502    0  0.96083685425E+02  0.30848172821E+02  0.16707042905E+04  0.16737558367E+04  0.47000000000E+01 0. -1.
         -5    1    1    2    0  502 -0.36605777524E+02 -0.18200838695E+02  0.66267274924E+02  0.78004456303E+02  0.47000000000E+01 0.  1.
        -11    1    3    3    0    0  0.24269733509E+02 -0.10386089120E+01 -0.93504703419E+01  0.26029405846E+02  0.00000000000E+00 0. -1.
         11    1    3    3    0    0 -0.83747641411E+02 -0.11608725214E+02  0.20161647258E+02  0.86919054086E+02  0.00000000000E+00 0.  1.
<mgrwt>
<rscale>  0 0.19052186E+03</rscale>
<asrwt>0</asrwt>
<pdfrwt beam="1">  1        1 0.27788392E+00 0.22714292E+03</pdfrwt>
<pdfrwt beam="2">  1       -1 0.89943099E-02 0.22714292E+03</pdfrwt>
<totfact> 0.32725446E+02</totfact>
</mgrwt>
</event>
<event>
 8    1  0.1273312E-005  0.2073332E+03  0.7546771E-02  0.1146014E+00
          1   -1    0    0  501    0  0.00000000000E+00  0.00000000000E+00  0.53541578193E+03  0.53541578193E+03  0.00000000000E+00 0. -1.
         -1   -1    0    0    0  501 -0.00000000000E+00 -0.00000000000E+00 -0.76328161632E+02  0.76328161632E+02  0.00000000000E+00 0.  1.
         23    2    1    2    0    0 -0.61538536719E+02 -0.15353795079E+03  0.20360732332E+03  0.28271928783E+03  0.10541992111E+03 0.  0.
         23    2    1    2    0    0  0.61538536719E+02  0.15353795079E+03  0.25548029697E+03  0.32902465573E+03  0.12500459232E+03 0.  0.
          5    1    4    4  502    0 -0.26377945469E+01  0.37357144022E+02 -0.35710916210E+01  0.37912489564E+02  0.47000000000E+01 0.  1.
         -5    1    4    4    0  502  0.64176331266E+02  0.11618080677E+03  0.25905138860E+03  0.29111216617E+03  0.47000000000E+01 0.  1.
        -11    1    3    3    0    0 -0.60760107040E+02 -0.13318128421E+03  0.21444419652E+03  0.25964467738E+03  0.00000000000E+00 0. -1.
         11    1    3    3    0    0 -0.77842967865E+00 -0.20356666580E+02 -0.10836873191E+02  0.23074610454E+02  0.00000000000E+00 0.  1.
<mgrwt>
<rscale>  0 0.20447860E+03</rscale>
<asrwt>0</asrwt>
<pdfrwt beam="1">  1        1 0.82371656E-01 0.20733317E+03</pdfrwt>
<pdfrwt beam="2">  1       -1 0.11742794E-01 0.20733317E+03</pdfrwt>
<totfact> 0.19387059E+03</totfact>
</mgrwt>
</event>
<event>
 8    1  0.1273312E-005  0.1284198E+03  0.7546771E-02  0.1247031E+00
          1   -1    0    0  501    0  0.00000000000E+00  0.00000000000E+00  0.32602298246E+03  0.32602298246E+03  0.00000000000E+00 0. -1.
         -1   -1    0    0    0  501 -0.00000000000E+00 -0.00000000000E+00 -0.44117577173E+02  0.44117577173E+02  0.00000000000E+00 0.  1.
         23    2    1    2    0    0 -0.20546428382E+02  0.21081886500E+02  0.45839191293E+02  0.10140480678E+03  0.85528367940E+02 0.  0.
         23    2    1    2    0    0  0.20546428382E+02 -0.21081886500E+02  0.23606621400E+03  0.26873575285E+03  0.12500018325E+03 0.  0.
          5    1    4    4  502    0  0.14505953025E+01 -0.21079909173E+02  0.24582891510E+03  0.24678008894E+03  0.47000000000E+01 0. -1.
         -5    1    4    4    0  502  0.19095833079E+02 -0.19773269551E-02 -0.97627011062E+01  0.21955663912E+02  0.47000000000E+01 0. -1.
        -11    1    3    3    0    0  0.20960589146E+02 -0.13163098418E+02 -0.72730770413E+01  0.25797501952E+02  0.00000000000E+00 0.  1.
         11    1    3    3    0    0 -0.41507017528E+02  0.34244984918E+02  0.53112268334E+02  0.75607304830E+02  0.00000000000E+00 0. -1.
<mgrwt>
<rscale>  0 0.11764663E+03</rscale>
<asrwt>0</asrwt>
<pdfrwt beam="1">  1        1 0.50157380E-01 0.12841981E+03</pdfrwt>
<pdfrwt beam="2">  1       -1 0.67873198E-02 0.12841981E+03</pdfrwt>
<totfact> 0.82604933E+03</totfact>
</mgrwt>
</event>
<event>
 8    1  0.1273312E-005  0.1440502E+03  0.7546771E-02  0.1217566E+00
         -2   -1    0    0    0  501 -0.00000000000E+00  0.00000000000E+00  0.10176760989E+03  0.10176760989E+03  0.00000000000E+00 0.  1.
          2   -1    0    0  501    0  0.00000000000E+00 -0.00000000000E+00 -0.25021579678E+03  0.25021579678E+03  0.00000000000E+00 0. -1.
         23    2    1    2    0    0  0.48617069889E+02  0.52550687835E+02  0.31338634633E+02  0.12160596024E+03  0.93170302505E+02 0.  0.
         23    2    1    2    0    0 -0.48617069889E+02 -0.52550687835E+02 -0.17978682152E+03  0.23037744643E+03  0.12500108940E+03 0.  0.
          5    1    4    4  502    0  0.29249913083E+02 -0.58497575089E+02 -0.88676213182E+02  0.11028637491E+03  0.47000000000E+01 0.  1.
         -5    1    4    4    0  502 -0.77866982972E+02  0.59468872538E+01 -0.91110608342E+02  0.12009107151E+03  0.47000000000E+01 0.  1.
        -11    1    3    3    0    0  0.19001935043E+02  0.28554210225E+02  0.63212743374E+02  0.71918477333E+02  0.00000000000E+00 0.  1.
         11    1    3    3    0    0  0.29615134846E+02  0.23996477610E+02 -0.31874108742E+02  0.49687482907E+02  0.00000000000E+00 0. -1.
<mgrwt>
<rscale>  0 0.13689688E+03</rscale>
<asrwt>0</asrwt>
<pdfrwt beam="2">  1        2 0.38494737E-01 0.14405022E+03</pdfrwt>
<pdfrwt beam="1">  1       -2 0.15656556E-01 0.14405022E+03</pdfrwt>
<totfact> 0.40955779E+03</totfact>
</mgrwt>
</event>
<event>
 8    1  0.1273312E-005  0.1617053E+03  0.7546771E-02  0.1195476E+00
          1   -1    0    0  501    0  0.00000000000E+00  0.00000000000E+00  0.42621693196E+03  0.42621693196E+03  0.00000000000E+00 0. -1.
         -1   -1    0    0    0  501 -0.00000000000E+00 -0.00000000000E+00 -0.51144900623E+02  0.51144900623E+02  0.00000000000E+00 0.  1.
         23    2    1    2    0    0 -0.97645240415E+02 -0.31445085912E+02  0.17522521357E+03  0.22028722823E+03  0.85435361804E+02 0.  0.
         23    2    1    2    0    0  0.97645240415E+02  0.31445085912E+02  0.19984681776E+03  0.25707460435E+03  0.12500086091E+03 0.  0.
          5    1    4    4  502    0 -0.13451096700E+02  0.47080058794E+02  0.67251891101E+02  0.83320890509E+02  0.47000000000E+01 0.  1.
         -5    1    4    4    0  502  0.11109633712E+03 -0.15634972882E+02  0.13259492666E+03  0.17375371384E+03  0.47000000000E+01 0.  1.
        -11    1    3    3    0    0 -0.65909529595E+02  0.12448203592E+02  0.14120213745E+03  0.15632359862E+03  0.00000000000E+00 0. -1.
         11    1    3    3    0    0 -0.31735710820E+02 -0.43893289503E+02  0.34023076124E+02  0.63963629616E+02  0.00000000000E+00 0.  1.
<mgrwt>
<rscale>  0 0.15413970E+03</rscale>
<asrwt>0</asrwt>
<pdfrwt beam="1">  1        1 0.65571833E-01 0.16170529E+03</pdfrwt>
<pdfrwt beam="2">  1       -1 0.78684465E-02 0.16170529E+03</pdfrwt>
<totfact> 0.47886535E+03</totfact>
</mgrwt>
</event>
<event>
 8    1  0.1273312E-005  0.1288189E+03  0.7546771E-02  0.1238422E+00
          1   -1    0    0  501    0  0.00000000000E+00  0.00000000000E+00  0.12089916996E+04  0.12089916996E+04  0.00000000000E+00 0. -1.
         -1   -1    0    0    0  501 -0.00000000000E+00 -0.00000000000E+00 -0.14220113588E+02  0.14220113588E+02  0.00000000000E+00 0.  1.
         23    2    1    2    0    0  0.59950802515E+01 -0.30580384872E+02  0.28381756081E+03  0.30319466635E+03  0.10199753404E+03 0.  0.
         23    2    1    2    0    0 -0.59950802515E+01  0.30580384872E+02  0.91095402515E+03  0.92001714679E+03  0.12499285390E+03 0.  0.
          5    1    4    4  502    0  0.57209274618E+02  0.21363297714E+02  0.33900988420E+03  0.34449830649E+03  0.47000000000E+01 0.  1.
         -5    1    4    4    0  502 -0.63204354870E+02  0.92170871576E+01  0.57194414095E+03  0.57551884030E+03  0.47000000000E+01 0.  1.
        -11    1    3    3    0    0 -0.36738087906E+02  0.16071668667E+01  0.43342894745E+02  0.56840800603E+02  0.00000000000E+00 0.  1.
         11    1    3    3    0    0  0.42733168157E+02 -0.32187551739E+02  0.24047466607E+03  0.24635386575E+03  0.00000000000E+00 0. -1.
<mgrwt>
<rscale>  0 0.12287874E+03</rscale>
<asrwt>0</asrwt>
<pdfrwt beam="1">  1        1 0.18599864E+00 0.12881892E+03</pdfrwt>
<pdfrwt beam="2">  1       -1 0.21877107E-02 0.12881892E+03</pdfrwt>
<totfact> 0.65978371E+03</totfact>
</mgrwt>
</event>
<event>
 8    1  0.1273312E-005  0.1600064E+03  0.7546771E-02  0.1196317E+00
          1   -1    0    0  501    0  0.00000000000E+00  0.00000000000E+00  0.48237215377E+03  0.48237215377E+03  0.00000000000E+00 0. -1.
         -1   -1    0    0    0  501 -0.00000000000E+00 -0.00000000000E+00 -0.74063347218E+02  0.74063347218E+02  0.00000000000E+00 0.  1.
         23    2    1    2    0    0 -0.73345345207E+02  0.67825024311E+02  0.20395456842E+02  0.13681804166E+03  0.91232824557E+02 0.  0.
         23    2    1    2    0    0  0.73345345207E+02 -0.67825024311E+02  0.38791334971E+03  0.41961745933E+03  0.12498908635E+03 0.  0.
          5    1    4    4  502    0  0.69884739107E+02 -0.16099216270E+02  0.34426025809E+03  0.35168206782E+03  0.47000000000E+01 0.  1.
         -5    1    4    4    0  502  0.34606060997E+01 -0.51725808041E+02  0.43653091622E+02  0.67935391515E+02  0.47000000000E+01 0.  1.
        -11    1    3    3    0    0 -0.32474839841E+02  0.33723862129E+01  0.45920247260E+02  0.56344097472E+02  0.00000000000E+00 0. -1.
         11    1    3    3    0    0 -0.40870505366E+02  0.64452638098E+02 -0.25524790419E+02  0.80473944185E+02  0.00000000000E+00 0.  1.
<mgrwt>
<rscale>  0 0.15343304E+03</rscale>
<asrwt>0</asrwt>
<pdfrwt beam="1">  1        1 0.74211099E-01 0.16000639E+03</pdfrwt>
<pdfrwt beam="2">  1       -1 0.11394361E-01 0.16000639E+03</pdfrwt>
<totfact> 0.23170031E+03</totfact>
</mgrwt>
</event>
<event>
 8    1  0.1273312E-005  0.1304420E+03  0.7546771E-02  0.1240584E+00
         -2   -1    0    0    0  501 -0.00000000000E+00  0.00000000000E+00  0.53411113820E+02  0.53411113820E+02  0.00000000000E+00 0.  1.
          2   -1    0    0  501    0  0.00000000000E+00 -0.00000000000E+00 -0.24809357647E+03  0.24809357647E+03  0.00000000000E+00 0. -1.
         23    2    1    2    0    0  0.31926077173E+02 -0.19232598862E+02 -0.10073486323E+03  0.14075247204E+03  0.90964709940E+02 0.  0.
         23    2    1    2    0    0 -0.31926077173E+02  0.19232598862E+02 -0.93947599418E+02  0.16075221824E+03  0.12500382782E+03 0.  0.
          5    1    4    4  502    0 -0.43366890447E+02  0.67411477614E+02 -0.64110492614E+02  0.10274842950E+03  0.47000000000E+01 0. -1.
         -5    1    4    4    0  502  0.11440813275E+02 -0.48178878751E+02 -0.29837106804E+02  0.58003788743E+02  0.47000000000E+01 0. -1.
        -11    1    3    3    0    0  0.28020916810E+02 -0.43423751915E+02 -0.18414570464E+02  0.54862468178E+02  0.00000000000E+00 0.  1.
         11    1    3    3    0    0  0.39051603631E+01  0.24191153052E+02 -0.82320292764E+02  0.85890003867E+02  0.00000000000E+00 0. -1.
<mgrwt>
<rscale>  0 0.12153640E+03</rscale>
<asrwt>0</asrwt>
<pdfrwt beam="2">  1        2 0.38168243E-01 0.13044203E+03</pdfrwt>
<pdfrwt beam="1">  1       -2 0.82170944E-02 0.13044203E+03</pdfrwt>
<totfact> 0.11450374E+04</totfact>
</mgrwt>
</event>
<event>
 8    1  0.1273312E-005  0.1631116E+03  0.7546771E-02  0.1192391E+00
         -1   -1    0    0    0  501 -0.00000000000E+00  0.00000000000E+00  0.10810028323E+03  0.10810028323E+03  0.00000000000E+00 0.  1.
          1   -1    0    0  501    0  0.00000000000E+00 -0.00000000000E+00 -0.21352259851E+03  0.21352259851E+03  0.00000000000E+00 0. -1.
         23    2    1    2    0    0 -0.40008808043E+02  0.96850195193E+02 -0.32406892562E+02  0.14291457529E+03  0.91617160586E+02 0.  0.
         23    2    1    2    0    0  0.40008808043E+02 -0.96850195193E+02 -0.73015422721E+02  0.17870830645E+03  0.12499896724E+03 0.  0.
          5    1    4    4  502    0  0.69187473108E+02 -0.13696842139E+02 -0.12705719628E+02  0.71819462758E+02  0.47000000000E+01 0. -1.
         -5    1    4    4    0  502 -0.29178665065E+02 -0.83153353054E+02 -0.60309703093E+02  0.10688884369E+03  0.47000000000E+01 0. -1.
        -11    1    3    3    0    0 -0.91590024331E+01  0.93806709167E+02 -0.50594193690E+02  0.10697363435E+03  0.00000000000E+00 0. -1.
         11    1    3    3    0    0 -0.30849805610E+02  0.30434860262E+01  0.18187301127E+02  0.35940940940E+02  0.00000000000E+00 0.  1.
<mgrwt>
<rscale>  0 0.15677152E+03</rscale>
<asrwt>0</asrwt>
<pdfrwt beam="2">  1        1 0.32849630E-01 0.16311164E+03</pdfrwt>
<pdfrwt beam="1">  1       -1 0.16630813E-01 0.16311164E+03</pdfrwt>
<totfact> 0.35737651E+03</totfact>
</mgrwt>
</event>
<event>
 8    1  0.1273312E-005  0.1265255E+03  0.7546771E-02  0.1253326E+00
         -1   -1    0    0    0  501 -0.00000000000E+00  0.00000000000E+00  0.53268329313E+02  0.53268329313E+02  0.00000000000E+00 0.  1.
          1   -1    0    0  501    0  0.00000000000E+00 -0.00000000000E+00 -0.22799843135E+03  0.22799843135E+03  0.00000000000E+00 0. -1.
         23    2    1    2    0    0 -0.22591385875E+01  0.19430226083E+02 -0.29060271897E+02  0.88320124903E+02  0.81075937659E+02 0.  0.
         23    2    1    2    0    0  0.22591385875E+01 -0.19430226083E+02 -0.14566983014E+03  0.19294663576E+03  0.12500426971E+03 0.  0.
          5    1    4    4  502    0 -0.41867707188E+02 -0.32013583471E+02 -0.13584402796E+03  0.14578567956E+03  0.47000000000E+01 0.  1.
         -5    1    4    4    0  502  0.44126845775E+02  0.12583357388E+02 -0.98258021764E+01  0.47160956200E+02  0.47000000000E+01 0.  1.
        -11    1    3    3    0    0 -0.31532184638E+02  0.26302393375E+02  0.66925864618E+01  0.41603909418E+02  0.00000000000E+00 0. -1.
         11    1    3    3    0    0  0.29273046051E+02 -0.68721672923E+01 -0.35752858359E+02  0.46716215485E+02  0.00000000000E+00 0.  1.
<mgrwt>
<rscale>  0 0.11400610E+03</rscale>
<asrwt>0</asrwt>
<pdfrwt beam="2">  1        1 0.35076682E-01 0.12652551E+03</pdfrwt>
<pdfrwt beam="1">  1       -1 0.81951275E-02 0.12652551E+03</pdfrwt>
<totfact> 0.96697866E+03</totfact>
</mgrwt>
</event>
<event>
 8    1  0.1273312E-005  0.1395531E+03  0.7546771E-02  0.1234116E+00
         -1   -1    0    0    0  501 -0.00000000000E+00  0.00000000000E+00  0.16697326166E+02  0.16697326166E+02  0.00000000000E+00 0.  1.
          1   -1    0    0  501    0  0.00000000000E+00 -0.00000000000E+00 -0.81539759572E+03  0.81539759572E+03  0.00000000000E+00 0. -1.
         23    2    1    2    0    0 -0.58886217256E+02  0.19580765998E+02 -0.26216448015E+03  0.27770722601E+03  0.67380232629E+02 0.  0.
         23    2    1    2    0    0  0.58886217256E+02 -0.19580765998E+02 -0.53653578940E+03  0.55438769587E+03  0.12499628411E+03 0.  0.
          5    1    4    4  502    0 -0.36996536852E+01 -0.46502277879E+02 -0.79640193212E+02  0.92416446913E+02  0.47000000000E+01 0.  1.
         -5    1    4    4    0  502  0.62585870941E+02  0.26921511881E+02 -0.45689559619E+03  0.46197124896E+03  0.47000000000E+01 0.  1.
        -11    1    3    3    0    0 -0.67404611523E+02  0.31577051020E+02 -0.23846550589E+03  0.24981250830E+03  0.00000000000E+00 0. -1.
         11    1    3    3    0    0  0.85183942674E+01 -0.11996285023E+02 -0.23698974262E+02  0.27894717714E+02  0.00000000000E+00 0.  1.
<mgrwt>
<rscale>  0 0.12561222E+03</rscale>
<asrwt>0</asrwt>
<pdfrwt beam="2">  1        1 0.12544576E+00 0.13955309E+03</pdfrwt>
<pdfrwt beam="1">  1       -1 0.25688200E-02 0.13955309E+03</pdfrwt>
<totfact> 0.10209584E+04</totfact>
</mgrwt>
</event>
<event>
 8    1  0.1273312E-005  0.1334683E+03  0.7546771E-02  0.1237756E+00
          1   -1    0    0  501    0  0.00000000000E+00  0.00000000000E+00  0.13241333203E+03  0.13241333203E+03  0.00000000000E+00 0. -1.
         -1   -1    0    0    0  501 -0.00000000000E+00 -0.00000000000E+00 -0.10106931603E+03  0.10106931603E+03  0.00000000000E+00 0.  1.
         23    2    1    2    0    0 -0.11370908025E+02  0.45366716613E+02  0.42510892531E+01  0.97292247949E+02  0.85207236932E+02 0.  0.
         23    2    1    2    0    0  0.11370908025E+02 -0.45366716613E+02  0.27092926743E+02  0.13619040011E+03  0.12500544739E+03 0.  0.
          5    1    4    4  502    0  0.29143777465E+02  0.34703233550E+02  0.29014116780E+02  0.54014656865E+02  0.47000000000E+01 0. -1.
         -5    1    4    4    0  502 -0.17772869440E+02 -0.80069950163E+02 -0.19211900370E+01  0.82175743249E+02  0.47000000000E+01 0. -1.
        -11    1    3    3    0    0  0.16235991438E+01 -0.19496617659E+02 -0.18903625275E+02  0.27204801467E+02  0.00000000000E+00 0.  1.
         11    1    3    3    0    0 -0.12994507169E+02  0.64863334272E+02  0.23154714528E+02  0.70087446482E+02  0.00000000000E+00 0. -1.
<mgrwt>
<rscale>  0 0.12329615E+03</rscale>
<asrwt>0</asrwt>
<pdfrwt beam="1">  1        1 0.20371282E-01 0.13346834E+03</pdfrwt>
<pdfrwt beam="2">  1       -1 0.15549126E-01 0.13346834E+03</pdfrwt>
<totfact> 0.71579756E+03</totfact>
</mgrwt>
</event>
<event>
 8    1  0.1273312E-005  0.1300424E+03  0.7546771E-02  0.1241061E+00
          1   -1    0    0  501    0  0.00000000000E+00  0.00000000000E+00  0.12990591032E+03  0.12990591032E+03  0.00000000000E+00 0. -1.
         -1   -1    0    0    0  501 -0.00000000000E+00 -0.00000000000E+00 -0.11401227363E+03  0.11401227363E+03  0.00000000000E+00 0.  1.
         23    2    1    2    0    0  0.35825185024E+02 -0.16060068061E+01 -0.34950972300E+02  0.10428942502E+03  0.91480547475E+02 0.  0.
         23    2    1    2    0    0 -0.35825185024E+02  0.16060068061E+01  0.50844608995E+02  0.13962875893E+03  0.12499997167E+03 0.  0.
          5    1    4    4  502    0  0.37114747059E+02 -0.11698230125E+02  0.52255867467E+02  0.65323186711E+02  0.47000000000E+01 0.  1.
         -5    1    4    4    0  502 -0.72939932083E+02  0.13304236931E+02 -0.14112584722E+01  0.74305572221E+02  0.47000000000E+01 0.  1.
        -11    1    3    3    0    0  0.13069775660E+02  0.14843078891E+02  0.28623012826E+02  0.34790988632E+02  0.00000000000E+00 0. -1.
         11    1    3    3    0    0  0.22755409363E+02 -0.16449085697E+02 -0.63573985125E+02  0.69498436387E+02  0.00000000000E+00 0.  1.
<mgrwt>
<rscale>  0 0.12124283E+03</rscale>
<asrwt>0</asrwt>
<pdfrwt beam="1">  1        1 0.19985525E-01 0.13004236E+03</pdfrwt>
<pdfrwt beam="2">  1       -1 0.17540350E-01 0.13004236E+03</pdfrwt>
<totfact> 0.60529111E+03</totfact>
</mgrwt>
</event>
<event>
 8    1  0.1273312E-005  0.1418171E+03  0.7546771E-02  0.1217187E+00
          1   -1    0    0  501    0  0.00000000000E+00  0.00000000000E+00  0.35861596831E+03  0.35861596831E+03  0.00000000000E+00 0. -1.
         -1   -1    0    0    0  501 -0.00000000000E+00 -0.00000000000E+00 -0.50427281493E+02  0.50427281493E+02  0.00000000000E+00 0.  1.
         23    2    1    2    0    0 -0.79444177570E+02 -0.39235241346E+02  0.11362069250E+03  0.16827614318E+03  0.86927654321E+02 0.  0.
         23    2    1    2    0    0  0.79444177570E+02  0.39235241346E+02  0.19456799432E+03  0.24076710662E+03  0.11073081643E+03 0.  0.
          5    1    4    4  502    0  0.97544577402E+02 -0.45219741867E+00  0.12703901632E+03  0.16023779432E+03  0.47000000000E+01 0. -1.
         -5    1    4    4    0  502 -0.18100399832E+02  0.39687438765E+02  0.67528978001E+02  0.80529312301E+02  0.47000000000E+01 0.  1.
        -11    1    3    3    0    0 -0.15521971604E+02 -0.54846144357E+02  0.65053844608E+02  0.86492969955E+02  0.00000000000E+00 0. -1.
         11    1    3    3    0    0 -0.63922205966E+02  0.15610903011E+02  0.48566847889E+02  0.81783173222E+02  0.00000000000E+00 0.  1.
<mgrwt>
<rscale>  0 0.13717089E+03</rscale>
<asrwt>0</asrwt>
<pdfrwt beam="1">  1        1 0.55171686E-01 0.14181712E+03</pdfrwt>
<pdfrwt beam="2">  1       -1 0.77580435E-02 0.14181712E+03</pdfrwt>
<totfact> 0.60409847E+03</totfact>
</mgrwt>
</event>
<event>
 7    1  0.1273312E-005  0.1595123E+03  0.7546771E-02  0.1205565E+00
          1   -1    0    0  501    0  0.00000000000E+00  0.00000000000E+00  0.91663299010E+03  0.91663299010E+03  0.00000000000E+00 0. -1.
         -1   -1    0    0    0  501 -0.00000000000E+00 -0.00000000000E+00 -0.32812732064E+02  0.32812732064E+02  0.00000000000E+00 0.  1.
         23    2    1    2    0    0  0.53605614485E+02 -0.17185993327E+02  0.10126169497E+03  0.15079556736E+03  0.96521769542E+02 0.  0.
          5    1    1    2  502    0 -0.10298625204E+03  0.19594065457E+02  0.43046436231E+03  0.44307082135E+03  0.47000000000E+01 0. -1.
         -5    1    1    2    0  502  0.49380637552E+02 -0.24080721298E+01  0.35209420076E+03  0.35557933346E+03  0.47000000000E+01 0.  1.
        -11    1    3    3    0    0  0.60485242231E+02 -0.43217362086E+02  0.98961613787E+02  0.12377239562E+03  0.00000000000E+00 0.  1.
         11    1    3    3    0    0 -0.68796277460E+01  0.26031368759E+02  0.23000811797E+01  0.27023171739E+02  0.00000000000E+00 0. -1.
<mgrwt>
<rscale>  0 0.14593040E+03</rscale>
<asrwt>0</asrwt>
<pdfrwt beam="1">  1        1 0.14102044E+00 0.15951227E+03</pdfrwt>
<pdfrwt beam="2">  1       -1 0.50481133E-02 0.15951227E+03</pdfrwt>
<totfact> 0.31718186E+03</totfact>
</mgrwt>
</event>
<event>
 8    1  0.1273312E-005  0.1132218E+03  0.7546771E-02  0.1265445E+00
          1   -1    0    0  501    0  0.00000000000E+00  0.00000000000E+00  0.84919110233E+03  0.84919110233E+03  0.00000000000E+00 0. -1.
         -1   -1    0    0    0  501 -0.00000000000E+00 -0.00000000000E+00 -0.16119175551E+02  0.16119175551E+02  0.00000000000E+00 0.  1.
         23    2    1    2    0    0  0.14051956932E+02  0.96348584770E+01  0.17500766353E+03  0.19757698133E+03  0.90103791634E+02 0.  0.
         23    2    1    2    0    0 -0.14051956932E+02 -0.96348584770E+01  0.65806426325E+03  0.66773329655E+03  0.11193253665E+03 0.  0.
          5    1    4    4  502    0  0.34543398313E+02  0.32957826190E+02  0.31000902370E+03  0.31369913842E+03  0.47000000000E+01 0. -1.
         -5    1    4    4    0  502 -0.48595355245E+02 -0.42592684667E+02  0.34805523955E+03  0.35403415812E+03  0.47000000000E+01 0.  1.
        -11    1    3    3    0    0 -0.11720412649E+02  0.31829461552E+02  0.21078047819E+02  0.39934531363E+02  0.00000000000E+00 0.  1.
         11    1    3    3    0    0  0.25772369581E+02 -0.22194603075E+02  0.15392961571E+03  0.15764244997E+03  0.00000000000E+00 0. -1.
<mgrwt>
<rscale>  0 0.10740896E+03</rscale>
<asrwt>0</asrwt>
<pdfrwt beam="1">  1        1 0.13064475E+00 0.11322182E+03</pdfrwt>
<pdfrwt beam="2">  1       -1 0.24798738E-02 0.11322182E+03</pdfrwt>
<totfact> 0.99632998E+03</totfact>
</mgrwt>
</event>
<event>
 8    1  0.1273312E-005  0.1326618E+03  0.7546771E-02  0.1235634E+00
         -1   -1    0    0    0  501 -0.00000000000E+00  0.00000000000E+00  0.12684771743E+02  0.12684771743E+02  0.00000000000E+00 0.  1.
          1   -1    0    0  501    0  0.00000000000E+00 -0.00000000000E+00 -0.11597226980E+04  0.11597226980E+04  0.00000000000E+00 0. -1.
         23    2    1    2    0    0  0.41308981219E+02  0.16340030893E+02 -0.37184436790E+03  0.38594437321E+03  0.93334863438E+02 0.  0.
         23    2    1    2    0    0 -0.41308981219E+02 -0.16340030893E+02 -0.77519355836E+03  0.78646309654E+03  0.12500288298E+03 0.  0.
          5    1    4    4  502    0 -0.27354243765E+02 -0.66241446576E+02 -0.30223339673E+03  0.31064980282E+03  0.47000000000E+01 0. -1.
         -5    1    4    4    0  502 -0.13954737454E+02  0.49901415683E+02 -0.47296016163E+03  0.47581329371E+03  0.47000000000E+01 0. -1.
        -11    1    3    3    0    0 -0.26902239603E+02 -0.93686396803E+01 -0.73592248332E+02  0.78913376051E+02  0.00000000000E+00 0. -1.
         11    1    3    3    0    0  0.68211220822E+02  0.25708670574E+02 -0.29825211957E+03  0.30703099716E+03  0.00000000000E+00 0.  1.
<mgrwt>
<rscale>  0 0.12463939E+03</rscale>
<asrwt>0</asrwt>
<pdfrwt beam="2">  1        1 0.17841891E+00 0.13266179E+03</pdfrwt>
<pdfrwt beam="1">  1       -1 0.19515030E-02 0.13266179E+03</pdfrwt>
<totfact> 0.84207607E+03</totfact>
</mgrwt>
</event>
<event>
 6    1  0.1273312E-005  0.2299826E+03  0.7546771E-02  0.1173584E+00
          2   -1    0    0  501    0  0.00000000000E+00  0.00000000000E+00  0.10062726585E+04  0.10062726585E+04  0.00000000000E+00 0. -1.
         -2   -1    0    0    0  501 -0.00000000000E+00 -0.00000000000E+00 -0.23495763025E+02  0.23495763025E+02  0.00000000000E+00 0.  1.
          5    1    1    2  502    0 -0.11815730285E+03  0.43390090653E+01  0.66735661791E+03  0.67776612536E+03  0.47000000000E+01 0. -1.
         -5    1    1    2    0  502  0.62684560953E+02  0.43747039916E+02  0.11885334394E+03  0.14139082378E+03  0.47000000000E+01 0.  1.
        -11    1    1    2    0    0  0.46030777707E+02 -0.29635492134E+02  0.13649443107E+03  0.14706401533E+03  0.00000000000E+00 0. -1.
         11    1    1    2    0    0  0.94419641922E+01 -0.18450556847E+02  0.60072502572E+02  0.63547457077E+02  0.00000000000E+00 0.  1.
<mgrwt>
<rscale>  0 0.17415373E+03</rscale>
<asrwt>0</asrwt>
<pdfrwt beam="1">  1        2 0.15481114E+00 0.22998262E+03</pdfrwt>
<pdfrwt beam="2">  1       -2 0.36147336E-02 0.22998262E+03</pdfrwt>
<totfact> 0.82584962E+03</totfact>
</mgrwt>
</event>
<event>
 7    1  0.1273312E-005  0.1994869E+03  0.7546771E-02  0.1161050E+00
          2   -1    0    0  501    0  0.00000000000E+00  0.00000000000E+00  0.53062162692E+03  0.53062162692E+03  0.00000000000E+00 0. -1.
         -2   -1    0    0    0  501 -0.00000000000E+00 -0.00000000000E+00 -0.60347750855E+02  0.60347750855E+02  0.00000000000E+00 0.  1.
         23    2    1    2    0    0 -0.82849011509E+02 -0.94503725390E+02  0.16305029595E+03  0.22466164735E+03  0.89958568015E+02 0.  0.
          5    1    1    2  502    0 -0.35183730814E+02 -0.13630565645E+02  0.43578760293E+02  0.57834985800E+02  0.47000000000E+01 0. -1.
         -5    1    1    2    0  502  0.11803274232E+03  0.10813429104E+03  0.26364481982E+03  0.30847274462E+03  0.47000000000E+01 0.  1.
        -11    1    3    3    0    0 -0.20175535377E+02  0.17164146067E+02  0.29070889716E+02  0.39329082964E+02  0.00000000000E+00 0.  1.
         11    1    3    3    0    0 -0.62673476132E+02 -0.11166787146E+03  0.13397940623E+03  0.18533256438E+03  0.00000000000E+00 0. -1.
<mgrwt>
<rscale>  0 0.18715741E+03</rscale>
<asrwt>0</asrwt>
<pdfrwt beam="1">  1        2 0.81634094E-01 0.19948690E+03</pdfrwt>
<pdfrwt beam="2">  1       -2 0.92842697E-02 0.19948690E+03</pdfrwt>
<totfact> 0.42782774E+03</totfact>
</mgrwt>
</event>
<event>
 8    1  0.1273312E-005  0.1675030E+03  0.7546771E-02  0.1185738E+00
         -2   -1    0    0    0  501 -0.00000000000E+00  0.00000000000E+00  0.78206077695E+02  0.78206077695E+02  0.00000000000E+00 0.  1.
          2   -1    0    0  501    0  0.00000000000E+00 -0.00000000000E+00 -0.34087133315E+03  0.34087133315E+03  0.00000000000E+00 0. -1.
         23    2    1    2    0    0  0.20853262390E+02 -0.10953118725E+03 -0.72393285824E+02  0.16558048082E+03  0.98712553730E+02 0.  0.
         23    2    1    2    0    0 -0.20853262390E+02  0.10953118725E+03 -0.19027196963E+03  0.25349693002E+03  0.12500132627E+03 0.  0.
          5    1    4    4  502    0 -0.68623777800E+02  0.55338584787E+02 -0.13944697781E+03  0.16504281707E+03  0.47000000000E+01 0.  1.
         -5    1    4    4    0  502  0.47770515410E+02  0.54192602466E+02 -0.50824991819E+02  0.88454112951E+02  0.47000000000E+01 0.  1.
        -11    1    3    3    0    0 -0.39856403704E+02 -0.49118791997E+02 -0.29592577206E+02  0.69834871441E+02  0.00000000000E+00 0.  1.
         11    1    3    3    0    0  0.60709666094E+02 -0.60412395256E+02 -0.42800708618E+02  0.95745609382E+02  0.00000000000E+00 0. -1.
<mgrwt>
<rscale>  0 0.16264949E+03</rscale>
<asrwt>0</asrwt>
<pdfrwt beam="2">  1        2 0.52441743E-01 0.16750305E+03</pdfrwt>
<pdfrwt beam="1">  1       -2 0.12031704E-01 0.16750305E+03</pdfrwt>
<totfact> 0.45536317E+03</totfact>
</mgrwt>
</event>
<event>
 8    1  0.1273312E-005  0.1259600E+03  0.7546771E-02  0.1251745E+00
         -3   -1    0    0    0  501 -0.00000000000E+00  0.00000000000E+00  0.63478366755E+03  0.63478366755E+03  0.00000000000E+00 0.  1.
          3   -1    0    0  501    0  0.00000000000E+00 -0.00000000000E+00 -0.17986918775E+02  0.17986918775E+02  0.00000000000E+00 0. -1.
         23    2    1    2    0    0 -0.15562113216E+02  0.14640536464E+01  0.27494011739E+03  0.28844673825E+03  0.85820334604E+02 0.  0.
         23    2    1    2    0    0  0.15562113216E+02 -0.14640536464E+01  0.34185663138E+03  0.36432384807E+03  0.12498634741E+03 0.  0.
          5    1    4    4  502    0 -0.39080685901E+02  0.35342396562E+02  0.21366788710E+03  0.22011915179E+03  0.47000000000E+01 0. -1.
         -5    1    4    4    0  502  0.54642799117E+02 -0.36806450208E+02  0.12818874428E+03  0.14420469629E+03  0.47000000000E+01 0. -1.
        -11    1    3    3    0    0 -0.10273574751E+02 -0.35629603430E+02  0.62059162529E+02  0.72293531056E+02  0.00000000000E+00 0. -1.
         11    1    3    3    0    0 -0.52885384650E+01  0.37093657077E+02  0.21288095486E+03  0.21615320719E+03  0.00000000000E+00 0.  1.
<mgrwt>
<rscale>  0 0.11490622E+03</rscale>
<asrwt>0</asrwt>
<pdfrwt beam="2">  1        3 0.27672188E-02 0.12595995E+03</pdfrwt>
<pdfrwt beam="1">  1       -3 0.97659009E-01 0.12595995E+03</pdfrwt>
<totfact> 0.12560931E+03</totfact>
</mgrwt>
</event>
<event>
 8    1  0.1273312E-005  0.1541941E+03  0.7546771E-02  0.1203513E+00
         -2   -1    0    0    0  501 -0.00000000000E+00  0.00000000000E+00  0.67342255453E+02  0.67342255453E+02  0.00000000000E+00 0.  1.
          2   -1    0    0  501    0  0.00000000000E+00 -0.00000000000E+00 -0.29875429595E+03  0.29875429595E+03  0.00000000000E+00 0. -1.
         23    2    1    2    0    0  0.48477630626E+02 -0.76183476404E+02 -0.11227618553E+03  0.17123977838E+03  0.92537112085E+02 0.  0.
         23    2    1    2    0    0 -0.48477630626E+02  0.76183476404E+02 -0.11913585496E+03  0.19485677302E+03  0.12498722858E+03 0.  0.
          5    1    4    4  502    0  0.31575595050E+02  0.40703979812E+02 -0.65371773420E+01  0.52140740913E+02  0.47000000000E+01 0.  1.
         -5    1    4    4    0  502 -0.80053225676E+02  0.35479496592E+02 -0.11259867762E+03  0.14271603211E+03  0.47000000000E+01 0.  1.
        -11    1    3    3    0    0  0.33022263980E+01 -0.20933685092E+02  0.14554026084E+02  0.25708822337E+02  0.00000000000E+00 0.  1.
         11    1    3    3    0    0  0.45175404228E+02 -0.55249791312E+02 -0.12683021162E+03  0.14553095604E+03  0.00000000000E+00 0. -1.
<mgrwt>
<rscale>  0 0.14755228E+03</rscale>
<asrwt>0</asrwt>
<pdfrwt beam="2">  1        2 0.45962200E-01 0.15419407E+03</pdfrwt>
<pdfrwt beam="1">  1       -2 0.10360347E-01 0.15419407E+03</pdfrwt>
<totfact> 0.66201752E+03</totfact>
</mgrwt>
</event>
<event>
 8    1  0.1273312E-005  0.2427296E+03  0.7546771E-02  0.1120828E+00
         -1   -1    0    0    0  501 -0.00000000000E+00  0.00000000000E+00  0.12132573844E+03  0.12132573844E+03  0.00000000000E+00 0.  1.
          1   -1    0    0  501    0  0.00000000000E+00 -0.00000000000E+00 -0.59202714961E+03  0.59202714961E+03  0.00000000000E+00 0. -1.
         23    2    1    2    0    0 -0.19070575618E+02 -0.20719371756E+03 -0.56098562859E+02  0.23292267711E+03  0.88391183424E+02 0.  0.
         23    2    1    2    0    0  0.19070575618E+02  0.20719371756E+03 -0.41460284831E+03  0.48043021093E+03  0.12499896917E+03 0.  0.
          5    1    4    4  502    0  0.54891500730E+02  0.12279318641E+03 -0.32665587580E+03  0.35329505329E+03  0.47000000000E+01 0.  1.
         -5    1    4    4    0  502 -0.35820925112E+02  0.84400531155E+02 -0.87946972511E+02  0.12713515764E+03  0.47000000000E+01 0.  1.
        -11    1    3    3    0    0 -0.34455435518E+02 -0.93725926407E+02 -0.63231744302E+02  0.11819466911E+03  0.00000000000E+00 0. -1.
         11    1    3    3    0    0  0.15384859900E+02 -0.11346779116E+03  0.71331814430E+01  0.11472800801E+03  0.00000000000E+00 0.  1.
<mgrwt>
<rscale>  0 0.23845201E+03</rscale>
<asrwt>0</asrwt>
<pdfrwt beam="2">  1        1 0.91081099E-01 0.24272961E+03</pdfrwt>
<pdfrwt beam="1">  1       -1 0.18665498E-01 0.24272961E+03</pdfrwt>
<totfact> 0.81178192E+02</totfact>
</mgrwt>
</event>
<event>
 8    1  0.1273312E-005  0.1644705E+03  0.7546771E-02  0.1190628E+00
          1   -1    0    0  501    0  0.00000000000E+00  0.00000000000E+00  0.12774711139E+04  0.12774711139E+04  0.00000000000E+00 0. -1.
         -1   -1    0    0    0  501 -0.00000000000E+00 -0.00000000000E+00 -0.24118405430E+02  0.24118405430E+02  0.00000000000E+00 0.  1.
         23    2    1    2    0    0  0.70205549709E+02  0.80603439667E+02  0.27090956871E+03  0.30547453306E+03  0.92178968499E+02 0.  0.
         23    2    1    2    0    0 -0.70205549709E+02 -0.80603439667E+02  0.98244313978E+03  0.99611498629E+03  0.12499923726E+03 0.  0.
          5    1    4    4  502    0 -0.76430377859E+02 -0.10437809604E+02  0.29136532552E+03  0.30144053053E+03  0.47000000000E+01 0. -1.
         -5    1    4    4    0  502  0.62248281494E+01 -0.70165630064E+02  0.69107781425E+03  0.69467445576E+03  0.47000000000E+01 0. -1.
        -11    1    3    3    0    0  0.55365504301E+02  0.16739338780E+01  0.71108896875E+02  0.90136653676E+02  0.00000000000E+00 0. -1.
         11    1    3    3    0    0  0.14840045408E+02  0.78929505789E+02  0.19980067183E+03  0.21533787938E+03  0.00000000000E+00 0.  1.
<mgrwt>
<rscale>  0 0.15830131E+03</rscale>
<asrwt>0</asrwt>
<pdfrwt beam="1">  1        1 0.19653396E+00 0.16447049E+03</pdfrwt>
<pdfrwt beam="2">  1       -1 0.37105249E-02 0.16447049E+03</pdfrwt>
<totfact> 0.27652008E+03</totfact>
</mgrwt>
</event>
<event>
 8    1  0.1273312E-005  0.1894127E+03  0.7546771E-02  0.1164247E+00
         -2   -1    0    0    0  501 -0.00000000000E+00  0.00000000000E+00  0.47412664580E+02  0.47412664580E+02  0.00000000000E+00 0.  1.
          2   -1    0    0  501    0  0.00000000000E+00 -0.00000000000E+00 -0.67661688802E+03  0.67661688802E+03  0.00000000000E+00 0. -1.
         23    2    1    2    0    0 -0.76992022996E+02 -0.11968721530E+03 -0.26670412301E+03  0.31502649675E+03  0.88644251412E+02 0.  0.
         23    2    1    2    0    0  0.76992022996E+02  0.11968721530E+03 -0.36250010043E+03  0.40900305586E+03  0.12499750308E+03 0.  0.
          5    1    4    4  502    0 -0.12331800984E+02  0.95889849916E+02 -0.18015192003E+03  0.20450853509E+03  0.47000000000E+01 0. -1.
         -5    1    4    4    0  502  0.89323823980E+02  0.23797365386E+02 -0.18234818040E+03  0.20449452077E+03  0.47000000000E+01 0. -1.
        -11    1    3    3    0    0  0.20136895681E+02 -0.23772560303E+02 -0.48943864699E+02  0.58018368493E+02  0.00000000000E+00 0.  1.
         11    1    3    3    0    0 -0.97128918677E+02 -0.95914655000E+02 -0.21776025832E+03  0.25700812825E+03  0.00000000000E+00 0. -1.
<mgrwt>
<rscale>  0 0.18372389E+03</rscale>
<asrwt>0</asrwt>
<pdfrwt beam="2">  1        2 0.10409490E+00 0.18941272E+03</pdfrwt>
<pdfrwt beam="1">  1       -2 0.72942565E-02 0.18941272E+03</pdfrwt>
<totfact> 0.46992231E+03</totfact>
</mgrwt>
</event>
<event>
 8    1  0.1273312E-005  0.1262726E+03  0.7546771E-02  0.1243411E+00
         -2   -1    0    0    0  501 -0.00000000000E+00  0.00000000000E+00  0.10880825472E+02  0.10880825472E+02  0.00000000000E+00 0.  1.
          2   -1    0    0  501    0  0.00000000000E+00 -0.00000000000E+00 -0.12391728783E+04  0.12391728783E+04  0.00000000000E+00 0. -1.
         23    2    1    2    0    0 -0.17927209614E+02  0.16004359495E+01 -0.44247676575E+03  0.45415770691E+03  0.10074516503E+03 0.  0.
         23    2    1    2    0    0  0.17927209614E+02 -0.16004359495E+01 -0.78581528712E+03  0.79589599691E+03  0.12498330360E+03 0.  0.
          5    1    4    4  502    0 -0.11281670482E-01 -0.61862213868E+02 -0.33548218866E+03  0.34117051828E+03  0.47000000000E+01 0.  1.
         -5    1    4    4    0  502  0.17938491285E+02  0.60261777918E+02 -0.45033309846E+03  0.45472547863E+03  0.47000000000E+01 0.  1.
        -11    1    3    3    0    0 -0.37922935547E+02 -0.38632349460E+02 -0.29728113193E+03  0.30216995030E+03  0.00000000000E+00 0.  1.
         11    1    3    3    0    0  0.19995725933E+02  0.40232785409E+02 -0.14519563382E+03  0.15198775661E+03  0.00000000000E+00 0. -1.
<mgrwt>
<rscale>  0 0.11981013E+03</rscale>
<asrwt>0</asrwt>
<pdfrwt beam="2">  1        2 0.19064202E+00 0.12627261E+03</pdfrwt>
<pdfrwt beam="1">  1       -2 0.16739728E-02 0.12627261E+03</pdfrwt>
<totfact> 0.18227194E+04</totfact>
</mgrwt>
</event>
<event>
 8    1  0.1273312E-005  0.1971370E+03  0.7546771E-02  0.1156353E+00
         -2   -1    0    0    0  501 -0.00000000000E+00  0.00000000000E+00  0.23004630461E+02  0.23004630461E+02  0.00000000000E+00 0.  1.
          2   -1    0    0  501    0  0.00000000000E+00 -0.00000000000E+00 -0.16105454164E+04  0.16105454164E+04  0.00000000000E+00 0. -1.
         23    2    1    2    0    0  0.13370078895E+03 -0.73235213381E+02 -0.58002772446E+03  0.60693153596E+03  0.93243931478E+02 0.  0.
         23    2    1    2    0    0 -0.13370078895E+03  0.73235213381E+02 -0.10075130615E+04  0.10266185109E+04  0.12499480160E+03 0.  0.
          5    1    4    4  502    0 -0.14038362279E+03  0.81112618889E+02 -0.99985817673E+03  0.10129290607E+04  0.47000000000E+01 0. -1.
         -5    1    4    4    0  502  0.66828338422E+01 -0.78774055085E+01 -0.76548847657E+01  0.13689450189E+02  0.47000000000E+01 0. -1.
        -11    1    3    3    0    0  0.31726777081E+02 -0.69795342177E+02 -0.24850276791E+03  0.26006076950E+03  0.00000000000E+00 0.  1.
         11    1    3    3    0    0  0.10197401187E+03 -0.34398712035E+01 -0.33152495655E+03  0.34687076646E+03  0.00000000000E+00 0. -1.
<mgrwt>
<rscale>  0 0.19235670E+03</rscale>
<asrwt>0</asrwt>
<pdfrwt beam="2">  1        2 0.24777628E+00 0.19713700E+03</pdfrwt>
<pdfrwt beam="1">  1       -2 0.35391730E-02 0.19713700E+03</pdfrwt>
<totfact> 0.39256348E+03</totfact>
</mgrwt>
</event>
<event>
 8    1  0.1273312E-005  0.1402675E+03  0.7546771E-02  0.1224273E+00
         -2   -1    0    0    0  501 -0.00000000000E+00  0.00000000000E+00  0.25544412498E+02  0.25544412498E+02  0.00000000000E+00 0.  1.
          2   -1    0    0  501    0  0.00000000000E+00 -0.00000000000E+00 -0.62179208818E+03  0.62179208818E+03  0.00000000000E+00 0. -1.
         23    2    1    2    0    0  0.19879863447E+02 -0.60451042777E+02 -0.23159087797E+03  0.25663257906E+03  0.90423494382E+02 0.  0.
         23    2    1    2    0    0 -0.19879863447E+02  0.60451042777E+02 -0.36465679772E+03  0.39070392161E+03  0.12500174679E+03 0.  0.
          5    1    4    4  502    0 -0.53029456533E+02  0.41937293264E+02 -0.86298448562E+02  0.10972862913E+03  0.47000000000E+01 0.  1.
         -5    1    4    4    0  502  0.33149593086E+02  0.18513749513E+02 -0.27835834915E+03  0.28097529248E+03  0.47000000000E+01 0.  1.
        -11    1    3    3    0    0  0.40403670629E+02 -0.97754684230E+01 -0.16657585747E+03  0.17168439847E+03  0.00000000000E+00 0. -1.
         11    1    3    3    0    0 -0.20523807183E+02 -0.50675574354E+02 -0.65015020492E+02  0.84948180599E+02  0.00000000000E+00 0.  1.
<mgrwt>
<rscale>  0 0.13216855E+03</rscale>
<asrwt>0</asrwt>
<pdfrwt beam="2">  1        2 0.95660317E-01 0.14026751E+03</pdfrwt>
<pdfrwt beam="1">  1       -2 0.39299098E-02 0.14026751E+03</pdfrwt>
<totfact> 0.13021169E+04</totfact>
</mgrwt>
</event>
<event>
 7    1  0.1273312E-005  0.3273833E+03  0.7546771E-02  0.1118492E+00
          2   -1    0    0  501    0  0.00000000000E+00  0.00000000000E+00  0.78751519440E+03  0.78751519440E+03  0.00000000000E+00 0. -1.
         -2   -1    0    0    0  501 -0.00000000000E+00 -0.00000000000E+00 -0.57396149884E+02  0.57396149884E+02  0.00000000000E+00 0.  1.
         23    2    1    2    0    0 -0.35829548260E+00 -0.31838431431E+02  0.15883357396E+03  0.18646853556E+03  0.92350400358E+02 0.  0.
          5    1    1    2  502    0  0.20412850761E+02 -0.53288452736E+02  0.56791546587E+03  0.57079454276E+03  0.47000000000E+01 0. -1.
         -5    1    1    2    0  502 -0.20054555279E+02  0.85126884167E+02  0.33700046926E+01  0.87648265967E+02  0.47000000000E+01 0.  1.
        -11    1    3    3    0    0  0.45099043269E+02 -0.22188401282E+02  0.95451662827E+02  0.10787617342E+03  0.00000000000E+00 0. -1.
         11    1    3    3    0    0 -0.45457338752E+02 -0.96500301490E+01  0.63381911130E+02  0.78592362140E+02  0.00000000000E+00 0.  1.
<mgrwt>
<rscale>  0 0.24196340E+03</rscale>
<asrwt>0</asrwt>
<pdfrwt beam="1">  1        2 0.12115618E+00 0.32738333E+03</pdfrwt>
<pdfrwt beam="2">  1       -2 0.88301775E-02 0.32738333E+03</pdfrwt>
<totfact> 0.29315691E+03</totfact>
</mgrwt>
</event>
<event>
 8    1  0.1273312E-005  0.3202979E+03  0.7546771E-02  0.1076907E+00
         -1   -1    0    0    0  501 -0.00000000000E+00  0.00000000000E+00  0.24479144115E+03  0.24479144115E+03  0.00000000000E+00 0.  1.
          1   -1    0    0  501    0  0.00000000000E+00 -0.00000000000E+00 -0.40675093358E+03  0.40675093358E+03  0.00000000000E+00 0. -1.
         23    2    1    2    0    0  0.80582720485E+02  0.28367557179E+03 -0.51164461638E+02  0.31262311250E+03  0.90277369615E+02 0.  0.
         23    2    1    2    0    0 -0.80582720485E+02 -0.28367557179E+03 -0.11079503079E+03  0.33891926222E+03  0.12500129034E+03 0.  0.
          5    1    4    4  502    0 -0.46239387104E+02 -0.65013556698E+02  0.19187880312E+02  0.82189465415E+02  0.47000000000E+01 0.  1.
         -5    1    4    4    0  502 -0.34343333382E+02 -0.21866201509E+03 -0.12998291110E+03  0.25672979681E+03  0.47000000000E+01 0.  1.
        -11    1    3    3    0    0  0.41092967031E+02  0.25811328359E+03 -0.43836776318E+02  0.26501464500E+03  0.00000000000E+00 0.  1.
         11    1    3    3    0    0  0.39489753455E+02  0.25562288198E+02 -0.73276853195E+01  0.47608467503E+02  0.00000000000E+00 0. -1.
<mgrwt>
<rscale>  0 0.31728307E+03</rscale>
<asrwt>0</asrwt>
<pdfrwt beam="2">  1        1 0.62577067E-01 0.32029787E+03</pdfrwt>
<pdfrwt beam="1">  1       -1 0.37660222E-01 0.32029787E+03</pdfrwt>
<totfact> 0.40895323E+02</totfact>
</mgrwt>
</event>
<event>
 8    1  0.1273312E-005  0.1460969E+03  0.7546771E-02  0.1214608E+00
          2   -1    0    0  501    0  0.00000000000E+00  0.00000000000E+00  0.16279901905E+04  0.16279901905E+04  0.00000000000E+00 0. -1.
         -2   -1    0    0    0  501 -0.00000000000E+00 -0.00000000000E+00 -0.11207885261E+02  0.11207885261E+02  0.00000000000E+00 0.  1.
         23    2    1    2    0    0  0.73511692592E+02  0.17790745674E+02  0.58854163463E+03  0.60063022189E+03  0.93031866463E+02 0.  0.
         23    2    1    2    0    0 -0.73511692592E+02 -0.17790745674E+02  0.10282406707E+04  0.10385678539E+04  0.12499532318E+03 0.  0.
          5    1    4    4  502    0 -0.10130740146E+03 -0.34276387249E+02  0.63376489272E+03  0.64274263089E+03  0.47000000000E+01 0.  1.
         -5    1    4    4    0  502  0.27795708863E+02  0.16485641575E+02  0.39447577794E+03  0.39582522303E+03  0.47000000000E+01 0.  1.
        -11    1    3    3    0    0  0.64749646387E+02 -0.29940445291E+02  0.34343677033E+03  0.35076739043E+03  0.00000000000E+00 0.  1.
         11    1    3    3    0    0  0.87620462050E+01  0.47731190965E+02  0.24510486430E+03  0.24986283147E+03  0.00000000000E+00 0. -1.
<mgrwt>
<rscale>  0 0.13905395E+03</rscale>
<asrwt>0</asrwt>
<pdfrwt beam="1">  1        2 0.25045984E+00 0.14609692E+03</pdfrwt>
<pdfrwt beam="2">  1       -2 0.17242913E-02 0.14609692E+03</pdfrwt>
<totfact> 0.10975986E+04</totfact>
</mgrwt>
</event>
<event>
 8    1  0.1273312E-005  0.1621179E+03  0.7546771E-02  0.1194408E+00
         -2   -1    0    0    0  501 -0.00000000000E+00  0.00000000000E+00  0.21406323216E+02  0.21406323216E+02  0.00000000000E+00 0.  1.
          2   -1    0    0  501    0  0.00000000000E+00 -0.00000000000E+00 -0.10365167881E+04  0.10365167881E+04  0.00000000000E+00 0. -1.
         23    2    1    2    0    0  0.83692509188E+02  0.60569222661E+02 -0.44445078044E+03  0.46468226304E+03  0.87863772519E+02 0.  0.
         23    2    1    2    0    0 -0.83692509188E+02 -0.60569222661E+02 -0.57065968444E+03  0.59324084827E+03  0.12493663109E+03 0.  0.
          5    1    4    4  502    0 -0.76874505334E+02 -0.44019689928E+02 -0.56759203730E+03  0.57448257892E+03  0.47000000000E+01 0. -1.
         -5    1    4    4    0  502 -0.68180038539E+01 -0.16549532732E+02 -0.30676471361E+01  0.18758269354E+02  0.47000000000E+01 0. -1.
        -11    1    3    3    0    0 -0.75305232370E+01  0.33848560867E+02 -0.18822560384E+03  0.19139308188E+03  0.00000000000E+00 0. -1.
         11    1    3    3    0    0  0.91223032425E+02  0.26720661794E+02 -0.25622517660E+03  0.27328918115E+03  0.00000000000E+00 0.  1.
<mgrwt>
<rscale>  0 0.15504409E+03</rscale>
<asrwt>0</asrwt>
<pdfrwt beam="2">  1        2 0.15946404E+00 0.16211795E+03</pdfrwt>
<pdfrwt beam="1">  1       -2 0.32932821E-02 0.16211795E+03</pdfrwt>
<totfact> 0.89628555E+03</totfact>
</mgrwt>
</event>
<event>
 8    1  0.1273312E-005  0.1285287E+03  0.7546771E-02  0.1234809E+00
          2   -1    0    0  501    0  0.00000000000E+00  0.00000000000E+00  0.26032957662E+03  0.26032957662E+03  0.00000000000E+00 0. -1.
         -2   -1    0    0    0  501 -0.00000000000E+00 -0.00000000000E+00 -0.68472869724E+02  0.68472869724E+02  0.00000000000E+00 0.  1.
         23    2    1    2    0    0 -0.92877413776E+00 -0.29821989181E+02  0.25153749320E+02  0.11830422217E+03  0.11168242574E+03 0.  0.
         23    2    1    2    0    0  0.92877413776E+00  0.29821989181E+02  0.16670295758E+03  0.21049822417E+03  0.12501764937E+03 0.  0.
          5    1    4    4  502    0 -0.59522743607E+02  0.13782022544E+02  0.54751795900E+02  0.82175119752E+02  0.47000000000E+01 0. -1.
         -5    1    4    4    0  502  0.60451517745E+02  0.16039966637E+02  0.11195116168E+03  0.12832310442E+03  0.47000000000E+01 0. -1.
        -11    1    3    3    0    0  0.37002316872E+02 -0.15368011364E+02 -0.29836076109E+02  0.49955366727E+02  0.00000000000E+00 0.  1.
         11    1    3    3    0    0 -0.37931091010E+02 -0.14453977817E+02  0.54989825429E+02  0.68348855445E+02  0.00000000000E+00 0. -1.
<mgrwt>
<rscale>  0 0.12516670E+03</rscale>
<asrwt>0</asrwt>
<pdfrwt beam="1">  1        2 0.40050704E-01 0.12852870E+03</pdfrwt>
<pdfrwt beam="2">  1       -2 0.10534288E-01 0.12852870E+03</pdfrwt>
<totfact> 0.73749100E+03</totfact>
</mgrwt>
</event>
<event>
 8    1  0.1273312E-005  0.1321917E+03  0.7546771E-02  0.1231214E+00
         -1   -1    0    0    0  501 -0.00000000000E+00  0.00000000000E+00  0.58533837724E+02  0.58533837724E+02  0.00000000000E+00 0.  1.
          1   -1    0    0  501    0  0.00000000000E+00 -0.00000000000E+00 -0.11730945611E+04  0.11730945611E+04  0.00000000000E+00 0. -1.
         23    2    1    2    0    0 -0.81560673862E+01  0.65499794690E+02 -0.53022691543E+01  0.11452099271E+03  0.93435534852E+02 0.  0.
         23    2    1    2    0    0  0.81560673862E+01 -0.65499794690E+02 -0.11092584542E+04  0.11171074061E+04  0.11453337503E+03 0.  0.
          5    1    4    4  502    0  0.50510109773E+02 -0.62462954618E+02 -0.89637202180E+03  0.89997654600E+03  0.47000000000E+01 0. -1.
         -5    1    4    4    0  502 -0.42354042387E+02 -0.30368400715E+01 -0.21288643242E+03  0.21713086011E+03  0.47000000000E+01 0.  1.
        -11    1    3    3    0    0 -0.44584967440E+02  0.22315816270E+02  0.18547617135E+02  0.53196137818E+02  0.00000000000E+00 0.  1.
         11    1    3    3    0    0  0.36428900054E+02  0.43183978420E+02 -0.23849886289E+02  0.61324854890E+02  0.00000000000E+00 0. -1.
<mgrwt>
<rscale>  0 0.12749932E+03</rscale>
<asrwt>0</asrwt>
<pdfrwt beam="2">  1        1 0.18047608E+00 0.13219167E+03</pdfrwt>
<pdfrwt beam="1">  1       -1 0.90052063E-02 0.13219167E+03</pdfrwt>
<totfact> 0.86729612E+02</totfact>
</mgrwt>
</event>
<event>
 8    1  0.1273312E-005  0.1567558E+03  0.7546771E-02  0.1200289E+00
          1   -1    0    0  501    0  0.00000000000E+00  0.00000000000E+00  0.57878315544E+03  0.57878315544E+03  0.00000000000E+00 0.  1.
         -1   -1    0    0    0  501 -0.00000000000E+00 -0.00000000000E+00 -0.46743902323E+02  0.46743902323E+02  0.00000000000E+00 0. -1.
         23    2    1    2    0    0 -0.91194944149E+01  0.94149824668E+02  0.98929656867E+02  0.16492278148E+03  0.92005935564E+02 0.  0.
         23    2    1    2    0    0  0.91194944149E+01 -0.94149824668E+02  0.43310959625E+03  0.46060427629E+03  0.12500008922E+03 0.  0.
          5    1    4    4  502    0 -0.19450874142E+00  0.19537320150E+02  0.20033797427E+03  0.20134333524E+03  0.47000000000E+01 0. -1.
         -5    1    4    4    0  502  0.93140031563E+01 -0.11368714482E+03  0.23277162198E+03  0.25926094105E+03  0.47000000000E+01 0. -1.
        -11    1    3    3    0    0  0.41560478165E+02  0.42314736801E+02  0.40599603049E+02  0.71875851742E+02  0.00000000000E+00 0.  1.
         11    1    3    3    0    0 -0.50679972580E+02  0.51835087867E+02  0.58330053817E+02  0.93046929735E+02  0.00000000000E+00 0. -1.
<mgrwt>
<rscale>  0 0.15014994E+03</rscale>
<asrwt>0</asrwt>
<pdfrwt beam="1">  1        1 0.89043557E-01 0.15675579E+03</pdfrwt>
<pdfrwt beam="2">  1       -1 0.71913700E-02 0.15675579E+03</pdfrwt>
<totfact> 0.36666809E+03</totfact>
</mgrwt>
</event>
<event>
 8    1  0.1273312E-005  0.1305311E+03  0.7546771E-02  0.1240574E+00
          1   -1    0    0  501    0  0.00000000000E+00  0.00000000000E+00  0.67769834648E+03  0.67769834648E+03  0.00000000000E+00 0. -1.
         -1   -1    0    0    0  501 -0.00000000000E+00 -0.00000000000E+00 -0.22550421342E+02  0.22550421342E+02  0.00000000000E+00 0.  1.
         23    2    1    2    0    0 -0.20329044826E+01  0.37580663368E+02  0.15582141131E+03  0.18414283946E+03  0.90619170936E+02 0.  0.
         23    2    1    2    0    0  0.20329044826E+01 -0.37580663368E+02  0.49932651383E+03  0.51610592836E+03  0.12498769108E+03 0.  0.
          5    1    4    4  502    0  0.38906326308E+02 -0.58036123178E+02  0.16709177977E+03  0.18117297449E+03  0.47000000000E+01 0. -1.
         -5    1    4    4    0  502 -0.36873421826E+02  0.20455459809E+02  0.33223473406E+03  0.33493295387E+03  0.47000000000E+01 0. -1.
        -11    1    3    3    0    0  0.33007752658E+02  0.50392012538E+02  0.10568410942E+03  0.12164702071E+03  0.00000000000E+00 0. -1.
         11    1    3    3    0    0 -0.35040657141E+02 -0.12811349170E+02  0.50137301889E+02  0.62495818749E+02  0.00000000000E+00 0.  1.
<mgrwt>
<rscale>  0 0.12154273E+03</rscale>
<asrwt>0</asrwt>
<pdfrwt beam="1">  1        1 0.10426127E+00 0.13053108E+03</pdfrwt>
<pdfrwt beam="2">  1       -1 0.34692961E-02 0.13053108E+03</pdfrwt>
<totfact> 0.86045356E+03</totfact>
</mgrwt>
</event>
<event>
 8    1  0.1273312E-005  0.2429845E+03  0.7546771E-02  0.1120528E+00
         -3   -1    0    0    0  501 -0.00000000000E+00  0.00000000000E+00  0.82154621149E+03  0.82154621149E+03  0.00000000000E+00 0.  1.
          3   -1    0    0  501    0  0.00000000000E+00 -0.00000000000E+00 -0.68066816376E+02  0.68066816376E+02  0.00000000000E+00 0. -1.
         23    2    1    2    0    0 -0.77029630661E+02  0.19360541311E+03  0.41339239204E+03  0.47164099987E+03  0.90196136155E+02 0.  0.
         23    2    1    2    0    0  0.77029630661E+02 -0.19360541311E+03  0.34008700308E+03  0.41797202800E+03  0.12499930617E+03 0.  0.
          5    1    4    4  502    0 -0.19757861450E+01 -0.11367188642E+03  0.94727220112E+02  0.14805586014E+03  0.47000000000E+01 0. -1.
         -5    1    4    4    0  502  0.79005416806E+02 -0.79933526693E+02  0.24535978297E+03  0.26991616786E+03  0.47000000000E+01 0. -1.
        -11    1    3    3    0    0 -0.39447342440E+02  0.29454095900E+02  0.45489599853E+02  0.67029398667E+02  0.00000000000E+00 0. -1.
         11    1    3    3    0    0 -0.37582288221E+02  0.16415131721E+03  0.36790279218E+03  0.40461160120E+03  0.00000000000E+00 0.  1.
<mgrwt>
<rscale>  0 0.23889910E+03</rscale>
<asrwt>0</asrwt>
<pdfrwt beam="2">  1        3 0.10471819E-01 0.24298446E+03</pdfrwt>
<pdfrwt beam="1">  1       -3 0.12639172E+00 0.24298446E+03</pdfrwt>
<totfact> 0.88492287E+01</totfact>
</mgrwt>
</event>
<event>
 8    1  0.1273312E-005  0.1275049E+03  0.7546771E-02  0.1247201E+00
         -3   -1    0    0    0  501 -0.00000000000E+00  0.00000000000E+00  0.74367137621E+02  0.74367137621E+02  0.00000000000E+00 0.  1.
          3   -1    0    0  501    0  0.00000000000E+00 -0.00000000000E+00 -0.16879783096E+03  0.16879783096E+03  0.00000000000E+00 0. -1.
         23    2    1    2    0    0  0.19702434570E+02  0.15600930352E+02 -0.16025203481E+02  0.93482244195E+02  0.88603317530E+02 0.  0.
         23    2    1    2    0    0 -0.19702434570E+02 -0.15600930352E+02 -0.78405489853E+02  0.14968272438E+03  0.12500368868E+03 0.  0.
          5    1    4    4  502    0 -0.51509592075E+02 -0.39014220291E+01  0.11809136350E+02  0.53197790094E+02  0.47000000000E+01 0.  1.
         -5    1    4    4    0  502  0.31807157505E+02 -0.11699508323E+02 -0.90214626203E+02  0.96484934288E+02  0.47000000000E+01 0.  1.
        -11    1    3    3    0    0  0.31916428861E+02  0.80184697459E+00 -0.47135508403E+02  0.56930286687E+02  0.00000000000E+00 0. -1.
         11    1    3    3    0    0 -0.12213994291E+02  0.14799083378E+02  0.31110304922E+02  0.36551957508E+02  0.00000000000E+00 0.  1.
<mgrwt>
<rscale>  0 0.11754609E+03</rscale>
<asrwt>0</asrwt>
<pdfrwt beam="2">  1        3 0.25968897E-01 0.12750489E+03</pdfrwt>
<pdfrwt beam="1">  1       -3 0.11441098E-01 0.12750489E+03</pdfrwt>
<totfact> 0.18725174E+03</totfact>
</mgrwt>
</event>
<event>
 8    1  0.1273312E-005  0.1707176E+03  0.7546771E-02  0.1178287E+00
          1   -1    0    0  501    0  0.00000000000E+00  0.00000000000E+00  0.33179012471E+03  0.33179012471E+03  0.00000000000E+00 0. -1.
         -1   -1    0    0    0  501 -0.00000000000E+00 -0.00000000000E+00 -0.86904963154E+02  0.86904963154E+02  0.00000000000E+00 0.  1.
         23    2    1    2    0    0  0.68406837168E+02 -0.94021781862E+02  0.94567422523E+02  0.19123094214E+03  0.11877156643E+03 0.  0.
         23    2    1    2    0    0 -0.68406837168E+02  0.94021781862E+02  0.15031773904E+03  0.22746414573E+03  0.12499969635E+03 0.  0.
          5    1    4    4  502    0 -0.27471679412E+01  0.10397971464E+03  0.93338500964E+02  0.13983380761E+03  0.47000000000E+01 0. -1.
         -5    1    4    4    0  502 -0.65659669227E+02 -0.99579327733E+01  0.56979238072E+02  0.87630338122E+02  0.47000000000E+01 0. -1.
        -11    1    3    3    0    0 -0.22328149196E+02 -0.65600543882E+02  0.26039029657E+02  0.74027080651E+02  0.00000000000E+00 0.  1.
         11    1    3    3    0    0  0.90734986364E+02 -0.28421237980E+02  0.68528392866E+02  0.11720386149E+03  0.00000000000E+00 0. -1.
<mgrwt>
<rscale>  0 0.16957979E+03</rscale>
<asrwt>0</asrwt>
<pdfrwt beam="1">  1        1 0.51044634E-01 0.17071765E+03</pdfrwt>
<pdfrwt beam="2">  1       -1 0.13369995E-01 0.17071765E+03</pdfrwt>
<totfact> 0.29157370E+03</totfact>
</mgrwt>
</event>
<event>
 7    1  0.1273312E-005  0.3528447E+03  0.7546771E-02  0.1061453E+00
         -2   -1    0    0    0  501 -0.00000000000E+00  0.00000000000E+00  0.16301994315E+03  0.16301994315E+03  0.00000000000E+00 0.  1.
          2   -1    0    0  501    0  0.00000000000E+00 -0.00000000000E+00 -0.19092666264E+03  0.19092666264E+03  0.00000000000E+00 0. -1.
         23    2    1    2    0    0  0.35081338320E+02 -0.22185468793E+02  0.83132111027E+02  0.12793503668E+03  0.87940493539E+02 0.  0.
          5    1    1    2  502    0 -0.65449863324E+02  0.49962494243E+02 -0.14869142637E+03  0.17003283717E+03  0.47000000000E+01 0. -1.
         -5    1    1    2    0  502  0.30368525004E+02 -0.27777025450E+02  0.37652595859E+02  0.55978731932E+02  0.47000000000E+01 0.  1.
        -11    1    3    3    0    0  0.11564417418E+02  0.19811890538E+02 -0.84723487975E+01  0.24454599793E+02  0.00000000000E+00 0. -1.
         11    1    3    3    0    0  0.23516920902E+02 -0.41997359331E+02  0.91604459825E+02  0.10348043689E+03  0.00000000000E+00 0.  1.
<mgrwt>
<rscale>  0 0.35284475E+03</rscale>
<asrwt>0</asrwt>
<pdfrwt beam="2">  1        2 0.29373333E-01 0.35284475E+03</pdfrwt>
<pdfrwt beam="1">  1       -2 0.25079991E-01 0.35284475E+03</pdfrwt>
<totfact> 0.25486372E+03</totfact>
</mgrwt>
</event>
<event>
 8    1  0.1273312E-005  0.1370791E+03  0.7546771E-02  0.1229675E+00
         -2   -1    0    0    0  501 -0.00000000000E+00  0.00000000000E+00  0.97733567686E+02  0.97733567686E+02  0.00000000000E+00 0.  1.
          2   -1    0    0  501    0  0.00000000000E+00 -0.00000000000E+00 -0.16003796971E+03  0.16003796971E+03  0.00000000000E+00 0. -1.
         23    2    1    2    0    0 -0.15529857659E+02 -0.54044888749E+02  0.29666662959E+01  0.10594599625E+03  0.89742556978E+02 0.  0.
         23    2    1    2    0    0  0.15529857659E+02  0.54044888749E+02 -0.65271068322E+02  0.15182554115E+03  0.12501462357E+03 0.  0.
          5    1    4    4  502    0 -0.43302514637E+02  0.63250368706E+02 -0.43413402181E+02  0.88218651113E+02  0.47000000000E+01 0.  1.
         -5    1    4    4    0  502  0.58832372297E+02 -0.92054799571E+01 -0.21857666141E+02  0.63606890039E+02  0.47000000000E+01 0.  1.
        -11    1    3    3    0    0 -0.32989522788E+02 -0.86216357684E+01 -0.31414347889E+02  0.46362727167E+02  0.00000000000E+00 0. -1.
         11    1    3    3    0    0  0.17459665128E+02 -0.45423252981E+02  0.34381014185E+02  0.59583269079E+02  0.00000000000E+00 0.  1.
<mgrwt>
<rscale>  0 0.12851594E+03</rscale>
<asrwt>0</asrwt>
<pdfrwt beam="2">  1        2 0.24621226E-01 0.13707911E+03</pdfrwt>
<pdfrwt beam="1">  1       -2 0.15035934E-01 0.13707911E+03</pdfrwt>
<totfact> 0.70810579E+03</totfact>
</mgrwt>
</event>
<event>
 8    1  0.1273312E-005  0.1292590E+03  0.7546771E-02  0.1242852E+00
         -2   -1    0    0    0  501 -0.00000000000E+00  0.00000000000E+00  0.35074089556E+03  0.35074089556E+03  0.00000000000E+00 0.  1.
          2   -1    0    0  501    0  0.00000000000E+00 -0.00000000000E+00 -0.39151869267E+02  0.39151869267E+02  0.00000000000E+00 0. -1.
         23    2    1    2    0    0 -0.32676247085E+02  0.39246108237E+01  0.18667478315E+03  0.21013887391E+03  0.90706846329E+02 0.  0.
         23    2    1    2    0    0  0.32676247085E+02 -0.39246108237E+01  0.12491424315E+03  0.17975389092E+03  0.12499901386E+03 0.  0.
          5    1    4    4  502    0 -0.39897140684E+02  0.21325460999E+02  0.20150585604E+02  0.49746288522E+02  0.47000000000E+01 0.  1.
         -5    1    4    4    0  502  0.72573387769E+02 -0.25250071823E+02  0.10476365754E+03  0.13000760240E+03  0.47000000000E+01 0.  1.
        -11    1    3    3    0    0 -0.59790638271E+01  0.35638006062E+02  0.15156777829E+03  0.15581594301E+03  0.00000000000E+00 0.  1.
         11    1    3    3    0    0 -0.26697183258E+02 -0.31713395238E+02  0.35107004857E+02  0.54322930899E+02  0.00000000000E+00 0. -1.
<mgrwt>
<rscale>  0 0.12014880E+03</rscale>
<asrwt>0</asrwt>
<pdfrwt beam="2">  1        2 0.60233647E-02 0.12925902E+03</pdfrwt>
<pdfrwt beam="1">  1       -2 0.53960136E-01 0.12925902E+03</pdfrwt>
<totfact> 0.38419664E+03</totfact>
</mgrwt>
</event>
<event>
 7    1  0.1273312E-005  0.1707501E+03  0.7546771E-02  0.1187069E+00
         -1   -1    0    0    0  501 -0.00000000000E+00  0.00000000000E+00  0.39339465943E+03  0.39339465943E+03  0.00000000000E+00 0.  1.
          1   -1    0    0  501    0  0.00000000000E+00 -0.00000000000E+00 -0.15672342938E+03  0.15672342938E+03  0.00000000000E+00 0. -1.
         23    2    1    2    0    0  0.18643957602E+02 -0.11030976431E+03  0.32887019258E+03  0.35606587458E+03  0.78175841641E+02 0.  0.
          5    1    1    2  502    0 -0.79114410012E+00  0.17749717444E+02 -0.97791542065E+02  0.99503538016E+02  0.47000000000E+01 0. -1.
         -5    1    1    2    0  502 -0.17852813502E+02  0.92560046870E+02  0.55925795344E+01  0.94548676207E+02  0.47000000000E+01 0.  1.
        -11    1    3    3    0    0  0.24175757458E+02 -0.12390518022E+02  0.14649205788E+03  0.14898964799E+03  0.00000000000E+00 0.  1.
         11    1    3    3    0    0 -0.55317998564E+01 -0.97919246293E+02  0.18237813470E+03  0.20707622660E+03  0.00000000000E+00 0. -1.
<mgrwt>
<rscale>  0 0.16145056E+03</rscale>
<asrwt>0</asrwt>
<pdfrwt beam="2">  1        1 0.24111297E-01 0.17075015E+03</pdfrwt>
<pdfrwt beam="1">  1       -1 0.60522255E-01 0.17075015E+03</pdfrwt>
<totfact> 0.57405982E+02</totfact>
</mgrwt>
</event>
<event>
 8    1  0.1276280E-005  0.1576822E+03  0.7546771E-02  0.1198976E+00
          2   -1    0    0  501    0  0.00000000000E+00  0.00000000000E+00  0.39442692304E+03  0.39442692304E+03  0.00000000000E+00 0. -1.
         -2   -1    0    0    0  501 -0.00000000000E+00 -0.00000000000E+00 -0.54245871909E+02  0.54245871909E+02  0.00000000000E+00 0.  1.
         23    2    1    2    0    0 -0.85100666989E+02  0.44681984102E+02  0.13366405839E+03  0.18884029174E+03  0.92498497569E+02 0.  0.
         23    2    1    2    0    0  0.85100666989E+02 -0.44681984102E+02  0.20651699274E+03  0.25983250321E+03  0.12500023284E+03 0.  0.
          5    1    4    4  502    0  0.16877711661E+02  0.25646368807E+02 -0.15770911403E+00  0.31059752994E+02  0.47000000000E+01 0.  1.
         -5    1    4    4    0  502  0.68222955328E+02 -0.70328352908E+02  0.20667470185E+03  0.22877275022E+03  0.47000000000E+01 0.  1.
        -11    1    3    3    0    0 -0.58023417190E+02  0.52344002760E+02  0.33895945041E+02  0.85179496697E+02  0.00000000000E+00 0.  1.
         11    1    3    3    0    0 -0.27077249799E+02 -0.76620186589E+01  0.99768113354E+02  0.10366079504E+03  0.00000000000E+00 0. -1.
<mgrwt>
<rscale>  0 0.15122474E+03</rscale>
<asrwt>0</asrwt>
<pdfrwt beam="1">  1        2 0.60681063E-01 0.15768215E+03</pdfrwt>
<pdfrwt beam="2">  1       -2 0.83455190E-02 0.15768215E+03</pdfrwt>
<totfact> 0.69170135E+03</totfact>
</mgrwt>
</event>
<event>
 7    1  0.1273312E-005  0.2002846E+03  0.7546771E-02  0.1158618E+00
         -1   -1    0    0    0  501 -0.00000000000E+00  0.00000000000E+00  0.53932085090E+02  0.53932085090E+02  0.00000000000E+00 0.  1.
          1   -1    0    0  501    0  0.00000000000E+00 -0.00000000000E+00 -0.66436773966E+03  0.66436773966E+03  0.00000000000E+00 0. -1.
         23    2    1    2    0    0  0.10856547003E+03 -0.11270006956E+03 -0.23013981028E+03  0.30508728922E+03  0.12500461914E+03 0.  0.
          5    1    3    3  502    0  0.11561377376E+02 -0.61273588335E+02 -0.16705307752E+03  0.17837303267E+03  0.47000000000E+01 0. -1.
         -5    1    3    3    0  502  0.97004092653E+02 -0.51426481230E+02 -0.63086732753E+02  0.12671425655E+03  0.47000000000E+01 0. -1.
        -11    1    1    2    0    0 -0.47455926818E+02  0.77589332600E+02 -0.22404832053E+03  0.24180533380E+03  0.00000000000E+00 0.  1.
         11    1    1    2    0    0 -0.61109543211E+02  0.35110736965E+02 -0.15624752376E+03  0.17140720173E+03  0.00000000000E+00 0. -1.
<mgrwt>
<rscale>  0 0.18982641E+03</rscale>
<asrwt>0</asrwt>
<pdfrwt beam="2">  1        1 0.10221042E+00 0.20028460E+03</pdfrwt>
<pdfrwt beam="1">  1       -1 0.82972442E-02 0.20028460E+03</pdfrwt>
<totfact> 0.24559624E+03</totfact>
</mgrwt>
</event>
<event>
 8    1  0.1273312E-005  0.1569115E+03  0.7546771E-02  0.1200209E+00
         -2   -1    0    0    0  501 -0.00000000000E+00  0.00000000000E+00  0.24009969868E+02  0.24009969868E+02  0.00000000000E+00 0.  1.
          2   -1    0    0  501    0  0.00000000000E+00 -0.00000000000E+00 -0.92895207499E+03  0.92895207499E+03  0.00000000000E+00 0. -1.
         23    2    1    2    0    0  0.85765888953E+02 -0.40489646708E+02 -0.29394134967E+03  0.32213468763E+03  0.91509784904E+02 0.  0.
         23    2    1    2    0    0 -0.85765888953E+02  0.40489646708E+02 -0.61100075546E+03  0.63082735723E+03  0.12500412897E+03 0.  0.
          5    1    4    4  502    0 -0.52236895242E+00  0.29107902217E+02 -0.25380991091E+02  0.38907936845E+02  0.47000000000E+01 0. -1.
         -5    1    4    4    0  502 -0.85243520001E+02  0.11381744491E+02 -0.58561976437E+03  0.59191942038E+03  0.47000000000E+01 0. -1.
        -11    1    3    3    0    0  0.31949630219E+02 -0.36215192837E+02 -0.40562567022E+02  0.63068541340E+02  0.00000000000E+00 0.  1.
         11    1    3    3    0    0  0.53816258735E+02 -0.42744538717E+01 -0.25337878264E+03  0.25906614629E+03  0.00000000000E+00 0. -1.
<mgrwt>
<rscale>  0 0.15021516E+03</rscale>
<asrwt>0</asrwt>
<pdfrwt beam="2">  1        2 0.14291570E+00 0.15691154E+03</pdfrwt>
<pdfrwt beam="1">  1       -2 0.36938415E-02 0.15691154E+03</pdfrwt>
<totfact> 0.87717416E+03</totfact>
</mgrwt>
</event>
<event>
 8    1  0.1273312E-005  0.1437384E+03  0.7546771E-02  0.1219182E+00
         -1   -1    0    0    0  501 -0.00000000000E+00  0.00000000000E+00  0.21286191266E+02  0.21286191266E+02  0.00000000000E+00 0.  1.
          1   -1    0    0  501    0  0.00000000000E+00 -0.00000000000E+00 -0.88768288511E+03  0.88768288511E+03  0.00000000000E+00 0. -1.
         23    2    1    2    0    0 -0.19415333191E+02 -0.68255161335E+02 -0.23381210365E+03  0.26025959501E+03  0.89617156655E+02 0.  0.
         23    2    1    2    0    0  0.19415333191E+02  0.68255161335E+02 -0.63258459019E+03  0.64870948137E+03  0.12500002103E+03 0.  0.
          5    1    4    4  502    0  0.61744715228E+02  0.75113641487E+02 -0.49642346281E+03  0.50587825949E+03  0.47000000000E+01 0. -1.
         -5    1    4    4    0  502 -0.42329382036E+02 -0.68584801521E+01 -0.13616112738E+03  0.14283122187E+03  0.47000000000E+01 0. -1.
        -11    1    3    3    0    0 -0.10107031625E+02 -0.36145399574E+02 -0.22146173394E+03  0.22461954856E+03  0.00000000000E+00 0. -1.
         11    1    3    3    0    0 -0.93083015662E+01 -0.32109761761E+02 -0.12350369716E+02  0.35640046444E+02  0.00000000000E+00 0.  1.
<mgrwt>
<rscale>  0 0.13573799E+03</rscale>
<asrwt>0</asrwt>
<pdfrwt beam="2">  1        1 0.13656660E+00 0.14373840E+03</pdfrwt>
<pdfrwt beam="1">  1       -1 0.32747986E-02 0.14373840E+03</pdfrwt>
<totfact> 0.62930254E+03</totfact>
</mgrwt>
</event>
<event>
 8    1  0.1273312E-005  0.1336176E+03  0.7546771E-02  0.1234965E+00
         -2   -1    0    0    0  501 -0.00000000000E+00  0.00000000000E+00  0.11998518841E+03  0.11998518841E+03  0.00000000000E+00 0. -1.
          2   -1    0    0  501    0  0.00000000000E+00 -0.00000000000E+00 -0.13114730415E+03  0.13114730415E+03  0.00000000000E+00 0.  1.
         23    2    1    2    0    0 -0.36617218590E+02  0.29795759243E+02  0.37104259732E+02  0.10906450442E+03  0.91047965754E+02 0.  0.
         23    2    1    2    0    0  0.36617218590E+02 -0.29795759243E+02 -0.48266375473E+02  0.14206798814E+03  0.12500024915E+03 0.  0.
          5    1    4    4  502    0  0.79527715150E+02 -0.19635306359E+01 -0.15614448995E+02  0.81205996989E+02  0.47000000000E+01 0.  1.
         -5    1    4    4    0  502 -0.42910496560E+02 -0.27832228607E+02 -0.32651926478E+02  0.60861991152E+02  0.47000000000E+01 0.  1.
        -11    1    3    3    0    0  0.12983958021E+02  0.22260012583E+02 -0.20315141378E+02  0.32814574434E+02  0.00000000000E+00 0.  1.
         11    1    3    3    0    0 -0.49601176612E+02  0.75357466595E+01  0.57419401110E+02  0.76249929985E+02  0.00000000000E+00 0. -1.
<mgrwt>
<rscale>  0 0.12506656E+03</rscale>
<asrwt>0</asrwt>
<pdfrwt beam="2">  1        2 0.20176508E-01 0.13361763E+03</pdfrwt>
<pdfrwt beam="1">  1       -2 0.18459260E-01 0.13361763E+03</pdfrwt>
<totfact> 0.62891525E+03</totfact>
</mgrwt>
</event>
<event>
 8    1  0.1273312E-005  0.1621877E+03  0.7546771E-02  0.1192649E+00
         -1   -1    0    0    0  501 -0.00000000000E+00  0.00000000000E+00  0.17530248073E+02  0.17530248073E+02  0.00000000000E+00 0.  1.
          1   -1    0    0  501    0  0.00000000000E+00 -0.00000000000E+00 -0.17481324123E+04  0.17481324123E+04  0.00000000000E+00 0. -1.
         23    2    1    2    0    0  0.82297160456E+02 -0.62513848774E+02 -0.37788110997E+03  0.40325335492E+03  0.95594618407E+02 0.  0.
         23    2    1    2    0    0 -0.82297160456E+02  0.62513848774E+02 -0.13527210542E+04  0.13624093054E+04  0.12499624421E+03 0.  0.
          5    1    4    4  502    0  0.73496644228E+01  0.21324101966E+02 -0.83691514452E+03  0.83723221631E+03  0.47000000000E+01 0. -1.
         -5    1    4    4    0  502 -0.89646824879E+02  0.41189746808E+02 -0.51580590969E+03  0.52517708910E+03  0.47000000000E+01 0. -1.
        -11    1    3    3    0    0 -0.54672929928E+01 -0.52102158484E+02 -0.13805903806E+03  0.14766456651E+03  0.00000000000E+00 0.  1.
         11    1    3    3    0    0  0.87764453449E+02 -0.10411690290E+02 -0.23982207191E+03  0.25558878841E+03  0.00000000000E+00 0. -1.
<mgrwt>
<rscale>  0 0.15654857E+03</rscale>
<asrwt>0</asrwt>
<pdfrwt beam="2">  1        1 0.26894355E+00 0.16218775E+03</pdfrwt>
<pdfrwt beam="1">  1       -1 0.26969602E-02 0.16218775E+03</pdfrwt>
<totfact> 0.21721341E+03</totfact>
</mgrwt>
</event>
<event>
 8    1  0.1273312E-005  0.1260392E+03  0.7546771E-02  0.1246509E+00
          1   -1    0    0  501    0  0.00000000000E+00  0.00000000000E+00  0.39549862221E+03  0.39549862221E+03  0.00000000000E+00 0. -1.
         -1   -1    0    0    0  501 -0.00000000000E+00 -0.00000000000E+00 -0.43979086624E+02  0.43979086624E+02  0.00000000000E+00 0.  1.
         23    2    1    2    0    0 -0.26129987903E+02  0.84086203897E+01  0.42251651464E+02  0.10551287317E+03  0.92705356844E+02 0.  0.
         23    2    1    2    0    0  0.26129987903E+02 -0.84086203897E+01  0.30926788412E+03  0.33396483566E+03  0.12301384535E+03 0.  0.
          5    1    4    4  502    0  0.40227847352E+02 -0.20397494333E+02  0.31146150920E+03  0.31474545143E+03  0.47000000000E+01 0. -1.
         -5    1    4    4    0  502 -0.14097859448E+02  0.11988873944E+02 -0.21936250857E+01  0.19219384238E+02  0.47000000000E+01 0.  1.
        -11    1    3    3    0    0 -0.22909512974E+02 -0.31084370547E+01 -0.26822454854E+02  0.35411188204E+02  0.00000000000E+00 0.  1.
         11    1    3    3    0    0 -0.32204749288E+01  0.11517057444E+02  0.69074106317E+02  0.70101684962E+02  0.00000000000E+00 0. -1.
<mgrwt>
<rscale>  0 0.11795539E+03</rscale>
<asrwt>0</asrwt>
<pdfrwt beam="1">  1        1 0.60845939E-01 0.12603923E+03</pdfrwt>
<pdfrwt beam="2">  1       -1 0.67660136E-02 0.12603923E+03</pdfrwt>
<totfact> 0.65143071E+03</totfact>
</mgrwt>
</event>
<event>
 8    1  0.1273312E-005  0.1338358E+03  0.7546771E-02  0.1235003E+00
         -1   -1    0    0    0  501 -0.00000000000E+00  0.00000000000E+00  0.16453457631E+03  0.16453457631E+03  0.00000000000E+00 0.  1.
          1   -1    0    0  501    0  0.00000000000E+00 -0.00000000000E+00 -0.84731134003E+02  0.84731134003E+02  0.00000000000E+00 0. -1.
         23    2    1    2    0    0 -0.38420425435E+02 -0.28475374931E+02  0.27989152066E+02  0.10575008795E+03  0.90070596761E+02 0.  0.
         23    2    1    2    0    0  0.38420425435E+02  0.28475374931E+02  0.51814290244E+02  0.14351562236E+03  0.12500014848E+03 0.  0.
          5    1    4    4  502    0  0.68959342777E+02 -0.12250042753E+02  0.59247843558E+02  0.91857778495E+02  0.47000000000E+01 0.  1.
         -5    1    4    4    0  502 -0.30538917343E+02  0.40725417684E+02 -0.74335533135E+01  0.51657843866E+02  0.47000000000E+01 0.  1.
        -11    1    3    3    0    0  0.21595399719E+02  0.16307515683E+02  0.62061348224E+01  0.27763509616E+02  0.00000000000E+00 0. -1.
         11    1    3    3    0    0 -0.60015825154E+02 -0.44782890615E+02  0.21783017244E+02  0.77986578338E+02  0.00000000000E+00 0.  1.
<mgrwt>
<rscale>  0 0.12504222E+03</rscale>
<asrwt>0</asrwt>
<pdfrwt beam="2">  1        1 0.13035559E-01 0.13383577E+03</pdfrwt>
<pdfrwt beam="1">  1       -1 0.25313012E-01 0.13383577E+03</pdfrwt>
<totfact> 0.58177396E+03</totfact>
</mgrwt>
</event>
<event>
 7    1  0.1273312E-005  0.1561445E+03  0.7546771E-02  0.1208921E+00
          1   -1    0    0  501    0  0.00000000000E+00  0.00000000000E+00  0.15111342588E+04  0.15111342588E+04  0.00000000000E+00 0. -1.
         -1   -1    0    0    0  501 -0.00000000000E+00 -0.00000000000E+00 -0.14197194638E+02  0.14197194638E+02  0.00000000000E+00 0.  1.
         23    2    1    2    0    0 -0.13621943343E+01 -0.56356081373E+02  0.33294795763E+03  0.35091596295E+03  0.95445309390E+02 0.  0.
          5    1    1    2  502    0 -0.22329239749E+02  0.98819327737E+02  0.62033920543E+03  0.62857511427E+03  0.47000000000E+01 0. -1.
         -5    1    1    2    0  502  0.23691434083E+02 -0.42463246364E+02  0.54364990107E+03  0.54584037619E+03  0.47000000000E+01 0.  1.
        -11    1    3    3    0    0  0.34260752578E+02  0.63702995173E+01  0.15568418265E+03  0.15953665601E+03  0.00000000000E+00 0.  1.
         11    1    3    3    0    0 -0.35622946912E+02 -0.62726380890E+02  0.17726377497E+03  0.19137930694E+03  0.00000000000E+00 0. -1.
<mgrwt>
<rscale>  0 0.14332723E+03</rscale>
<asrwt>0</asrwt>
<pdfrwt beam="1">  1        1 0.23248207E+00 0.15614450E+03</pdfrwt>
<pdfrwt beam="2">  1       -1 0.21841850E-02 0.15614450E+03</pdfrwt>
<totfact> 0.41952059E+03</totfact>
</mgrwt>
</event>
<event>
 8    1  0.1273312E-005  0.1525059E+03  0.7546771E-02  0.1206802E+00
         -1   -1    0    0    0  501 -0.00000000000E+00  0.00000000000E+00  0.30947934325E+03  0.30947934325E+03  0.00000000000E+00 0.  1.
          1   -1    0    0  501    0  0.00000000000E+00 -0.00000000000E+00 -0.63071859276E+02  0.63071859276E+02  0.00000000000E+00 0. -1.
         23    2    1    2    0    0 -0.60428157792E+02  0.63118768950E+02  0.13527846431E+03  0.18385117316E+03  0.88687370671E+02 0.  0.
         23    2    1    2    0    0  0.60428157792E+02 -0.63118768950E+02  0.11112901966E+03  0.18870002937E+03  0.12499000290E+03 0.  0.
          5    1    4    4  502    0 -0.20192511700E+02 -0.63470316687E+02  0.74440685027E+02  0.99998621073E+02  0.47000000000E+01 0.  1.
         -5    1    4    4    0  502  0.80620669492E+02  0.35154773704E+00  0.36688334632E+02  0.88701408293E+02  0.47000000000E+01 0.  1.
        -11    1    3    3    0    0 -0.78728192757E+02  0.35485337780E+02  0.11870959810E+03  0.14679681949E+03  0.00000000000E+00 0.  1.
         11    1    3    3    0    0  0.18300034965E+02  0.27633431171E+02  0.16568866214E+02  0.37054353666E+02  0.00000000000E+00 0. -1.
<mgrwt>
<rscale>  0 0.14496390E+03</rscale>
<asrwt>0</asrwt>
<pdfrwt beam="2">  1        1 0.97033631E-02 0.15250588E+03</pdfrwt>
<pdfrwt beam="1">  1       -1 0.47612206E-01 0.15250588E+03</pdfrwt>
<totfact> 0.29182252E+03</totfact>
</mgrwt>
</event>
<event>
 8    1  0.1273312E-005  0.1356528E+03  0.7546771E-02  0.1230199E+00
          3   -1    0    0  501    0  0.00000000000E+00  0.00000000000E+00  0.18109859504E+03  0.18109859504E+03  0.00000000000E+00 0. -1.
         -3   -1    0    0    0  501 -0.00000000000E+00 -0.00000000000E+00 -0.82759816226E+02  0.82759816226E+02  0.00000000000E+00 0.  1.
         23    2    1    2    0    0  0.25365629881E+02 -0.46166743107E+02  0.31291107402E+02  0.11254066358E+03  0.94400657875E+02 0.  0.
         23    2    1    2    0    0 -0.25365629881E+02  0.46166743107E+02  0.67047671413E+02  0.15131774769E+03  0.12500754848E+03 0.  0.
          5    1    4    4  502    0 -0.62103300316E+02 -0.12775286911E+01  0.66509273751E+02  0.91126425830E+02  0.47000000000E+01 0.  1.
         -5    1    4    4    0  502  0.36737670435E+02  0.47444271798E+02  0.53839766113E+00  0.60191321862E+02  0.47000000000E+01 0.  1.
        -11    1    3    3    0    0 -0.87467995344E+01 -0.61943874818E+02  0.39613795504E+02  0.74045951434E+02  0.00000000000E+00 0. -1.
         11    1    3    3    0    0  0.34112429415E+02  0.15777131711E+02 -0.83226881018E+01  0.38494712142E+02  0.00000000000E+00 0.  1.
<mgrwt>
<rscale>  0 0.12816840E+03</rscale>
<asrwt>0</asrwt>
<pdfrwt beam="1">  1        3 0.27861322E-01 0.13565276E+03</pdfrwt>
<pdfrwt beam="2">  1       -3 0.12732279E-01 0.13565276E+03</pdfrwt>
<totfact> 0.13917298E+03</totfact>
</mgrwt>
</event>
<event>
 8    1  0.1273312E-005  0.3907438E+03  0.7546771E-02  0.1047872E+00
          2   -1    0    0  501    0  0.00000000000E+00  0.00000000000E+00  0.11673751729E+04  0.11673751729E+04  0.00000000000E+00 0. -1.
         -2   -1    0    0    0  501 -0.00000000000E+00 -0.00000000000E+00 -0.13154170197E+03  0.13154170197E+03  0.00000000000E+00 0.  1.
         23    2    1    2    0    0  0.34346005156E+03 -0.13817182743E+03  0.40085872842E+03  0.55334755569E+03  0.91921359469E+02 0.  0.
         23    2    1    2    0    0 -0.34346005156E+03  0.13817182743E+03  0.63497474249E+03  0.74556931916E+03  0.12499770062E+03 0.  0.
          5    1    4    4  502    0 -0.19155277125E+03  0.44536694619E+02  0.43559095575E+03  0.47795141183E+03  0.47000000000E+01 0. -1.
         -5    1    4    4    0  502 -0.15190728031E+03  0.93635132811E+02  0.19938378674E+03  0.26761790733E+03  0.47000000000E+01 0. -1.
        -11    1    3    3    0    0  0.61773232670E+02 -0.15422161494E+02  0.26319740562E+02  0.68894877044E+02  0.00000000000E+00 0.  1.
         11    1    3    3    0    0  0.28168681889E+03 -0.12274966594E+03  0.37453898785E+03  0.48445267865E+03  0.00000000000E+00 0. -1.
<mgrwt>
<rscale>  0 0.38839987E+03</rscale>
<asrwt>0</asrwt>
<pdfrwt beam="1">  1        2 0.17959617E+00 0.39074376E+03</pdfrwt>
<pdfrwt beam="2">  1       -2 0.20237186E-01 0.39074376E+03</pdfrwt>
<totfact> 0.42711232E+02</totfact>
</mgrwt>
</event>
<event>
 8    1  0.1273312E-005  0.1365075E+03  0.7546771E-02  0.1229839E+00
         -2   -1    0    0    0  501 -0.00000000000E+00  0.00000000000E+00  0.47781606362E+02  0.47781606362E+02  0.00000000000E+00 0.  1.
          2   -1    0    0  501    0  0.00000000000E+00 -0.00000000000E+00 -0.31622672275E+03  0.31622672275E+03  0.00000000000E+00 0. -1.
         23    2    1    2    0    0  0.53086985380E+02 -0.13765356102E+02 -0.92712472316E+02  0.14148584433E+03  0.91732919807E+02 0.  0.
         23    2    1    2    0    0 -0.53086985380E+02  0.13765356102E+02 -0.17573264407E+03  0.22252248479E+03  0.12500632383E+03 0.  0.
          5    1    4    4  502    0 -0.23299096511E+02  0.68949630494E+02 -0.83160333275E+02  0.11061026387E+03  0.47000000000E+01 0.  1.
         -5    1    4    4    0  502 -0.29787888870E+02 -0.55184274393E+02 -0.92572310799E+02  0.11191222092E+03  0.47000000000E+01 0.  1.
        -11    1    3    3    0    0  0.79244429412E+02 -0.56729357804E+01 -0.67060408943E+02  0.10396614949E+03  0.00000000000E+00 0.  1.
         11    1    3    3    0    0 -0.26157444032E+02 -0.80924203211E+01 -0.25652063373E+02  0.37519694831E+02  0.00000000000E+00 0. -1.
<mgrwt>
<rscale>  0 0.12840684E+03</rscale>
<asrwt>0</asrwt>
<pdfrwt beam="2">  1        2 0.48650265E-01 0.13650749E+03</pdfrwt>
<pdfrwt beam="1">  1       -2 0.73510164E-02 0.13650749E+03</pdfrwt>
<totfact> 0.10546855E+04</totfact>
</mgrwt>
</event>
<event>
 8    1  0.1273312E-005  0.1923261E+03  0.7546771E-02  0.1160989E+00
         -2   -1    0    0    0  501 -0.00000000000E+00  0.00000000000E+00  0.35430085734E+02  0.35430085734E+02  0.00000000000E+00 0.  1.
          2   -1    0    0  501    0  0.00000000000E+00 -0.00000000000E+00 -0.13608163735E+04  0.13608163735E+04  0.00000000000E+00 0. -1.
         23    2    1    2    0    0  0.12410637782E+03 -0.77209702228E+02 -0.25038406725E+03  0.30417544691E+03  0.92015163081E+02 0.  0.
         23    2    1    2    0    0 -0.12410637782E+03  0.77209702228E+02 -0.10750022205E+04  0.10920710123E+04  0.12500236280E+03 0.  0.
          5    1    4    4  502    0 -0.11318534674E+03  0.28894263252E+02 -0.95547666445E+03  0.96260248674E+03  0.47000000000E+01 0. -1.
         -5    1    4    4    0  502 -0.10921031080E+02  0.48315438976E+02 -0.11952555602E+03  0.12946852554E+03  0.47000000000E+01 0. -1.
        -11    1    3    3    0    0  0.25222807709E+02 -0.77198546466E+01 -0.13336527026E+03  0.13594881940E+03  0.00000000000E+00 0. -1.
         11    1    3    3    0    0  0.98883570115E+02 -0.69489847581E+02 -0.11701879699E+03  0.16822662752E+03  0.00000000000E+00 0.  1.
<mgrwt>
<rscale>  0 0.18722388E+03</rscale>
<asrwt>0</asrwt>
<pdfrwt beam="2">  1        2 0.20935633E+00 0.19232608E+03</pdfrwt>
<pdfrwt beam="1">  1       -2 0.54507832E-02 0.19232608E+03</pdfrwt>
<totfact> 0.27792385E+03</totfact>
</mgrwt>
</event>
<event>
 8    1  0.1273312E-005  0.1461560E+03  0.7546771E-02  0.1214292E+00
         -1   -1    0    0    0  501 -0.00000000000E+00  0.00000000000E+00  0.42826836146E+02  0.42826836146E+02  0.00000000000E+00 0.  1.
          1   -1    0    0  501    0  0.00000000000E+00 -0.00000000000E+00 -0.41645627335E+03  0.41645627335E+03  0.00000000000E+00 0. -1.
         23    2    1    2    0    0 -0.71219831799E+02 -0.25776325278E+02 -0.15663014527E+03  0.19765307432E+03  0.93792600962E+02 0.  0.
         23    2    1    2    0    0  0.71219831799E+02  0.25776325278E+02 -0.21699929193E+03  0.26163003517E+03  0.12499959688E+03 0.  0.
          5    1    4    4  502    0  0.33331070971E+02  0.74898791685E+02 -0.14351157299E+03  0.16534343310E+03  0.47000000000E+01 0.  1.
         -5    1    4    4    0  502  0.37888760828E+02 -0.49122466407E+02 -0.73487718938E+02  0.96286602067E+02  0.47000000000E+01 0.  1.
        -11    1    3    3    0    0 -0.10245090541E+02 -0.45633039574E+02 -0.29584064552E+02  0.55340338419E+02  0.00000000000E+00 0.  1.
         11    1    3    3    0    0 -0.60974741258E+02  0.19856714296E+02 -0.12704608072E+03  0.14231273590E+03  0.00000000000E+00 0. -1.
<mgrwt>
<rscale>  0 0.13928671E+03</rscale>
<asrwt>0</asrwt>
<pdfrwt beam="2">  1        1 0.64070197E-01 0.14615602E+03</pdfrwt>
<pdfrwt beam="1">  1       -1 0.65887439E-02 0.14615602E+03</pdfrwt>
<totfact> 0.64081282E+03</totfact>
</mgrwt>
</event>
<event>
 8    1  0.1273312E-005  0.1424007E+03  0.7546771E-02  0.1220781E+00
         -1   -1    0    0    0  501 -0.00000000000E+00  0.00000000000E+00  0.56255195944E+03  0.56255195944E+03  0.00000000000E+00 0.  1.
          1   -1    0    0  501    0  0.00000000000E+00 -0.00000000000E+00 -0.29876680034E+02  0.29876680034E+02  0.00000000000E+00 0. -1.
         23    2    1    2    0    0 -0.17985360416E+02  0.65884370427E+02  0.19105735526E+03  0.22231953044E+03  0.90878144574E+02 0.  0.
         23    2    1    2    0    0  0.17985360416E+02 -0.65884370427E+02  0.34161792415E+03  0.37010910903E+03  0.12495488400E+03 0.  0.
          5    1    4    4  502    0 -0.16146339560E+02  0.31707561588E+02  0.12476956107E+03  0.12982914586E+03  0.47000000000E+01 0. -1.
         -5    1    4    4    0  502  0.34131699976E+02 -0.97591932015E+02  0.21684836307E+03  0.24027996318E+03  0.47000000000E+01 0. -1.
        -11    1    3    3    0    0 -0.85409853678E+01  0.49330765005E+02  0.19627535232E+03  0.20255983495E+03  0.00000000000E+00 0.  1.
         11    1    3    3    0    0 -0.94443750486E+01  0.16553605422E+02 -0.52179970608E+01  0.19759695490E+02  0.00000000000E+00 0. -1.
<mgrwt>
<rscale>  0 0.13460298E+03</rscale>
<asrwt>0</asrwt>
<pdfrwt beam="2">  1        1 0.45964127E-02 0.14240065E+03</pdfrwt>
<pdfrwt beam="1">  1       -1 0.86546447E-01 0.14240065E+03</pdfrwt>
<totfact> 0.25077378E+03</totfact>
</mgrwt>
</event>
<event>
 8    1  0.1273312E-005  0.1315028E+03  0.7546771E-02  0.1238248E+00
          2   -1    0    0  501    0  0.00000000000E+00  0.00000000000E+00  0.13232163663E+03  0.13232163663E+03  0.00000000000E+00 0. -1.
         -2   -1    0    0    0  501 -0.00000000000E+00 -0.00000000000E+00 -0.10570715303E+03  0.10570715303E+03  0.00000000000E+00 0.  1.
         23    2    1    2    0    0 -0.35196033190E+02  0.20733804050E+02 -0.11110614924E+02  0.10122169040E+03  0.91944186659E+02 0.  0.
         23    2    1    2    0    0  0.35196033190E+02 -0.20733804050E+02  0.37725098529E+02  0.13680709926E+03  0.12499739184E+03 0.  0.
          5    1    4    4  502    0  0.29991194216E+02  0.63395968203E+01  0.80179967570E+02  0.85968479211E+02  0.47000000000E+01 0. -1.
         -5    1    4    4    0  502  0.52048389741E+01 -0.27073400870E+02 -0.42454869041E+02  0.50838620051E+02  0.47000000000E+01 0. -1.
        -11    1    3    3    0    0  0.15116105177E+02  0.21443236695E+02 -0.36429609939E+02  0.44893490797E+02  0.00000000000E+00 0.  1.
         11    1    3    3    0    0 -0.50312138367E+02 -0.70943264543E+00  0.25318995015E+02  0.56328199601E+02  0.00000000000E+00 0. -1.
<mgrwt>
<rscale>  0 0.12298771E+03</rscale>
<asrwt>0</asrwt>
<pdfrwt beam="1">  1        2 0.20357175E-01 0.13150285E+03</pdfrwt>
<pdfrwt beam="2">  1       -2 0.16262639E-01 0.13150285E+03</pdfrwt>
<totfact> 0.76749567E+03</totfact>
</mgrwt>
</event>
<event>
 8    1  0.1273312E-005  0.1274155E+03  0.7546771E-02  0.1244979E+00
          1   -1    0    0  501    0  0.00000000000E+00  0.00000000000E+00  0.16422811469E+04  0.16422811469E+04  0.00000000000E+00 0. -1.
         -1   -1    0    0    0  501 -0.00000000000E+00 -0.00000000000E+00 -0.10987144138E+02  0.10987144138E+02  0.00000000000E+00 0.  1.
         23    2    1    2    0    0  0.22102539214E+02  0.11014054454E+02  0.28374566308E+03  0.29970956249E+03  0.93297314490E+02 0.  0.
         23    2    1    2    0    0 -0.22102539214E+02 -0.11014054454E+02  0.13475483397E+04  0.13535587286E+04  0.12499948895E+03 0.  0.
          5    1    4    4  502    0  0.36700037803E+02 -0.16465865039E+02  0.17962070883E+03  0.18412959166E+03  0.47000000000E+01 0. -1.
         -5    1    4    4    0  502 -0.58802577017E+02  0.54518105848E+01  0.11679276309E+04  0.11694291369E+04  0.47000000000E+01 0. -1.
        -11    1    3    3    0    0  0.53826233870E+01 -0.33431394250E+02  0.45165730869E+02  0.56449747573E+02  0.00000000000E+00 0.  1.
         11    1    3    3    0    0  0.16719915827E+02  0.44445448704E+02  0.23857993222E+03  0.24325981491E+03  0.00000000000E+00 0. -1.
<mgrwt>
<rscale>  0 0.11886663E+03</rscale>
<asrwt>0</asrwt>
<pdfrwt beam="1">  1        1 0.25265844E+00 0.12741548E+03</pdfrwt>
<pdfrwt beam="2">  1       -1 0.16903312E-02 0.12741548E+03</pdfrwt>
<totfact> 0.49724785E+03</totfact>
</mgrwt>
</event>
<event>
 8    1  0.1273312E-005  0.1631558E+03  0.7546771E-02  0.1192758E+00
         -2   -1    0    0    0  501 -0.00000000000E+00  0.00000000000E+00  0.16332498721E+03  0.16332498721E+03  0.00000000000E+00 0.  1.
          2   -1    0    0  501    0  0.00000000000E+00 -0.00000000000E+00 -0.14991296948E+03  0.14991296948E+03  0.00000000000E+00 0. -1.
         23    2    1    2    0    0  0.10368435937E+03  0.15606248367E+02  0.48713712679E+02  0.14630672484E+03  0.89658410452E+02 0.  0.
         23    2    1    2    0    0 -0.10368435937E+03 -0.15606248367E+02 -0.35301694950E+02  0.16693123185E+03  0.12500330050E+03 0.  0.
          5    1    4    4  502    0 -0.10481572063E+03 -0.58405664801E+02 -0.25580244548E+02  0.12277620243E+03  0.47000000000E+01 0.  1.
         -5    1    4    4    0  502  0.11313612618E+01  0.42799416433E+02 -0.97214504020E+01  0.44155029422E+02  0.47000000000E+01 0.  1.
        -11    1    3    3    0    0 -0.12686304925E+02  0.74199410898E+00  0.22891559460E+02  0.26182367777E+02  0.00000000000E+00 0.  1.
         11    1    3    3    0    0  0.11637066429E+03  0.14864254258E+02  0.25822153219E+02  0.12012435706E+03  0.00000000000E+00 0. -1.
<mgrwt>
<rscale>  0 0.15645495E+03</rscale>
<asrwt>0</asrwt>
<pdfrwt beam="2">  1        2 0.23063534E-01 0.16315584E+03</pdfrwt>
<pdfrwt beam="1">  1       -2 0.25126921E-01 0.16315584E+03</pdfrwt>
<totfact> 0.32289682E+03</totfact>
</mgrwt>
</event>
<event>
 7    1  0.1273312E-005  0.1823769E+03  0.7546771E-02  0.1180467E+00
         -1   -1    0    0    0  501 -0.00000000000E+00  0.00000000000E+00  0.84109732004E+02  0.84109732004E+02  0.00000000000E+00 0.  1.
          1   -1    0    0  501    0  0.00000000000E+00 -0.00000000000E+00 -0.29233372891E+03  0.29233372891E+03  0.00000000000E+00 0. -1.
         23    2    1    2    0    0  0.14759319545E+02  0.80582145855E+02 -0.69019583957E+02  0.14701110724E+03  0.10068387626E+03 0.  0.
          5    1    1    2  502    0 -0.34260537751E+02 -0.46919722751E+01 -0.14649835738E+03  0.15059766853E+03  0.47000000000E+01 0. -1.
         -5    1    1    2    0  502  0.19501218206E+02 -0.75890173580E+02  0.72939444287E+01  0.78834685151E+02  0.47000000000E+01 0.  1.
        -11    1    3    3    0    0  0.40327449293E+02  0.92698131949E+02 -0.48920585969E+02  0.11230525618E+03  0.00000000000E+00 0.  1.
         11    1    3    3    0    0 -0.25568129748E+02 -0.12115986094E+02 -0.20098997987E+02  0.34705851062E+02  0.00000000000E+00 0. -1.
<mgrwt>
<rscale>  0 0.16751270E+03</rscale>
<asrwt>0</asrwt>
<pdfrwt beam="2">  1        1 0.44974419E-01 0.18237691E+03</pdfrwt>
<pdfrwt beam="1">  1       -1 0.12939959E-01 0.18237691E+03</pdfrwt>
<totfact> 0.36044602E+03</totfact>
</mgrwt>
</event>
<event>
 8    1  0.1273312E-005  0.1315917E+03  0.7546771E-02  0.1237848E+00
         -1   -1    0    0    0  501 -0.00000000000E+00  0.00000000000E+00  0.80785038182E+02  0.80785038182E+02  0.00000000000E+00 0.  1.
          1   -1    0    0  501    0  0.00000000000E+00 -0.00000000000E+00 -0.17005981692E+03  0.17005981692E+03  0.00000000000E+00 0. -1.
         23    2    1    2    0    0 -0.40542472618E+02  0.68969874120E+01 -0.24387617131E+02  0.10412497437E+03  0.92498615643E+02 0.  0.
         23    2    1    2    0    0  0.40542472618E+02 -0.68969874120E+01 -0.64887161602E+02  0.14671988073E+03  0.12500047656E+03 0.  0.
          5    1    4    4  502    0 -0.18296821056E+02  0.19851886080E+02 -0.76161656357E+02  0.80941700876E+02  0.47000000000E+01 0.  1.
         -5    1    4    4    0  502  0.58839293675E+02 -0.26748873492E+02  0.11274494755E+02  0.65778179856E+02  0.47000000000E+01 0.  1.
        -11    1    3    3    0    0 -0.36594251405E+02 -0.19020570799E+02  0.24987545787E+02  0.48221352054E+02  0.00000000000E+00 0.  1.
         11    1    3    3    0    0 -0.39482212128E+01  0.25917558211E+02 -0.49375162918E+02  0.55903622312E+02  0.00000000000E+00 0. -1.
<mgrwt>
<rscale>  0 0.12323877E+03</rscale>
<asrwt>0</asrwt>
<pdfrwt beam="2">  1        1 0.26163049E-01 0.13159172E+03</pdfrwt>
<pdfrwt beam="1">  1       -1 0.12428467E-01 0.13159172E+03</pdfrwt>
<totfact> 0.73957552E+03</totfact>
</mgrwt>
</event>
<event>
 8    1  0.1273312E-005  0.1381016E+03  0.7546771E-02  0.1227394E+00
          2   -1    0    0  501    0  0.00000000000E+00  0.00000000000E+00  0.10216689759E+03  0.10216689759E+03  0.00000000000E+00 0. -1.
         -2   -1    0    0    0  501 -0.00000000000E+00 -0.00000000000E+00 -0.15193834470E+03  0.15193834470E+03  0.00000000000E+00 0.  1.
         23    2    1    2    0    0 -0.26157301638E+02  0.52543884036E+02 -0.39816341146E+02  0.11564527030E+03  0.91342341451E+02 0.  0.
         23    2    1    2    0    0  0.26157301638E+02 -0.52543884036E+02 -0.99551059585E+01  0.13845997199E+03  0.12500798186E+03 0.  0.
          5    1    4    4  502    0  0.58995586965E+02  0.16516873293E+02 -0.27196504429E+01  0.61504250936E+02  0.47000000000E+01 0.  1.
         -5    1    4    4    0  502 -0.32838285326E+02 -0.69060757329E+02 -0.72354555156E+01  0.76955721051E+02  0.47000000000E+01 0.  1.
        -11    1    3    3    0    0 -0.46489526569E+02  0.18384453954E+02 -0.53859220785E+02  0.73485235874E+02  0.00000000000E+00 0.  1.
         11    1    3    3    0    0  0.20332224931E+02  0.34159430082E+02  0.14042879639E+02  0.42160034426E+02  0.00000000000E+00 0. -1.
<mgrwt>
<rscale>  0 0.13004132E+03</rscale>
<asrwt>0</asrwt>
<pdfrwt beam="1">  1        2 0.15717984E-01 0.13810163E+03</pdfrwt>
<pdfrwt beam="2">  1       -2 0.23375130E-01 0.13810163E+03</pdfrwt>
<totfact> 0.56167712E+03</totfact>
</mgrwt>
</event>
<event>
 8    1  0.1273312E-005  0.1677242E+03  0.7546771E-02  0.1186786E+00
         -1   -1    0    0    0  501 -0.00000000000E+00  0.00000000000E+00  0.23713618568E+03  0.23713618568E+03  0.00000000000E+00 0.  1.
          1   -1    0    0  501    0  0.00000000000E+00 -0.00000000000E+00 -0.16180732285E+03  0.16180732285E+03  0.00000000000E+00 0. -1.
         23    2    1    2    0    0  0.90903151032E+02 -0.64547382485E+02  0.15592111172E+03  0.21286151001E+03  0.92568255416E+02 0.  0.
         23    2    1    2    0    0 -0.90903151032E+02  0.64547382485E+02 -0.80592248889E+02  0.18608199852E+03  0.12530623344E+03 0.  0.
          5    1    4    4  502    0 -0.10370083781E+03  0.74291555395E+02 -0.98737496217E+02  0.16138240959E+03  0.47000000000E+01 0. -1.
         -5    1    4    4    0  502  0.12797686782E+02 -0.97441729099E+01  0.18145247327E+02  0.24699588929E+02  0.47000000000E+01 0. -1.
        -11    1    3    3    0    0  0.66390507053E+02 -0.85618777254E+02  0.13942282171E+03  0.17657009277E+03  0.00000000000E+00 0.  1.
         11    1    3    3    0    0  0.24512643979E+02  0.21071394769E+02  0.16498290004E+02  0.36291417242E+02  0.00000000000E+00 0. -1.
<mgrwt>
<rscale>  0 0.16170395E+03</rscale>
<asrwt>0</asrwt>
<pdfrwt beam="2">  1        1 0.24893434E-01 0.16772418E+03</pdfrwt>
<pdfrwt beam="1">  1       -1 0.36482490E-01 0.16772418E+03</pdfrwt>
<totfact> 0.13828782E+03</totfact>
</mgrwt>
</event>
<event>
 8    1  0.1273312E-005  0.1805837E+03  0.7546771E-02  0.1172786E+00
         -2   -1    0    0    0  501 -0.00000000000E+00  0.00000000000E+00  0.16283524287E+03  0.16283524287E+03  0.00000000000E+00 0.  1.
          2   -1    0    0  501    0  0.00000000000E+00 -0.00000000000E+00 -0.28144636782E+03  0.28144636782E+03  0.00000000000E+00 0. -1.
         23    2    1    2    0    0 -0.66331038092E+02 -0.11218909089E+03  0.78138319634E+02  0.17722201319E+03  0.91191261838E+02 0.  0.
         23    2    1    2    0    0  0.66331038092E+02  0.11218909089E+03 -0.19674944459E+03  0.26705959749E+03  0.12499714372E+03 0.  0.
          5    1    4    4  502    0 -0.22100969426E+02  0.84080750674E+02 -0.10615376024E+03  0.13729069996E+03  0.47000000000E+01 0. -1.
         -5    1    4    4    0  502  0.88432007518E+02  0.28108340218E+02 -0.90595684347E+02  0.12976889753E+03  0.47000000000E+01 0. -1.
        -11    1    3    3    0    0 -0.42475004567E+02 -0.10179471440E+03  0.18085719754E+02  0.11177380351E+03  0.00000000000E+00 0. -1.
         11    1    3    3    0    0 -0.23856033525E+02 -0.10394376494E+02  0.60052599880E+02  0.65448209682E+02  0.00000000000E+00 0.  1.
<mgrwt>
<rscale>  0 0.17494576E+03</rscale>
<asrwt>0</asrwt>
<pdfrwt beam="2">  1        2 0.43299441E-01 0.18058373E+03</pdfrwt>
<pdfrwt beam="1">  1       -2 0.25051576E-01 0.18058373E+03</pdfrwt>
<totfact> 0.16410561E+03</totfact>
</mgrwt>
</event>
<event>
 7    1  0.1273312E-005  0.3059320E+03  0.7546771E-02  0.1120055E+00
         -2   -1    0    0    0  501 -0.00000000000E+00  0.00000000000E+00  0.59568873236E+02  0.59568873236E+02  0.00000000000E+00 0.  1.
          2   -1    0    0  501    0  0.00000000000E+00 -0.00000000000E+00 -0.74439276119E+03  0.74439276119E+03  0.00000000000E+00 0. -1.
         23    2    1    2    0    0  0.39556347063E+02 -0.57341100366E+02 -0.17911694353E+03  0.21291688363E+03  0.91640675979E+02 0.  0.
          5    1    1    2  502    0  0.78616258725E+02  0.11343113045E+02 -0.44190562362E+03  0.44901208507E+03  0.47000000000E+01 0. -1.
         -5    1    1    2    0  502 -0.11817260579E+03  0.45997987321E+02 -0.63801320807E+02  0.14203266573E+03  0.47000000000E+01 0.  1.
        -11    1    3    3    0    0  0.38602767126E+02 -0.21266950121E+02 -0.17665870430E+02  0.47481994222E+02  0.00000000000E+00 0.  1.
         11    1    3    3    0    0  0.95357993670E+00 -0.36074150245E+02 -0.16145107310E+03  0.16543488941E+03  0.00000000000E+00 0. -1.
<mgrwt>
<rscale>  0 0.23960651E+03</rscale>
<asrwt>0</asrwt>
<pdfrwt beam="2">  1        2 0.11452196E+00 0.30593199E+03</pdfrwt>
<pdfrwt beam="1">  1       -2 0.91644424E-02 0.30593199E+03</pdfrwt>
<totfact> 0.29640966E+03</totfact>
</mgrwt>
</event>
<event>
 8    1  0.1273312E-005  0.1292807E+03  0.7546771E-02  0.1240614E+00
          2   -1    0    0  501    0  0.00000000000E+00  0.00000000000E+00  0.73465390118E+03  0.73465390118E+03  0.00000000000E+00 0. -1.
         -2   -1    0    0    0  501 -0.00000000000E+00 -0.00000000000E+00 -0.18376809516E+02  0.18376809516E+02  0.00000000000E+00 0.  1.
         23    2    1    2    0    0 -0.36357484580E+02 -0.27943382695E+02  0.26368535463E+03  0.28233676611E+03  0.89896517878E+02 0.  0.
         23    2    1    2    0    0  0.36357484580E+02  0.27943382695E+02  0.45259173703E+03  0.47069394459E+03  0.12087518241E+03 0.  0.
          5    1    4    4  502    0 -0.24223123449E+02  0.80779093710E+00  0.33235022390E+03  0.33326592019E+03  0.47000000000E+01 0. -1.
         -5    1    4    4    0  502  0.60580608029E+02  0.27135591758E+02  0.12024151313E+03  0.13742802440E+03  0.47000000000E+01 0.  1.
        -11    1    3    3    0    0  0.14955875315E+02 -0.39934558181E+02  0.16548504765E+03  0.17089104171E+03  0.00000000000E+00 0. -1.
         11    1    3    3    0    0 -0.51313359895E+02  0.11991175486E+02  0.98200306988E+02  0.11144572439E+03  0.00000000000E+00 0.  1.
<mgrwt>
<rscale>  0 0.12151800E+03</rscale>
<asrwt>0</asrwt>
<pdfrwt beam="1">  1        2 0.11302365E+00 0.12928074E+03</pdfrwt>
<pdfrwt beam="2">  1       -2 0.28272020E-02 0.12928074E+03</pdfrwt>
<totfact> 0.17294045E+04</totfact>
</mgrwt>
</event>
<event>
 8    1  0.1273312E-005  0.1448246E+03  0.7546771E-02  0.1217357E+00
          2   -1    0    0  501    0  0.00000000000E+00  0.00000000000E+00  0.13813020636E+04  0.13813020636E+04  0.00000000000E+00 0. -1.
         -2   -1    0    0    0  501 -0.00000000000E+00 -0.00000000000E+00 -0.14730274158E+02  0.14730274158E+02  0.00000000000E+00 0.  1.
         23    2    1    2    0    0 -0.55717901270E+02 -0.47607533927E+02  0.33981779393E+03  0.35911482778E+03  0.90090868830E+02 0.  0.
         23    2    1    2    0    0  0.55717901270E+02  0.47607533927E+02  0.10267539955E+04  0.10369175099E+04  0.12491274317E+03 0.  0.
          5    1    4    4  502    0  0.16095921042E+02 -0.42300164916E+01  0.14544752372E+02  0.22596715144E+02  0.47000000000E+01 0.  1.
         -5    1    4    4    0  502  0.39621980228E+02  0.51837550419E+02  0.10122092431E+04  0.10143207948E+04  0.47000000000E+01 0.  1.
        -11    1    3    3    0    0 -0.44626007857E+02  0.95468679236E+01  0.73561186204E+02  0.86567149544E+02  0.00000000000E+00 0.  1.
         11    1    3    3    0    0 -0.11091893413E+02 -0.57154401851E+02  0.26625660773E+03  0.27254767823E+03  0.00000000000E+00 0. -1.
<mgrwt>
<rscale>  0 0.13704791E+03</rscale>
<asrwt>0</asrwt>
<pdfrwt beam="1">  1        2 0.21250791E+00 0.14482457E+03</pdfrwt>
<pdfrwt beam="2">  1       -2 0.22661971E-02 0.14482457E+03</pdfrwt>
<totfact> 0.99234872E+03</totfact>
</mgrwt>
</event>
<event>
 7    1  0.1273312E-005  0.1706162E+03  0.7546771E-02  0.1179257E+00
         -1   -1    0    0    0  501 -0.00000000000E+00  0.00000000000E+00  0.28555418672E+02  0.28555418672E+02  0.00000000000E+00 0.  1.
          1   -1    0    0  501    0  0.00000000000E+00 -0.00000000000E+00 -0.13503782563E+04  0.13503782563E+04  0.00000000000E+00 0. -1.
         23    2    1    2    0    0  0.58490560527E+02  0.86560554412E+02 -0.10138799983E+04  0.10268844273E+04  0.12500040328E+03 0.  0.
          5    1    3    3  502    0  0.75442857702E+02  0.38119150460E+01 -0.38799303157E+03  0.39530600555E+03  0.47000000000E+01 0. -1.
         -5    1    3    3    0  502 -0.16952297175E+02  0.82748639366E+02 -0.62588696672E+03  0.63157842174E+03  0.47000000000E+01 0. -1.
        -11    1    1    2    0    0  0.18072895971E+01 -0.29956909214E+02  0.31263140183E+01  0.30173772463E+02  0.00000000000E+00 0.  1.
         11    1    1    2    0    0 -0.60297850124E+02 -0.56603645199E+02 -0.31106915333E+03  0.32187547519E+03  0.00000000000E+00 0. -1.
<mgrwt>
<rscale>  0 0.16865557E+03</rscale>
<asrwt>0</asrwt>
<pdfrwt beam="2">  1        1 0.20775055E+00 0.17061618E+03</pdfrwt>
<pdfrwt beam="1">  1       -1 0.43931404E-02 0.17061618E+03</pdfrwt>
<totfact> 0.19258125E+03</totfact>
</mgrwt>
</event>
<event>
 8    1  0.1273312E-005  0.1757429E+03  0.7546771E-02  0.1177916E+00
          1   -1    0    0  501    0  0.00000000000E+00  0.00000000000E+00  0.37849798795E+03  0.37849798795E+03  0.00000000000E+00 0. -1.
         -1   -1    0    0    0  501 -0.00000000000E+00 -0.00000000000E+00 -0.72086604655E+02  0.72086604655E+02  0.00000000000E+00 0.  1.
         23    2    1    2    0    0  0.77710079584E+02  0.96036702585E+02  0.12568181863E+03  0.19849583592E+03  0.91338779450E+02 0.  0.
         23    2    1    2    0    0 -0.77710079584E+02 -0.96036702585E+02  0.18072956466E+03  0.25208875668E+03  0.12499464385E+03 0.  0.
          5    1    4    4  502    0 -0.84189674911E+01  0.23756484209E+02  0.16123816293E+01  0.25689284344E+02  0.47000000000E+01 0. -1.
         -5    1    4    4    0  502 -0.69291112093E+02 -0.11979318679E+03  0.17911718303E+03  0.22639947234E+03  0.47000000000E+01 0. -1.
        -11    1    3    3    0    0  0.91993197984E+02  0.91672242425E+02  0.12915747840E+03  0.18316168467E+03  0.00000000000E+00 0. -1.
         11    1    3    3    0    0 -0.14283118400E+02  0.43644601604E+01 -0.34756597650E+01  0.15334151249E+02  0.00000000000E+00 0.  1.
<mgrwt>
<rscale>  0 0.16993510E+03</rscale>
<asrwt>0</asrwt>
<pdfrwt beam="1">  1        1 0.58230458E-01 0.17574290E+03</pdfrwt>
<pdfrwt beam="2">  1       -1 0.11090247E-01 0.17574290E+03</pdfrwt>
<totfact> 0.33068214E+03</totfact>
</mgrwt>
</event>
<event>
 8    1  0.1273312E-005  0.1673202E+03  0.7546771E-02  0.1187358E+00
          4   -1    0    0  501    0  0.00000000000E+00  0.00000000000E+00  0.14479984085E+04  0.14479984085E+04  0.00000000000E+00 0. -1.
         -4   -1    0    0    0  501 -0.00000000000E+00 -0.00000000000E+00 -0.18753883837E+02  0.18753883837E+02  0.00000000000E+00 0.  1.
         23    2    1    2    0    0  0.11121115121E+03 -0.21804239854E+01  0.42773828683E+03  0.45136527627E+03  0.91640035999E+02 0.  0.
         23    2    1    2    0    0 -0.11121115121E+03  0.21804239854E+01  0.10015062379E+04  0.10153870161E+04  0.12499349418E+03 0.  0.
          5    1    4    4  502    0 -0.25455753438E+02  0.23111598578E+02  0.56854666173E+02  0.66608441189E+02  0.47000000000E+01 0.  1.
         -5    1    4    4    0  502 -0.85755397768E+02 -0.20931174592E+02  0.94465157170E+03  0.94877857493E+03  0.47000000000E+01 0.  1.
        -11    1    3    3    0    0 -0.79231105394E+00 -0.22541351618E+02  0.29257269727E+02  0.36942226807E+02  0.00000000000E+00 0.  1.
         11    1    3    3    0    0  0.11200346226E+03  0.20360927633E+02  0.39848101711E+03  0.41442304946E+03  0.00000000000E+00 0. -1.
<mgrwt>
<rscale>  0 0.16119157E+03</rscale>
<asrwt>0</asrwt>
<pdfrwt beam="1">  1        4 0.22276890E+00 0.16732020E+03</pdfrwt>
<pdfrwt beam="2">  1       -4 0.28852140E-02 0.16732020E+03</pdfrwt>
<totfact> 0.10524560E+02</totfact>
</mgrwt>
</event>
<event>
 8    1  0.1273312E-005  0.1435815E+03  0.7546771E-02  0.1219826E+00
         -2   -1    0    0    0  501 -0.00000000000E+00  0.00000000000E+00  0.41897500207E+02  0.41897500207E+02  0.00000000000E+00 0. -1.
          2   -1    0    0  501    0  0.00000000000E+00 -0.00000000000E+00 -0.44635940576E+03  0.44635940576E+03  0.00000000000E+00 0.  1.
         23    2    1    2    0    0 -0.44203858442E+02  0.55207910768E+02 -0.97429930742E+02  0.14931105582E+03  0.88313676585E+02 0.  0.
         23    2    1    2    0    0  0.44203858442E+02 -0.55207910768E+02 -0.30703197481E+03  0.33894585015E+03  0.12495503698E+03 0.  0.
          5    1    4    4  502    0 -0.48262480849E+01  0.14015752066E+02 -0.20751299109E+03  0.20809484724E+03  0.47000000000E+01 0. -1.
         -5    1    4    4    0  502  0.49030106527E+02 -0.69223662834E+02 -0.99518983719E+02  0.13085100291E+03  0.47000000000E+01 0. -1.
        -11    1    3    3    0    0  0.17366922545E+02  0.14064511237E+02  0.50156293790E+01  0.22903646283E+02  0.00000000000E+00 0. -1.
         11    1    3    3    0    0 -0.61570780986E+02  0.41143399531E+02 -0.10244556012E+03  0.12640740953E+03  0.00000000000E+00 0.  1.
<mgrwt>
<rscale>  0 0.13527896E+03</rscale>
<asrwt>0</asrwt>
<pdfrwt beam="2">  1        2 0.68670677E-01 0.14358153E+03</pdfrwt>
<pdfrwt beam="1">  1       -2 0.64457694E-02 0.14358153E+03</pdfrwt>
<totfact> 0.89565320E+03</totfact>
</mgrwt>
</event>
<event>
 8    1  0.1273312E-005  0.1323713E+03  0.7546771E-02  0.1237169E+00
          2   -1    0    0  501    0  0.00000000000E+00  0.00000000000E+00  0.31605802523E+03  0.31605802523E+03  0.00000000000E+00 0. -1.
         -2   -1    0    0    0  501 -0.00000000000E+00 -0.00000000000E+00 -0.43048286884E+02  0.43048286884E+02  0.00000000000E+00 0.  1.
         23    2    1    2    0    0 -0.35452644261E+02  0.25333281643E+02  0.11341240749E+03  0.15175767618E+03  0.90935982778E+02 0.  0.
         23    2    1    2    0    0  0.35452644261E+02 -0.25333281643E+02  0.15959733086E+03  0.20734863593E+03  0.12499393450E+03 0.  0.
          5    1    4    4  502    0  0.62314130938E+02  0.72057708958E+00  0.15764762488E+03  0.16958311760E+03  0.47000000000E+01 0. -1.
         -5    1    4    4    0  502 -0.26861486678E+02 -0.26053858733E+02  0.19497059801E+01  0.37765518331E+02  0.47000000000E+01 0. -1.
        -11    1    3    3    0    0 -0.41586185811E+02 -0.23508381595E+01  0.11603185816E+03  0.12328150469E+03  0.00000000000E+00 0. -1.
         11    1    3    3    0    0  0.61335415505E+01  0.27684119803E+02 -0.26194506683E+01  0.28476171495E+02  0.00000000000E+00 0.  1.
<mgrwt>
<rscale>  0 0.12366585E+03</rscale>
<asrwt>0</asrwt>
<pdfrwt beam="1">  1        2 0.48624310E-01 0.13237125E+03</pdfrwt>
<pdfrwt beam="2">  1       -2 0.66228136E-02 0.13237125E+03</pdfrwt>
<totfact> 0.12349848E+04</totfact>
</mgrwt>
</event>
<event>
 8    1  0.1273312E-005  0.1876792E+03  0.7546771E-02  0.1165976E+00
         -2   -1    0    0    0  501 -0.00000000000E+00  0.00000000000E+00  0.97897154633E+02  0.97897154633E+02  0.00000000000E+00 0. -1.
          2   -1    0    0  501    0  0.00000000000E+00 -0.00000000000E+00 -0.32527359337E+03  0.32527359337E+03  0.00000000000E+00 0.  1.
         23    2    1    2    0    0 -0.45677227270E+02 -0.13233213204E+03 -0.76800072853E+02  0.18255334549E+03  0.88483165051E+02 0.  0.
         23    2    1    2    0    0  0.45677227270E+02  0.13233213204E+03 -0.15057636588E+03  0.24061740251E+03  0.12500116068E+03 0.  0.
          5    1    4    4  502    0  0.57545048398E+02  0.36261052745E+01 -0.54730103839E+02  0.79637023430E+02  0.47000000000E+01 0.  1.
         -5    1    4    4    0  502 -0.11867821128E+02  0.12870602676E+03 -0.95846262041E+02  0.16098037908E+03  0.47000000000E+01 0.  1.
        -11    1    3    3    0    0 -0.19602805127E+02 -0.34599721368E+02  0.18246893854E+02  0.43753397844E+02  0.00000000000E+00 0.  1.
         11    1    3    3    0    0 -0.26074422143E+02 -0.97732410668E+02 -0.95046966707E+02  0.13879994764E+03  0.00000000000E+00 0. -1.
<mgrwt>
<rscale>  0 0.18190112E+03</rscale>
<asrwt>0</asrwt>
<pdfrwt beam="2">  1        2 0.50042091E-01 0.18767923E+03</pdfrwt>
<pdfrwt beam="1">  1       -2 0.15061101E-01 0.18767923E+03</pdfrwt>
<totfact> 0.33406385E+03</totfact>
</mgrwt>
</event>
<event>
 8    1  0.1273312E-005  0.1340161E+03  0.7546771E-02  0.1235053E+00
          1   -1    0    0  501    0  0.00000000000E+00  0.00000000000E+00  0.51487699632E+03  0.51487699632E+03  0.00000000000E+00 0. -1.
         -1   -1    0    0    0  501 -0.00000000000E+00 -0.00000000000E+00 -0.34338356152E+02  0.34338356152E+02  0.00000000000E+00 0.  1.
         23    2    1    2    0    0  0.44692103486E+02 -0.18351288965E+02  0.87586236724E+02  0.13403839155E+03  0.89223245989E+02 0.  0.
         23    2    1    2    0    0 -0.44692103486E+02  0.18351288965E+02  0.39295240344E+03  0.41517696092E+03  0.12500465427E+03 0.  0.
          5    1    4    4  502    0 -0.78944433818E+02 -0.43075696241E+01  0.33343771871E+03  0.34271501432E+03  0.47000000000E+01 0. -1.
         -5    1    4    4    0  502  0.34252330332E+02  0.22658858589E+02  0.59514684738E+02  0.72461946601E+02  0.47000000000E+01 0. -1.
        -11    1    3    3    0    0 -0.81480944914E+01 -0.23206643156E+02  0.75788902648E+02  0.79679969221E+02  0.00000000000E+00 0. -1.
         11    1    3    3    0    0  0.52840197978E+02  0.48553541912E+01  0.11797334075E+02  0.54358422327E+02  0.00000000000E+00 0.  1.
<mgrwt>
<rscale>  0 0.12501028E+03</rscale>
<asrwt>0</asrwt>
<pdfrwt beam="1">  1        1 0.79211840E-01 0.13401611E+03</pdfrwt>
<pdfrwt beam="2">  1       -1 0.52828244E-02 0.13401611E+03</pdfrwt>
<totfact> 0.67410013E+03</totfact>
</mgrwt>
</event>
<event>
 8    1  0.1273312E-005  0.2215861E+03  0.7546771E-02  0.1136115E+00
         -2   -1    0    0    0  501 -0.00000000000E+00  0.00000000000E+00  0.82929079057E+02  0.82929079057E+02  0.00000000000E+00 0.  1.
          2   -1    0    0  501    0  0.00000000000E+00 -0.00000000000E+00 -0.54753463169E+03  0.54753463169E+03  0.00000000000E+00 0. -1.
         23    2    1    2    0    0  0.99776405153E+02 -0.15336568635E+03 -0.20513789531E+03  0.28925428142E+03  0.90056196092E+02 0.  0.
         23    2    1    2    0    0 -0.99776405153E+02  0.15336568635E+03 -0.25946765732E+03  0.34120942932E+03  0.12499617870E+03 0.  0.
          5    1    4    4  502    0 -0.67954828979E+02  0.58384151810E+02 -0.21212251733E+03  0.23031417742E+03  0.47000000000E+01 0. -1.
         -5    1    4    4    0  502 -0.31821576174E+02  0.94981534535E+02 -0.47345139989E+02  0.11089525190E+03  0.47000000000E+01 0. -1.
        -11    1    3    3    0    0  0.71241994892E+02 -0.36116354193E+02 -0.10809091159E+03  0.13440036475E+03  0.00000000000E+00 0. -1.
         11    1    3    3    0    0  0.28534410261E+02 -0.11724933215E+03 -0.97046983716E+02  0.15485391667E+03  0.00000000000E+00 0.  1.
<mgrwt>
<rscale>  0 0.21703308E+03</rscale>
<asrwt>0</asrwt>
<pdfrwt beam="2">  1        2 0.84236095E-01 0.22158612E+03</pdfrwt>
<pdfrwt beam="1">  1       -2 0.12758320E-01 0.22158612E+03</pdfrwt>
<totfact> 0.24919692E+03</totfact>
</mgrwt>
</event>
<event>
 8    1  0.1273312E-005  0.1361212E+03  0.7546771E-02  0.1232715E+00
          2   -1    0    0  501    0  0.00000000000E+00  0.00000000000E+00  0.12268689212E+04  0.12268689212E+04  0.00000000000E+00 0. -1.
         -2   -1    0    0    0  501 -0.00000000000E+00 -0.00000000000E+00 -0.11959451877E+02  0.11959451877E+02  0.00000000000E+00 0.  1.
         23    2    1    2    0    0 -0.48858428587E+01 -0.53666443163E+02  0.40419612800E+03  0.41676686996E+03  0.86117102976E+02 0.  0.
         23    2    1    2    0    0  0.48858428587E+01  0.53666443163E+02  0.81071334129E+03  0.82206150308E+03  0.12500013809E+03 0.  0.
          5    1    4    4  502    0 -0.12083121876E+01 -0.40870604674E+02  0.23016180592E+03  0.23381277392E+03  0.47000000000E+01 0. -1.
         -5    1    4    4    0  502  0.60941550462E+01  0.94537047837E+02  0.58055153537E+03  0.58824872916E+03  0.47000000000E+01 0. -1.
        -11    1    3    3    0    0 -0.19067705452E+02 -0.72892449547E+02  0.26365028337E+03  0.27420495713E+03  0.00000000000E+00 0. -1.
         11    1    3    3    0    0  0.14181862594E+02  0.19226006384E+02  0.14054584463E+03  0.14256191283E+03  0.00000000000E+00 0.  1.
<mgrwt>
<rscale>  0 0.12651878E+03</rscale>
<asrwt>0</asrwt>
<pdfrwt beam="1">  1        2 0.18874897E+00 0.13612124E+03</pdfrwt>
<pdfrwt beam="2">  1       -2 0.18399166E-02 0.13612124E+03</pdfrwt>
<totfact> 0.16225338E+04</totfact>
</mgrwt>
</event>
<event>
 8    1  0.1273312E-005  0.1515711E+03  0.7546771E-02  0.1207381E+00
         -1   -1    0    0    0  501 -0.00000000000E+00  0.00000000000E+00  0.36527224637E+02  0.36527224637E+02  0.00000000000E+00 0.  1.
          1   -1    0    0  501    0  0.00000000000E+00 -0.00000000000E+00 -0.13431200513E+04  0.13431200513E+04  0.00000000000E+00 0. -1.
         23    2    1    2    0    0 -0.85546023235E+02 -0.54857308274E+01 -0.91442994378E+02  0.15508085837E+03  0.91323797980E+02 0.  0.
         23    2    1    2    0    0  0.85546023235E+02  0.54857308274E+01 -0.12151498323E+04  0.12245664175E+04  0.12500232317E+03 0.  0.
          5    1    4    4  502    0  0.70271550269E+02 -0.48783190211E+02 -0.92455364703E+03  0.92851463460E+03  0.47000000000E+01 0. -1.
         -5    1    4    4    0  502  0.15274472966E+02  0.54268921038E+02 -0.29059618522E+03  0.29605178294E+03  0.47000000000E+01 0. -1.
        -11    1    3    3    0    0  0.31701375644E+01 -0.10015365790E+02 -0.59901361859E+02  0.60815544696E+02  0.00000000000E+00 0. -1.
         11    1    3    3    0    0 -0.88716160800E+02  0.45296349626E+01 -0.31541632519E+02  0.94265313673E+02  0.00000000000E+00 0.  1.
<mgrwt>
<rscale>  0 0.14451373E+03</rscale>
<asrwt>0</asrwt>
<pdfrwt beam="2">  1        1 0.20663386E+00 0.15157109E+03</pdfrwt>
<pdfrwt beam="1">  1       -1 0.56195729E-02 0.15157109E+03</pdfrwt>
<totfact> 0.13507044E+03</totfact>
</mgrwt>
</event>
<event>
 8    1  0.1273312E-005  0.1405728E+03  0.7546771E-02  0.1223911E+00
          2   -1    0    0  501    0  0.00000000000E+00  0.00000000000E+00  0.49272578282E+02  0.49272578282E+02  0.00000000000E+00 0. -1.
         -2   -1    0    0    0  501 -0.00000000000E+00 -0.00000000000E+00 -0.36415322186E+03  0.36415322186E+03  0.00000000000E+00 0.  1.
         23    2    1    2    0    0 -0.61348342089E+02  0.19314426487E+02 -0.21224430655E+03  0.23937137394E+03  0.90079647282E+02 0.  0.
         23    2    1    2    0    0  0.61348342089E+02 -0.19314426487E+02 -0.10263633703E+03  0.17405442620E+03  0.12499623775E+03 0.  0.
          5    1    4    4  502    0 -0.42811564804E+01  0.37037352854E+02  0.26935403961E+01  0.37675442494E+02  0.47000000000E+01 0.  1.
         -5    1    4    4    0  502  0.65629498569E+02 -0.56351779342E+02 -0.10532987743E+03  0.13637898371E+03  0.47000000000E+01 0.  1.
        -11    1    3    3    0    0  0.19550509006E+02  0.53098060759E+01 -0.13522663837E+02  0.24357316769E+02  0.00000000000E+00 0.  1.
         11    1    3    3    0    0 -0.80898851094E+02  0.14004620411E+02 -0.19872164271E+03  0.21501405717E+03  0.00000000000E+00 0. -1.
<mgrwt>
<rscale>  0 0.13241816E+03</rscale>
<asrwt>0</asrwt>
<pdfrwt beam="1">  1        2 0.75803969E-02 0.14057285E+03</pdfrwt>
<pdfrwt beam="2">  1       -2 0.56023571E-01 0.14057285E+03</pdfrwt>
<totfact> 0.26719248E+03</totfact>
</mgrwt>
</event>
<event>
 8    1  0.1273312E-005  0.1376591E+03  0.7546771E-02  0.1228432E+00
         -2   -1    0    0    0  501 -0.00000000000E+00  0.00000000000E+00  0.15851572477E+02  0.15851572477E+02  0.00000000000E+00 0.  1.
          2   -1    0    0  501    0  0.00000000000E+00 -0.00000000000E+00 -0.95215775054E+03  0.95215775054E+03  0.00000000000E+00 0. -1.
         23    2    1    2    0    0  0.76753245779E+01  0.57147711250E+02 -0.44811436631E+03  0.46078030411E+03  0.90483323644E+02 0.  0.
         23    2    1    2    0    0 -0.76753245779E+01 -0.57147711250E+02 -0.48819181175E+03  0.50722901890E+03  0.12500104418E+03 0.  0.
          5    1    4    4  502    0 -0.27620712641E+02 -0.71918092854E+02 -0.46950839273E+03  0.47581018977E+03  0.47000000000E+01 0. -1.
         -5    1    4    4    0  502  0.19945388063E+02  0.14770381603E+02 -0.18683419027E+02  0.31418829135E+02  0.47000000000E+01 0. -1.
        -11    1    3    3    0    0 -0.36399923625E+02  0.19525574719E+01 -0.13922549252E+03  0.14391839594E+03  0.00000000000E+00 0. -1.
         11    1    3    3    0    0  0.44075248203E+02  0.55195153778E+02 -0.30888887379E+03  0.31686190818E+03  0.00000000000E+00 0.  1.
<mgrwt>
<rscale>  0 0.12934439E+03</rscale>
<asrwt>0</asrwt>
<pdfrwt beam="2">  1        2 0.14648578E+00 0.13765912E+03</pdfrwt>
<pdfrwt beam="1">  1       -2 0.24387040E-02 0.13765912E+03</pdfrwt>
<totfact> 0.15523863E+04</totfact>
</mgrwt>
</event>
<event>
 8    1  0.1273312E-005  0.1280531E+03  0.7546771E-02  0.1244948E+00
          2   -1    0    0  501    0  0.00000000000E+00  0.00000000000E+00  0.37840804171E+03  0.37840804171E+03  0.00000000000E+00 0.  1.
         -2   -1    0    0    0  501 -0.00000000000E+00 -0.00000000000E+00 -0.68350403807E+02  0.68350403807E+02  0.00000000000E+00 0. -1.
         23    2    1    2    0    0  0.15120497816E+02 -0.23338233698E+02 -0.15987779482E+02  0.96468266820E+02  0.90979199844E+02 0.  0.
         23    2    1    2    0    0 -0.15120497816E+02  0.23338233698E+02  0.32604541738E+03  0.35029017869E+03  0.12499716992E+03 0.  0.
          5    1    4    4  502    0 -0.11607805865E+02 -0.45186938957E+02  0.21190084333E+03  0.21702686012E+03  0.47000000000E+01 0. -1.
         -5    1    4    4    0  502 -0.35126919512E+01  0.68525172654E+02  0.11414457406E+03  0.13326331858E+03  0.47000000000E+01 0. -1.
        -11    1    3    3    0    0  0.29166148445E+01 -0.46215736529E+02  0.21364462400E+02  0.50998443101E+02  0.00000000000E+00 0.  1.
         11    1    3    3    0    0  0.12203882972E+02  0.22877502831E+02 -0.37352241882E+02  0.45469823719E+02  0.00000000000E+00 0. -1.
<mgrwt>
<rscale>  0 0.11888491E+03</rscale>
<asrwt>0</asrwt>
<pdfrwt beam="1">  1        2 0.58216621E-01 0.12805309E+03</pdfrwt>
<pdfrwt beam="2">  1       -2 0.10515447E-01 0.12805309E+03</pdfrwt>
<totfact> 0.49756362E+03</totfact>
</mgrwt>
</event>
<event>
 8    1  0.1273312E-005  0.1773679E+03  0.7546771E-02  0.1175454E+00
          2   -1    0    0  501    0  0.00000000000E+00  0.00000000000E+00  0.54130005297E+03  0.54130005297E+03  0.00000000000E+00 0.  1.
         -2   -1    0    0    0  501 -0.00000000000E+00 -0.00000000000E+00 -0.69629569426E+02  0.69629569426E+02  0.00000000000E+00 0. -1.
         23    2    1    2    0    0  0.29998448485E+01  0.12579424959E+03  0.71937104141E+02  0.17361263219E+03  0.95567812601E+02 0.  0.
         23    2    1    2    0    0 -0.29998448485E+01 -0.12579424959E+03  0.39973337941E+03  0.43731699020E+03  0.12500473195E+03 0.  0.
          5    1    4    4  502    0  0.22585361630E+02  0.17943688452E+02  0.44681109995E+02  0.53390693061E+02  0.47000000000E+01 0.  1.
         -5    1    4    4    0  502 -0.25585206479E+02 -0.14373793805E+03  0.35505226941E+03  0.38392629714E+03  0.47000000000E+01 0.  1.
        -11    1    3    3    0    0 -0.82235644628E+01  0.65281327363E+02  0.88120997978E+02  0.10997540179E+03  0.00000000000E+00 0.  1.
         11    1    3    3    0    0  0.11223409311E+02  0.60512922231E+02 -0.16183893837E+02  0.63637230402E+02  0.00000000000E+00 0. -1.
<mgrwt>
<rscale>  0 0.17231607E+03</rscale>
<asrwt>0</asrwt>
<pdfrwt beam="1">  1        2 0.83276929E-01 0.17736791E+03</pdfrwt>
<pdfrwt beam="2">  1       -2 0.10712242E-01 0.17736791E+03</pdfrwt>
<totfact> 0.33208740E+03</totfact>
</mgrwt>
</event>
<event>
 8    1  0.1397059E-005  0.1828729E+03  0.7546771E-02  0.1170780E+00
         -2   -1    0    0    0  501 -0.00000000000E+00  0.00000000000E+00  0.24787751844E+02  0.24787751844E+02  0.00000000000E+00 0.  1.
          2   -1    0    0  501    0  0.00000000000E+00 -0.00000000000E+00 -0.11944586685E+04  0.11944586685E+04  0.00000000000E+00 0. -1.
         23    2    1    2    0    0 -0.12163380108E+03  0.54980536649E+02 -0.50196334113E+03  0.52694886907E+03  0.88827213176E+02 0.  0.
         23    2    1    2    0    0  0.12163380108E+03 -0.54980536649E+02 -0.66770757557E+03  0.69229755132E+03  0.12499940845E+03 0.  0.
          5    1    4    4  502    0  0.23133949975E+02 -0.76550254284E+02 -0.24777095098E+03  0.26039903077E+03  0.47000000000E+01 0. -1.
         -5    1    4    4    0  502  0.98499851103E+02  0.21569717635E+02 -0.41993662459E+03  0.43189852056E+03  0.47000000000E+01 0. -1.
        -11    1    3    3    0    0 -0.10777376136E+03  0.68167780434E+01 -0.29947683254E+03  0.31835204621E+03  0.00000000000E+00 0.  1.
         11    1    3    3    0    0 -0.13860039714E+02  0.48163758606E+02 -0.20248650859E+03  0.20859682286E+03  0.00000000000E+00 0. -1.
<mgrwt>
<rscale>  0 0.17695806E+03</rscale>
<asrwt>0</asrwt>
<pdfrwt beam="2">  1        2 0.18376281E+00 0.18287289E+03</pdfrwt>
<pdfrwt beam="1">  1       -2 0.38135015E-02 0.18287289E+03</pdfrwt>
<totfact> 0.58723412E+03</totfact>
</mgrwt>
</event>
<event>
 8    1  0.1273312E-005  0.1384756E+03  0.7546771E-02  0.1227043E+00
          1   -1    0    0  501    0  0.00000000000E+00  0.00000000000E+00  0.11550584509E+04  0.11550584509E+04  0.00000000000E+00 0. -1.
         -1   -1    0    0    0  501 -0.00000000000E+00 -0.00000000000E+00 -0.13816496409E+02  0.13816496409E+02  0.00000000000E+00 0.  1.
         23    2    1    2    0    0  0.65927558174E+01 -0.59625268627E+02  0.38188593206E+03  0.39699602906E+03  0.90389960172E+02 0.  0.
         23    2    1    2    0    0 -0.65927558174E+01  0.59625268627E+02  0.75935602248E+03  0.77187891829E+03  0.12480728561E+03 0.  0.
          5    1    4    4  502    0 -0.47534737472E+02  0.68727703703E+02  0.63642628177E+03  0.64190618524E+03  0.47000000000E+01 0. -1.
         -5    1    4    4    0  502  0.40941981654E+02 -0.91024350759E+01  0.12292974071E+03  0.12997273305E+03  0.47000000000E+01 0. -1.
        -11    1    3    3    0    0 -0.40787192831E+01 -0.76354138701E+02  0.35735814069E+03  0.36544689240E+03  0.00000000000E+00 0. -1.
         11    1    3    3    0    0  0.10671475101E+02  0.16728870074E+02  0.24527791369E+02  0.31549136664E+02  0.00000000000E+00 0.  1.
<mgrwt>
<rscale>  0 0.13027838E+03</rscale>
<asrwt>0</asrwt>
<pdfrwt beam="1">  1        1 0.17770122E+00 0.13847561E+03</pdfrwt>
<pdfrwt beam="2">  1       -1 0.21256157E-02 0.13847561E+03</pdfrwt>
<totfact> 0.75148737E+03</totfact>
</mgrwt>
</event>
<event>
 8    1  0.1273312E-005  0.1293566E+03  0.7546771E-02  0.1247173E+00
          2   -1    0    0  501    0  0.00000000000E+00  0.00000000000E+00  0.16501264009E+03  0.16501264009E+03  0.00000000000E+00 0. -1.
         -2   -1    0    0    0  501 -0.00000000000E+00 -0.00000000000E+00 -0.72417091760E+02  0.72417091760E+02  0.00000000000E+00 0.  1.
         23    2    1    2    0    0 -0.32855992958E+02  0.53810488706E+01  0.26360320137E+02  0.92101669782E+02  0.81727468692E+02 0.  0.
         23    2    1    2    0    0  0.32855992958E+02 -0.53810488706E+01  0.66235228197E+02  0.14532806207E+03  0.12499867284E+03 0.  0.
          5    1    4    4  502    0  0.27539782824E+02 -0.64249432472E+02  0.35548520772E+02  0.78563455500E+02  0.47000000000E+01 0.  1.
         -5    1    4    4    0  502  0.53162101339E+01  0.58868383601E+02  0.30686707425E+02  0.66764606571E+02  0.47000000000E+01 0.  1.
        -11    1    3    3    0    0 -0.47372856389E+02  0.27847051807E+02  0.58321550674E+00  0.54954398888E+02  0.00000000000E+00 0.  1.
         11    1    3    3    0    0  0.14516863431E+02 -0.22466002937E+02  0.25777104630E+02  0.37147270895E+02  0.00000000000E+00 0. -1.
<mgrwt>
<rscale>  0 0.11756248E+03</rscale>
<asrwt>0</asrwt>
<pdfrwt beam="1">  1        2 0.25386560E-01 0.12935664E+03</pdfrwt>
<pdfrwt beam="2">  1       -2 0.11141091E-01 0.12935664E+03</pdfrwt>
<totfact> 0.11039081E+04</totfact>
</mgrwt>
</event>
<event>
 8    1  0.1273312E-005  0.1309212E+03  0.7546771E-02  0.1238595E+00
         -1   -1    0    0    0  501 -0.00000000000E+00  0.00000000000E+00  0.38474876071E+02  0.38474876071E+02  0.00000000000E+00 0.  1.
          1   -1    0    0  501    0  0.00000000000E+00 -0.00000000000E+00 -0.35816175076E+03  0.35816175076E+03  0.00000000000E+00 0. -1.
         23    2    1    2    0    0 -0.21383465712E+02 -0.44105581714E+02 -0.11056528903E+03  0.14991369126E+03  0.88582598431E+02 0.  0.
         23    2    1    2    0    0  0.21383465712E+02  0.44105581714E+02 -0.20912158566E+03  0.24672293557E+03  0.12139940034E+03 0.  0.
          5    1    4    4  502    0  0.71316463135E+02  0.15368712239E+02 -0.11503994177E+03  0.13630302062E+03  0.47000000000E+01 0. -1.
         -5    1    4    4    0  502 -0.49932997423E+02  0.28736869475E+02 -0.94081643896E+02  0.11041991495E+03  0.47000000000E+01 0.  1.
        -11    1    3    3    0    0  0.73340980479E+01 -0.52407949251E+02 -0.23578833008E+02  0.57933958133E+02  0.00000000000E+00 0.  1.
         11    1    3    3    0    0 -0.28717563760E+02  0.83023675375E+01 -0.86986456021E+02  0.91979733127E+02  0.00000000000E+00 0. -1.
<mgrwt>
<rscale>  0 0.12277079E+03</rscale>
<asrwt>0</asrwt>
<pdfrwt beam="2">  1        1 0.55101806E-01 0.13092123E+03</pdfrwt>
<pdfrwt beam="1">  1       -1 0.59192119E-02 0.13092123E+03</pdfrwt>
<totfact> 0.90253818E+03</totfact>
</mgrwt>
</event>
<event>
 8    1  0.1273312E-005  0.1198944E+03  0.7546771E-02  0.1255045E+00
         -2   -1    0    0    0  501 -0.00000000000E+00  0.00000000000E+00  0.83637110167E+01  0.83637110167E+01  0.00000000000E+00 0.  1.
          2   -1    0    0  501    0  0.00000000000E+00 -0.00000000000E+00 -0.30330956612E+04  0.30330956612E+04  0.00000000000E+00 0. -1.
         23    2    1    2    0    0 -0.22538030269E+02  0.11962186507E+02 -0.31166156572E+03  0.32574112869E+03  0.91232092273E+02 0.  0.
         23    2    1    2    0    0  0.22538030269E+02 -0.11962186507E+02 -0.27130703845E+04  0.27157182435E+04  0.11714781450E+03 0.  0.
          5    1    4    4  502    0  0.54456008174E+02 -0.38788478357E+02 -0.21678243522E+04  0.21688601879E+04  0.47000000000E+01 0. -1.
         -5    1    4    4    0  502 -0.31917977906E+02  0.26826291849E+02 -0.54524603229E+03  0.54685805560E+03  0.47000000000E+01 0.  1.
        -11    1    3    3    0    0 -0.81205463058E+00  0.45119900696E+02 -0.91316484806E+02  0.10185855521E+03  0.00000000000E+00 0.  1.
         11    1    3    3    0    0 -0.21725975638E+02 -0.33157714189E+02 -0.22034508091E+03  0.22388257348E+03  0.00000000000E+00 0. -1.
<mgrwt>
<rscale>  0 0.11303802E+03</rscale>
<asrwt>0</asrwt>
<pdfrwt beam="2">  1        2 0.46663049E+00 0.11989440E+03</pdfrwt>
<pdfrwt beam="1">  1       -2 0.12867237E-02 0.11989440E+03</pdfrwt>
<totfact> 0.29943794E+03</totfact>
</mgrwt>
</event>
<event>
 8    1  0.1273312E-005  0.1314361E+03  0.7546771E-02  0.1238480E+00
          2   -1    0    0  501    0  0.00000000000E+00  0.00000000000E+00  0.67092594557E+02  0.67092594557E+02  0.00000000000E+00 0. -1.
         -2   -1    0    0    0  501 -0.00000000000E+00 -0.00000000000E+00 -0.22264201749E+03  0.22264201749E+03  0.00000000000E+00 0.  1.
         23    2    1    2    0    0 -0.40601073955E+02 -0.11161921309E+01 -0.11411748566E+03  0.15192293025E+03  0.91695600287E+02 0.  0.
         23    2    1    2    0    0  0.40601073955E+02  0.11161921309E+01 -0.41431937274E+02  0.13781168179E+03  0.12500304445E+03 0.  0.
          5    1    4    4  502    0 -0.44024862895E+02  0.10007995656E+02 -0.21812707884E+02  0.50361024167E+02  0.47000000000E+01 0.  1.
         -5    1    4    4    0  502  0.84625936850E+02 -0.88918035253E+01 -0.19619229390E+02  0.87450657628E+02  0.47000000000E+01 0.  1.
        -11    1    3    3    0    0 -0.30163592102E+02 -0.43842981042E+02 -0.43524337778E+02  0.68748943659E+02  0.00000000000E+00 0.  1.
         11    1    3    3    0    0 -0.10437481854E+02  0.42726788911E+02 -0.70593147883E+02  0.83173986595E+02  0.00000000000E+00 0. -1.
<mgrwt>
<rscale>  0 0.12284254E+03</rscale>
<asrwt>0</asrwt>
<pdfrwt beam="1">  1        2 0.10321937E-01 0.13143612E+03</pdfrwt>
<pdfrwt beam="2">  1       -2 0.34252619E-01 0.13143612E+03</pdfrwt>
<totfact> 0.46808908E+03</totfact>
</mgrwt>
</event>
<event>
 8    1  0.1273312E-005  0.1968806E+03  0.7546771E-02  0.1157374E+00
          2   -1    0    0  501    0  0.00000000000E+00  0.00000000000E+00  0.73117326407E+03  0.73117326407E+03  0.00000000000E+00 0. -1.
         -2   -1    0    0    0  501 -0.00000000000E+00 -0.00000000000E+00 -0.47471382904E+02  0.47471382904E+02  0.00000000000E+00 0.  1.
         23    2    1    2    0    0  0.11093815094E+03 -0.10406834840E+03  0.34341140386E+03  0.38550398551E+03  0.86858713260E+02 0.  0.
         23    2    1    2    0    0 -0.11093815094E+03  0.10406834840E+03  0.34029047731E+03  0.39314066146E+03  0.12499790509E+03 0.  0.
          5    1    4    4  502    0 -0.39166859522E+02 -0.26692614703E+02  0.84323164622E+02  0.96845364662E+02  0.47000000000E+01 0. -1.
         -5    1    4    4    0  502 -0.71771291421E+02  0.13076096310E+03  0.25596731268E+03  0.29629529680E+03  0.47000000000E+01 0. -1.
        -11    1    3    3    0    0  0.16787156846E+02 -0.69179245162E+02  0.18181041952E+03  0.19525010945E+03  0.00000000000E+00 0.  1.
         11    1    3    3    0    0  0.94150994097E+02 -0.34889103240E+02  0.16160098434E+03  0.19025387606E+03  0.00000000000E+00 0. -1.
<mgrwt>
<rscale>  0 0.19121085E+03</rscale>
<asrwt>0</asrwt>
<pdfrwt beam="1">  1        2 0.11248819E+00 0.19688060E+03</pdfrwt>
<pdfrwt beam="2">  1       -2 0.73032902E-02 0.19688060E+03</pdfrwt>
<totfact> 0.42773942E+03</totfact>
</mgrwt>
</event>
<event>
 8    1  0.1273312E-005  0.1293258E+03  0.7546771E-02  0.1241625E+00
         -2   -1    0    0    0  501 -0.00000000000E+00  0.00000000000E+00  0.11445178208E+02  0.11445178208E+02  0.00000000000E+00 0.  1.
          2   -1    0    0  501    0  0.00000000000E+00 -0.00000000000E+00 -0.12129946865E+04  0.12129946865E+04  0.00000000000E+00 0. -1.
         23    2    1    2    0    0 -0.21655248444E+02 -0.25118562806E+02 -0.37281147270E+03  0.38567178180E+03  0.93029227225E+02 0.  0.
         23    2    1    2    0    0  0.21655248444E+02  0.25118562806E+02 -0.82873803556E+03  0.83876808288E+03  0.12500109313E+03 0.  0.
          5    1    4    4  502    0  0.22164256442E+02  0.66175378508E+02 -0.70167875635E+03  0.70515643803E+03  0.47000000000E+01 0. -1.
         -5    1    4    4    0  502 -0.50900799833E+00 -0.41056815701E+02 -0.12705927921E+03  0.13361164485E+03  0.47000000000E+01 0. -1.
        -11    1    3    3    0    0  0.21309249027E+02 -0.40360887182E+02 -0.11262200186E+03  0.12151872535E+03  0.00000000000E+00 0.  1.
         11    1    3    3    0    0 -0.42964497471E+02  0.15242324376E+02 -0.26018947084E+03  0.26415305644E+03  0.00000000000E+00 0. -1.
<mgrwt>
<rscale>  0 0.12089646E+03</rscale>
<asrwt>0</asrwt>
<pdfrwt beam="2">  1        2 0.18661454E+00 0.12932581E+03</pdfrwt>
<pdfrwt beam="1">  1       -2 0.17607969E-02 0.12932581E+03</pdfrwt>
<totfact> 0.17540128E+04</totfact>
</mgrwt>
</event>
<event>
 8    1  0.1273312E-005  0.1800505E+03  0.7546771E-02  0.1173180E+00
          1   -1    0    0  501    0  0.00000000000E+00  0.00000000000E+00  0.11265472753E+04  0.11265472753E+04  0.00000000000E+00 0. -1.
         -1   -1    0    0    0  501 -0.00000000000E+00 -0.00000000000E+00 -0.25720290148E+02  0.25720290148E+02  0.00000000000E+00 0.  1.
         23    2    1    2    0    0  0.11684363660E+03 -0.56042972471E+02  0.56752868251E+03  0.58939523686E+03  0.92220873930E+02 0.  0.
         23    2    1    2    0    0 -0.11684363660E+03  0.56042972471E+02  0.53329830266E+03  0.56287232861E+03  0.12499971404E+03 0.  0.
          5    1    4    4  502    0 -0.41483062591E+02  0.88489017425E+02  0.29446392220E+03  0.31029379975E+03  0.47000000000E+01 0.  1.
         -5    1    4    4    0  502 -0.75360574004E+02 -0.32446044954E+02  0.23883438047E+03  0.25257852886E+03  0.47000000000E+01 0.  1.
        -11    1    3    3    0    0  0.59766807270E+02 -0.68767941609E+02  0.43653038158E+03  0.44593707525E+03  0.00000000000E+00 0. -1.
         11    1    3    3    0    0  0.57076829325E+02  0.12724969138E+02  0.13099830093E+03  0.14345816161E+03  0.00000000000E+00 0.  1.
<mgrwt>
<rscale>  0 0.17455463E+03</rscale>
<asrwt>0</asrwt>
<pdfrwt beam="1">  1        1 0.17331493E+00 0.18005049E+03</pdfrwt>
<pdfrwt beam="2">  1       -1 0.39569686E-02 0.18005049E+03</pdfrwt>
<totfact> 0.32019138E+03</totfact>
</mgrwt>
</event>
<event>
 7    1  0.1273312E-005  0.1539663E+03  0.7546771E-02  0.1219147E+00
          1   -1    0    0  501    0  0.00000000000E+00  0.00000000000E+00  0.24149688494E+03  0.24149688494E+03  0.00000000000E+00 0. -1.
         -1   -1    0    0    0  501 -0.00000000000E+00 -0.00000000000E+00 -0.65649859952E+02  0.65649859952E+02  0.00000000000E+00 0.  1.
         23    2    1    2    0    0  0.17279718829E+02  0.11208460478E+02  0.38161238789E+02  0.10059651947E+03  0.90769826015E+02 0.  0.
          5    1    1    2  502    0 -0.50097937187E+02 -0.68598546185E+02  0.95912858180E+02  0.12820659193E+03  0.47000000000E+01 0. -1.
         -5    1    1    2    0  502  0.32818218358E+02  0.57390085707E+02  0.41772928016E+02  0.78343633491E+02  0.47000000000E+01 0.  1.
        -11    1    3    3    0    0  0.79199978091E+01  0.50573981096E+02  0.12539912684E+02  0.52703921479E+02  0.00000000000E+00 0.  1.
         11    1    3    3    0    0  0.93597210201E+01 -0.39365520618E+02  0.25621326105E+02  0.47892597993E+02  0.00000000000E+00 0. -1.
<mgrwt>
<rscale>  0 0.13576260E+03</rscale>
<asrwt>0</asrwt>
<pdfrwt beam="1">  1        1 0.37153367E-01 0.15396629E+03</pdfrwt>
<pdfrwt beam="2">  1       -1 0.10099979E-01 0.15396629E+03</pdfrwt>
<totfact> 0.66463837E+03</totfact>
</mgrwt>
</event>
<event>
 8    1  0.1273312E-005  0.1934932E+03  0.7546771E-02  0.1159792E+00
         -2   -1    0    0    0  501 -0.00000000000E+00  0.00000000000E+00  0.17467288961E+03  0.17467288961E+03  0.00000000000E+00 0.  1.
          2   -1    0    0  501    0  0.00000000000E+00 -0.00000000000E+00 -0.19525371717E+03  0.19525371717E+03  0.00000000000E+00 0. -1.
         23    2    1    2    0    0 -0.14573370134E+03  0.24032164532E+02  0.66513735056E+01  0.17452643689E+03  0.92732840814E+02 0.  0.
         23    2    1    2    0    0  0.14573370134E+03 -0.24032164532E+02 -0.27232201073E+02  0.19540016989E+03  0.12499510783E+03 0.  0.
          5    1    4    4  502    0  0.15799864264E+03  0.68920964957E+01 -0.12492595766E+02  0.15871114333E+03  0.47000000000E+01 0.  1.
         -5    1    4    4    0  502 -0.12264941302E+02 -0.30924261028E+02 -0.14739605307E+02  0.36689026559E+02  0.47000000000E+01 0.  1.
        -11    1    3    3    0    0 -0.13912984244E+03 -0.26348301870E+00  0.27519050568E+02  0.14182552882E+03  0.00000000000E+00 0.  1.
         11    1    3    3    0    0 -0.66038588921E+01  0.24295647551E+02 -0.20867677062E+02  0.32700908063E+02  0.00000000000E+00 0. -1.
<mgrwt>
<rscale>  0 0.18853229E+03</rscale>
<asrwt>0</asrwt>
<pdfrwt beam="2">  1        2 0.30039033E-01 0.19349324E+03</pdfrwt>
<pdfrwt beam="1">  1       -2 0.26872752E-01 0.19349324E+03</pdfrwt>
<totfact> 0.21565569E+03</totfact>
</mgrwt>
</event>
<event>
 8    1  0.1273312E-005  0.1324279E+03  0.7546771E-02  0.1236910E+00
          2   -1    0    0  501    0  0.00000000000E+00  0.00000000000E+00  0.10437485933E+04  0.10437485933E+04  0.00000000000E+00 0.  1.
         -2   -1    0    0    0  501 -0.00000000000E+00 -0.00000000000E+00 -0.15628387630E+02  0.15628387630E+02  0.00000000000E+00 0. -1.
         23    2    1    2    0    0 -0.43676834530E+02  0.22050890883E+01  0.24427696495E+03  0.26442580751E+03  0.91308508800E+02 0.  0.
         23    2    1    2    0    0  0.43676834530E+02 -0.22050890883E+01  0.78384324077E+03  0.79495117347E+03  0.12499845522E+03 0.  0.
          5    1    4    4  502    0 -0.93597136448E+01 -0.19714014107E+02  0.64268169245E+03  0.64306927651E+03  0.47000000000E+01 0. -1.
         -5    1    4    4    0  502  0.53036548174E+02  0.17508925018E+02  0.14116154832E+03  0.15188189695E+03  0.47000000000E+01 0. -1.
        -11    1    3    3    0    0  0.48076808365E+01 -0.32588661886E+02  0.14412866116E+03  0.14784520839E+03  0.00000000000E+00 0.  1.
         11    1    3    3    0    0 -0.48484515366E+02  0.34793750974E+02  0.10014830379E+03  0.11658059911E+03  0.00000000000E+00 0. -1.
<mgrwt>
<rscale>  0 0.12382942E+03</rscale>
<asrwt>0</asrwt>
<pdfrwt beam="1">  1        2 0.16057665E+00 0.13242788E+03</pdfrwt>
<pdfrwt beam="2">  1       -2 0.24043681E-02 0.13242788E+03</pdfrwt>
<totfact> 0.13935509E+04</totfact>
</mgrwt>
</event>
<event>
 7    1  0.1273312E-005  0.2268777E+03  0.7546771E-02  0.1130403E+00
          1   -1    0    0  501    0  0.00000000000E+00  0.00000000000E+00  0.16743055367E+03  0.16743055367E+03  0.00000000000E+00 0. -1.
         -1   -1    0    0    0  501 -0.00000000000E+00 -0.00000000000E+00 -0.29622866378E+03  0.29622866378E+03  0.00000000000E+00 0.  1.
         23    2    1    2    0    0  0.11194898350E+03 -0.13984176439E+03 -0.57966299049E+02  0.22598159952E+03  0.12497718800E+03 0.  0.
          5    1    3    3  502    0  0.11310942945E+03 -0.13887093658E+03 -0.11803850241E+02  0.17955584351E+03  0.47000000000E+01 0.  1.
         -5    1    3    3    0  502 -0.11604459501E+01 -0.97082781589E+00 -0.46162448808E+02  0.46425756013E+02  0.47000000000E+01 0.  1.
        -11    1    1    2    0    0 -0.33275883632E+01 -0.21600078276E+02 -0.32799617823E+02  0.39413844715E+02  0.00000000000E+00 0.  1.
         11    1    1    2    0    0 -0.10862139514E+03  0.16144184267E+03 -0.38032193234E+02  0.19826377321E+03  0.00000000000E+00 0. -1.
<mgrwt>
<rscale>  0 0.22473325E+03</rscale>
<asrwt>0</asrwt>
<pdfrwt beam="1">  1        1 0.25758547E-01 0.22687773E+03</pdfrwt>
<pdfrwt beam="2">  1       -1 0.45573640E-01 0.22687773E+03</pdfrwt>
<totfact> 0.89706059E+02</totfact>
</mgrwt>
</event>
<event>
 8    1  0.1273312E-005  0.1720539E+03  0.7546771E-02  0.1182272E+00
         -2   -1    0    0    0  501 -0.00000000000E+00  0.00000000000E+00  0.51546907410E+02  0.51546907410E+02  0.00000000000E+00 0.  1.
          2   -1    0    0  501    0  0.00000000000E+00 -0.00000000000E+00 -0.50381075369E+03  0.50381075369E+03  0.00000000000E+00 0. -1.
         23    2    1    2    0    0  0.11500777243E+03 -0.27387057768E+02 -0.18054246259E+03  0.23374443811E+03  0.89800016116E+02 0.  0.
         23    2    1    2    0    0 -0.11500777243E+03  0.27387057768E+02 -0.27172138369E+03  0.32161322300E+03  0.12500286476E+03 0.  0.
          5    1    4    4  502    0 -0.14614842744E+02  0.23161440055E+02  0.40384713867E+01  0.28079266105E+02  0.47000000000E+01 0.  1.
         -5    1    4    4    0  502 -0.10039292969E+03  0.42256177127E+01 -0.27575985508E+03  0.29353395689E+03  0.47000000000E+01 0.  1.
        -11    1    3    3    0    0  0.53183961503E+02  0.72099259228E+01 -0.14473100488E+03  0.15436184945E+03  0.00000000000E+00 0. -1.
         11    1    3    3    0    0  0.61823810928E+02 -0.34596983691E+02 -0.35811457715E+02  0.79382588657E+02  0.00000000000E+00 0.  1.
<mgrwt>
<rscale>  0 0.16582579E+03</rscale>
<asrwt>0</asrwt>
<pdfrwt beam="2">  1        2 0.77509343E-01 0.17205393E+03</pdfrwt>
<pdfrwt beam="1">  1       -2 0.79302939E-02 0.17205393E+03</pdfrwt>
<totfact> 0.57626061E+03</totfact>
</mgrwt>
</event>
<event>
 8    1  0.1273312E-005  0.1682166E+03  0.7546771E-02  0.1187627E+00
          1   -1    0    0  501    0  0.00000000000E+00  0.00000000000E+00  0.17612560649E+03  0.17612560649E+03  0.00000000000E+00 0. -1.
         -1   -1    0    0    0  501 -0.00000000000E+00 -0.00000000000E+00 -0.16396384617E+03  0.16396384617E+03  0.00000000000E+00 0.  1.
         23    2    1    2    0    0  0.87782911403E+02 -0.70462691225E+02 -0.64727505561E+02  0.15513327054E+03  0.84887285636E+02 0.  0.
         23    2    1    2    0    0 -0.87782911403E+02  0.70462691225E+02  0.76889265889E+02  0.18495618212E+03  0.12500399876E+03 0.  0.
          5    1    4    4  502    0 -0.27849660884E+02 -0.33612152749E+02  0.32996124983E+01  0.44026785783E+02  0.47000000000E+01 0. -1.
         -5    1    4    4    0  502 -0.59933250519E+02  0.10407484397E+03  0.73589653391E+02  0.14092939634E+03  0.47000000000E+01 0. -1.
        -11    1    3    3    0    0 -0.70381182236E+01 -0.26092167263E+02 -0.38795679656E+02  0.47280451146E+02  0.00000000000E+00 0.  1.
         11    1    3    3    0    0  0.94821029627E+02 -0.44370523962E+02 -0.25931825905E+02  0.10785281939E+03  0.00000000000E+00 0. -1.
<mgrwt>
<rscale>  0 0.16095136E+03</rscale>
<asrwt>0</asrwt>
<pdfrwt beam="1">  1        1 0.27096247E-01 0.16821662E+03</pdfrwt>
<pdfrwt beam="2">  1       -1 0.25225207E-01 0.16821662E+03</pdfrwt>
<totfact> 0.23205160E+03</totfact>
</mgrwt>
</event>
<event>
 8    1  0.1273312E-005  0.1914162E+03  0.7546771E-02  0.1162209E+00
          1   -1    0    0  501    0  0.00000000000E+00  0.00000000000E+00  0.19247215886E+04  0.19247215886E+04  0.00000000000E+00 0. -1.
         -1   -1    0    0    0  501 -0.00000000000E+00 -0.00000000000E+00 -0.19492956580E+02  0.19492956580E+02  0.00000000000E+00 0.  1.
         23    2    1    2    0    0 -0.11480423330E+03 -0.88517305863E+02  0.55662131022E+03  0.58209051527E+03  0.89368672065E+02 0.  0.
         23    2    1    2    0    0  0.11480423330E+03  0.88517305863E+02  0.13486073218E+04  0.13621240299E+04  0.12499935617E+03 0.  0.
          5    1    4    4  502    0  0.31686869391E+02 -0.15900962533E+02  0.64280737582E+03  0.64380145287E+03  0.47000000000E+01 0.  1.
         -5    1    4    4    0  502  0.83117363912E+02  0.10441826840E+03  0.70579994593E+03  0.71832257701E+03  0.47000000000E+01 0.  1.
        -11    1    3    3    0    0 -0.33763807520E+02 -0.35995227965E+02  0.68025669848E+02  0.84042506464E+02  0.00000000000E+00 0.  1.
         11    1    3    3    0    0 -0.81040425784E+02 -0.52522077897E+02  0.48859564037E+03  0.49804800880E+03  0.00000000000E+00 0. -1.
<mgrwt>
<rscale>  0 0.18590355E+03</rscale>
<asrwt>0</asrwt>
<pdfrwt beam="1">  1        1 0.29611086E+00 0.19141621E+03</pdfrwt>
<pdfrwt beam="2">  1       -1 0.29989179E-02 0.19141621E+03</pdfrwt>
<totfact> 0.14314326E+03</totfact>
</mgrwt>
</event>
<event>
 8    1  0.1273312E-005  0.1305822E+03  0.7546771E-02  0.1240099E+00
         -1   -1    0    0    0  501 -0.00000000000E+00  0.00000000000E+00  0.18515955909E+02  0.18515955909E+02  0.00000000000E+00 0.  1.
          1   -1    0    0  501    0  0.00000000000E+00 -0.00000000000E+00 -0.71158532697E+03  0.71158532697E+03  0.00000000000E+00 0. -1.
         23    2    1    2    0    0  0.15093078170E+02 -0.34657412725E+02 -0.30485785566E+03  0.32051624747E+03  0.91451711137E+02 0.  0.
         23    2    1    2    0    0 -0.15093078170E+02  0.34657412725E+02 -0.38821151540E+03  0.40958503540E+03  0.12499113279E+03 0.  0.
          5    1    4    4  502    0 -0.51077040836E+01  0.35473765771E+02 -0.39496838359E+03  0.39661894904E+03  0.47000000000E+01 0. -1.
         -5    1    4    4    0  502 -0.99853740864E+01 -0.81635304559E+00  0.67568681928E+01  0.12966086369E+02  0.47000000000E+01 0. -1.
        -11    1    3    3    0    0  0.15977592513E+02 -0.65811087391E+02 -0.20321176741E+03  0.21419945168E+03  0.00000000000E+00 0. -1.
         11    1    3    3    0    0 -0.88451434338E+00  0.31153674666E+02 -0.10164608824E+03  0.10631679579E+03  0.00000000000E+00 0.  1.
<mgrwt>
<rscale>  0 0.12183553E+03</rscale>
<asrwt>0</asrwt>
<pdfrwt beam="2">  1        1 0.10947466E+00 0.13058224E+03</pdfrwt>
<pdfrwt beam="1">  1       -1 0.28486089E-02 0.13058224E+03</pdfrwt>
<totfact> 0.10697305E+04</totfact>
</mgrwt>
</event>
<event>
 8    1  0.1273312E-005  0.1370353E+03  0.7546771E-02  0.1228664E+00
         -3   -1    0    0    0  501 -0.00000000000E+00  0.00000000000E+00  0.40977901593E+03  0.40977901593E+03  0.00000000000E+00 0.  1.
          3   -1    0    0  501    0  0.00000000000E+00 -0.00000000000E+00 -0.44738128736E+02  0.44738128736E+02  0.00000000000E+00 0. -1.
         23    2    1    2    0    0  0.56108681320E+02  0.16694101105E+01  0.26070251148E+03  0.28228137976E+03  0.92552724525E+02 0.  0.
         23    2    1    2    0    0 -0.56108681320E+02 -0.16694101105E+01  0.10433837571E+03  0.17223576491E+03  0.12501076360E+03 0.  0.
          5    1    4    4  502    0 -0.55278684125E+02 -0.20000744420E+01 -0.11171317626E+02  0.56627039070E+02  0.47000000000E+01 0. -1.
         -5    1    4    4    0  502 -0.82999719517E+00  0.33066433149E+00  0.11550969334E+03  0.11560872584E+03  0.47000000000E+01 0. -1.
        -11    1    3    3    0    0  0.55370688682E+01 -0.28627087260E+02  0.22326459858E+02  0.36723835127E+02  0.00000000000E+00 0. -1.
         11    1    3    3    0    0  0.50571612452E+02  0.30296497370E+02  0.23837605162E+03  0.24555754463E+03  0.00000000000E+00 0.  1.
<mgrwt>
<rscale>  0 0.12918920E+03</rscale>
<asrwt>0</asrwt>
<pdfrwt beam="2">  1        3 0.68827893E-02 0.13703526E+03</pdfrwt>
<pdfrwt beam="1">  1       -3 0.63042923E-01 0.13703526E+03</pdfrwt>
<totfact> 0.78349708E+02</totfact>
</mgrwt>
</event>
<event>
 8    1  0.1273312E-005  0.1657543E+03  0.7546771E-02  0.1189476E+00
          3   -1    0    0  501    0  0.00000000000E+00  0.00000000000E+00  0.37712564722E+03  0.37712564722E+03  0.00000000000E+00 0. -1.
         -3   -1    0    0    0  501 -0.00000000000E+00 -0.00000000000E+00 -0.67196651372E+02  0.67196651372E+02  0.00000000000E+00 0.  1.
         23    2    1    2    0    0  0.74967819754E+02  0.78918033500E+02  0.85371250627E+02  0.16521537286E+03  0.90330720055E+02 0.  0.
         23    2    1    2    0    0 -0.74967819754E+02 -0.78918033500E+02  0.22455774522E+03  0.27910692573E+03  0.12500506007E+03 0.  0.
          5    1    4    4  502    0  0.22160207383E+02 -0.29830574572E+02  0.10457463237E+02  0.38889413828E+02  0.47000000000E+01 0. -1.
         -5    1    4    4    0  502 -0.97128027137E+02 -0.49087458928E+02  0.21410028198E+03  0.24021751190E+03  0.47000000000E+01 0. -1.
        -11    1    3    3    0    0 -0.68084545664E+01  0.31514865140E+02  0.58750546634E+02  0.67016180943E+02  0.00000000000E+00 0. -1.
         11    1    3    3    0    0  0.81776274320E+02  0.47403168360E+02  0.26620703994E+02  0.98199191918E+02  0.00000000000E+00 0.  1.
<mgrwt>
<rscale>  0 0.15931210E+03</rscale>
<asrwt>0</asrwt>
<pdfrwt beam="1">  1        3 0.58019329E-01 0.16575432E+03</pdfrwt>
<pdfrwt beam="2">  1       -3 0.10337947E-01 0.16575432E+03</pdfrwt>
<totfact> 0.49143923E+02</totfact>
</mgrwt>
</event>
<event>
 8    1  0.1273312E-005  0.1375779E+03  0.7546771E-02  0.1228036E+00
          2   -1    0    0  501    0  0.00000000000E+00  0.00000000000E+00  0.18364604617E+03  0.18364604617E+03  0.00000000000E+00 0. -1.
         -2   -1    0    0    0  501 -0.00000000000E+00 -0.00000000000E+00 -0.84237824882E+02  0.84237824882E+02  0.00000000000E+00 0.  1.
         23    2    1    2    0    0 -0.25934059182E+02  0.51283461285E+02  0.23996780973E+02  0.11099354499E+03  0.91875746017E+02 0.  0.
         23    2    1    2    0    0  0.25934059182E+02 -0.51283461285E+02  0.75411440312E+02  0.15689032605E+03  0.12500048101E+03 0.  0.
          5    1    4    4  502    0 -0.60155337655E+01  0.27056516101E+02 -0.15918088986E+02  0.32306613362E+02  0.47000000000E+01 0. -1.
         -5    1    4    4    0  502  0.31949592947E+02 -0.78339977386E+02  0.91329529297E+02  0.12458371269E+03  0.47000000000E+01 0. -1.
        -11    1    3    3    0    0 -0.27596110938E+01  0.74261301760E+02  0.82835676343E+01  0.74772815149E+02  0.00000000000E+00 0.  1.
         11    1    3    3    0    0 -0.23174448088E+02 -0.22977840475E+02  0.15713213339E+02  0.36220729845E+02  0.00000000000E+00 0. -1.
<mgrwt>
<rscale>  0 0.12960964E+03</rscale>
<asrwt>0</asrwt>
<pdfrwt beam="1">  1        2 0.28253238E-01 0.13757794E+03</pdfrwt>
<pdfrwt beam="2">  1       -2 0.12959665E-01 0.13757794E+03</pdfrwt>
<totfact> 0.77501668E+03</totfact>
</mgrwt>
</event>
<event>
 8    1  0.1273312E-005  0.1371017E+03  0.7546771E-02  0.1229273E+00
         -2   -1    0    0    0  501 -0.00000000000E+00  0.00000000000E+00  0.45102008688E+02  0.45102008688E+02  0.00000000000E+00 0.  1.
          2   -1    0    0  501    0  0.00000000000E+00 -0.00000000000E+00 -0.41212857674E+03  0.41212857674E+03  0.00000000000E+00 0. -1.
         23    2    1    2    0    0  0.62393592971E+01 -0.56022457699E+02 -0.63548863295E+02  0.12422067536E+03  0.90635935421E+02 0.  0.
         23    2    1    2    0    0 -0.62393592971E+01  0.56022457699E+02 -0.30347770475E+03  0.33300991006E+03  0.12497774821E+03 0.  0.
          5    1    4    4  502    0 -0.40913939270E+01  0.49017589936E+02 -0.31484147973E+03  0.31869532627E+03  0.47000000000E+01 0. -1.
         -5    1    4    4    0  502 -0.21479653701E+01  0.70048677628E+01  0.11363774974E+02  0.14314583796E+02  0.47000000000E+01 0. -1.
        -11    1    3    3    0    0 -0.90392789924E+01 -0.34542736309E+02 -0.83728356530E+02  0.91023880843E+02  0.00000000000E+00 0. -1.
         11    1    3    3    0    0  0.15278638290E+02 -0.21479721390E+02  0.20179493236E+02  0.33196794517E+02  0.00000000000E+00 0.  1.
<mgrwt>
<rscale>  0 0.12878305E+03</rscale>
<asrwt>0</asrwt>
<pdfrwt beam="2">  1        2 0.63404394E-01 0.13710172E+03</pdfrwt>
<pdfrwt beam="1">  1       -2 0.69387708E-02 0.13710172E+03</pdfrwt>
<totfact> 0.86945532E+03</totfact>
</mgrwt>
</event>
<event>
 8    1  0.1273312E-005  0.1685945E+03  0.7546771E-02  0.1185766E+00
         -1   -1    0    0    0  501 -0.00000000000E+00  0.00000000000E+00  0.19887820783E+02  0.19887820783E+02  0.00000000000E+00 0.  1.
          1   -1    0    0  501    0  0.00000000000E+00 -0.00000000000E+00 -0.12521587605E+04  0.12521587605E+04  0.00000000000E+00 0. -1.
         23    2    1    2    0    0 -0.99885484353E+02 -0.53112531882E+02 -0.51995403382E+03  0.54004966079E+03  0.92213815714E+02 0.  0.
         23    2    1    2    0    0  0.99885484353E+02  0.53112531882E+02 -0.71231690588E+03  0.73199692047E+03  0.12500426454E+03 0.  0.
          5    1    4    4  502    0  0.57168393768E+02  0.76342159863E+02 -0.25876915119E+03  0.27582587664E+03  0.47000000000E+01 0.  1.
         -5    1    4    4    0  502  0.42717090585E+02 -0.23229627981E+02 -0.45354775469E+03  0.45617104383E+03  0.47000000000E+01 0.  1.
        -11    1    3    3    0    0 -0.81626048654E+02  0.61729009932E+01 -0.33955423713E+03  0.34928211588E+03  0.00000000000E+00 0.  1.
         11    1    3    3    0    0 -0.18259435699E+02 -0.59285432876E+02 -0.18039979669E+03  0.19076754490E+03  0.00000000000E+00 0. -1.
<mgrwt>
<rscale>  0 0.16262366E+03</rscale>
<asrwt>0</asrwt>
<pdfrwt beam="2">  1        1 0.19263983E+00 0.16859453E+03</pdfrwt>
<pdfrwt beam="1">  1       -1 0.30596644E-02 0.16859453E+03</pdfrwt>
<totfact> 0.38204365E+03</totfact>
</mgrwt>
</event>
<event>
 8    1  0.1273312E-005  0.1405537E+03  0.7546771E-02  0.1223720E+00
          1   -1    0    0  501    0  0.00000000000E+00  0.00000000000E+00  0.43190204710E+03  0.43190204710E+03  0.00000000000E+00 0. -1.
         -1   -1    0    0    0  501 -0.00000000000E+00 -0.00000000000E+00 -0.57564807422E+02  0.57564807422E+02  0.00000000000E+00 0.  1.
         23    2    1    2    0    0 -0.48629399662E+02 -0.42013114818E+02  0.26471689494E+02  0.11427919405E+03  0.90714185874E+02 0.  0.
         23    2    1    2    0    0  0.48629399662E+02  0.42013114818E+02  0.34786555018E+03  0.37518766048E+03  0.12500167695E+03 0.  0.
          5    1    4    4  502    0  0.75673672173E+02 -0.89079275999E+01  0.14045552374E+03  0.15986150250E+03  0.47000000000E+01 0. -1.
         -5    1    4    4    0  502 -0.27044272511E+02  0.50921042418E+02  0.20741002645E+03  0.21532615797E+03  0.47000000000E+01 0. -1.
        -11    1    3    3    0    0 -0.64406454339E+02 -0.55917244481E+02  0.34172409849E+02  0.91884074712E+02  0.00000000000E+00 0. -1.
         11    1    3    3    0    0  0.15777054677E+02  0.13904129663E+02 -0.77007203555E+01  0.22395119333E+02  0.00000000000E+00 0.  1.
<mgrwt>
<rscale>  0 0.13254994E+03</rscale>
<asrwt>0</asrwt>
<pdfrwt beam="1">  1        1 0.66446467E-01 0.14055369E+03</pdfrwt>
<pdfrwt beam="2">  1       -1 0.88561245E-02 0.14055369E+03</pdfrwt>
<totfact> 0.39092662E+03</totfact>
</mgrwt>
</event>
<event>
 8    1  0.1273312E-005  0.1930358E+03  0.7546771E-02  0.1160352E+00
          3   -1    0    0  501    0  0.00000000000E+00  0.00000000000E+00  0.47107006976E+03  0.47107006976E+03  0.00000000000E+00 0. -1.
         -3   -1    0    0    0  501 -0.00000000000E+00 -0.00000000000E+00 -0.74117616596E+02  0.74117616596E+02  0.00000000000E+00 0.  1.
         23    2    1    2    0    0  0.11191620184E+03 -0.95458985895E+02  0.13467254410E+03  0.21952900976E+03  0.91753134931E+02 0.  0.
         23    2    1    2    0    0 -0.11191620184E+03  0.95458985895E+02  0.26227990906E+03  0.32565867659E+03  0.12500067488E+03 0.  0.
          5    1    4    4  502    0 -0.86654142637E+02  0.97729781113E+02  0.10889094151E+03  0.17011577733E+03  0.47000000000E+01 0. -1.
         -5    1    4    4    0  502 -0.25262059206E+02 -0.22707952187E+01  0.15338896755E+03  0.15554289926E+03  0.47000000000E+01 0. -1.
        -11    1    3    3    0    0  0.45836493259E+02  0.10597307510E+02  0.25036839546E+02  0.53292873587E+02  0.00000000000E+00 0. -1.
         11    1    3    3    0    0  0.66079708583E+02 -0.10605629340E+03  0.10963570456E+03  0.16623613618E+03  0.00000000000E+00 0.  1.
<mgrwt>
<rscale>  0 0.18791884E+03</rscale>
<asrwt>0</asrwt>
<pdfrwt beam="1">  1        3 0.72472317E-01 0.19303581E+03</pdfrwt>
<pdfrwt beam="2">  1       -3 0.11402711E-01 0.19303581E+03</pdfrwt>
<totfact> 0.26642689E+02</totfact>
</mgrwt>
</event>
<event>
 8    1  0.1273312E-005  0.1458496E+03  0.7546771E-02  0.1215638E+00
          1   -1    0    0  501    0  0.00000000000E+00  0.00000000000E+00  0.59316391164E+03  0.59316391164E+03  0.00000000000E+00 0. -1.
         -1   -1    0    0    0  501 -0.00000000000E+00 -0.00000000000E+00 -0.29941999673E+02  0.29941999673E+02  0.00000000000E+00 0.  1.
         23    2    1    2    0    0 -0.34132310815E+02 -0.66944600104E+02  0.20776394051E+03  0.23888920899E+03  0.90860360283E+02 0.  0.
         23    2    1    2    0    0  0.34132310815E+02  0.66944600104E+02  0.35545797146E+03  0.38421670232E+03  0.12500204297E+03 0.  0.
          5    1    4    4  502    0  0.68749299525E+02  0.52804842121E+02  0.13461799068E+03  0.16018399093E+03  0.47000000000E+01 0. -1.
         -5    1    4    4    0  502 -0.34616988710E+02  0.14139757983E+02  0.22083998078E+03  0.22403271139E+03  0.47000000000E+01 0. -1.
        -11    1    3    3    0    0 -0.35605971560E+02  0.62869621592E+01  0.11584097665E+03  0.12135255653E+03  0.00000000000E+00 0. -1.
         11    1    3    3    0    0  0.14736607448E+01 -0.73231562263E+02  0.91922963851E+02  0.11753665246E+03  0.00000000000E+00 0.  1.
<mgrwt>
<rscale>  0 0.13829751E+03</rscale>
<asrwt>0</asrwt>
<pdfrwt beam="1">  1        1 0.91255978E-01 0.14584960E+03</pdfrwt>
<pdfrwt beam="2">  1       -1 0.46064619E-02 0.14584960E+03</pdfrwt>
<totfact> 0.68679821E+03</totfact>
</mgrwt>
</event>
<event>
 8    1  0.1273312E-005  0.1558824E+03  0.7546771E-02  0.1201724E+00
          2   -1    0    0  501    0  0.00000000000E+00  0.00000000000E+00  0.13522832665E+03  0.13522832665E+03  0.00000000000E+00 0. -1.
         -2   -1    0    0    0  501 -0.00000000000E+00 -0.00000000000E+00 -0.15120174132E+03  0.15120174132E+03  0.00000000000E+00 0.  1.
         23    2    1    2    0    0 -0.92877123768E+02  0.54353848625E+01 -0.52839904069E+01  0.13018162163E+03  0.90904513244E+02 0.  0.
         23    2    1    2    0    0  0.92877123768E+02 -0.54353848625E+01 -0.10689424268E+02  0.15624844634E+03  0.12507441651E+03 0.  0.
          5    1    4    4  502    0  0.46657657024E+02 -0.47989618085E+02 -0.48482843469E+02  0.82780532215E+02  0.47000000000E+01 0. -1.
         -5    1    4    4    0  502  0.46219466744E+02  0.42554233222E+02  0.37793419201E+02  0.73467914127E+02  0.47000000000E+01 0. -1.
        -11    1    3    3    0    0 -0.68641208325E+02  0.45639521489E+02 -0.98512282496E+01  0.83015830419E+02  0.00000000000E+00 0.  1.
         11    1    3    3    0    0 -0.24235915444E+02 -0.40204136627E+02  0.45672378427E+01  0.47165791214E+02  0.00000000000E+00 0. -1.
<mgrwt>
<rscale>  0 0.14898607E+03</rscale>
<asrwt>0</asrwt>
<pdfrwt beam="1">  1        2 0.20804358E-01 0.15588237E+03</pdfrwt>
<pdfrwt beam="2">  1       -2 0.23261806E-01 0.15588237E+03</pdfrwt>
<totfact> 0.41376086E+03</totfact>
</mgrwt>
</event>
<event>
 8    1  0.1273312E-005  0.1682690E+03  0.7546771E-02  0.1186172E+00
          1   -1    0    0  501    0  0.00000000000E+00  0.00000000000E+00  0.34251236106E+03  0.34251236106E+03  0.00000000000E+00 0. -1.
         -1   -1    0    0    0  501 -0.00000000000E+00 -0.00000000000E+00 -0.76241998392E+02  0.76241998392E+02  0.00000000000E+00 0.  1.
         23    2    1    2    0    0 -0.10951235410E+03  0.26393545513E+02  0.73889275576E+02  0.16316692866E+03  0.92055671284E+02 0.  0.
         23    2    1    2    0    0  0.10951235410E+03 -0.26393545513E+02  0.19238108710E+03  0.25558743080E+03  0.12499950866E+03 0.  0.
          5    1    4    4  502    0  0.52394971747E+02  0.49074950421E+02  0.10048947703E+03  0.12358725184E+03  0.47000000000E+01 0. -1.
         -5    1    4    4    0  502  0.57117382356E+02 -0.75468495934E+02  0.91891610063E+02  0.13200017896E+03  0.47000000000E+01 0. -1.
        -11    1    3    3    0    0 -0.74081504971E+02  0.52514494613E+02  0.18940595321E+02  0.92760916739E+02  0.00000000000E+00 0.  1.
         11    1    3    3    0    0 -0.35430849132E+02 -0.26120949100E+02  0.54948680255E+02  0.70406011916E+02  0.00000000000E+00 0. -1.
<mgrwt>
<rscale>  0 0.16225658E+03</rscale>
<asrwt>0</asrwt>
<pdfrwt beam="1">  1        1 0.52694208E-01 0.16826899E+03</pdfrwt>
<pdfrwt beam="2">  1       -1 0.11729538E-01 0.16826899E+03</pdfrwt>
<totfact> 0.34327100E+03</totfact>
</mgrwt>
</event>
<event>
 8    1  0.1273312E-005  0.1508214E+03  0.7546771E-02  0.1208027E+00
          2   -1    0    0  501    0  0.00000000000E+00  0.00000000000E+00  0.94016648391E+03  0.94016648391E+03  0.00000000000E+00 0. -1.
         -2   -1    0    0    0  501 -0.00000000000E+00 -0.00000000000E+00 -0.20396562149E+02  0.20396562149E+02  0.00000000000E+00 0.  1.
         23    2    1    2    0    0  0.80548916325E+02  0.25198865173E+02  0.38251056363E+03  0.40253551520E+03  0.92722160127E+02 0.  0.
         23    2    1    2    0    0 -0.80548916325E+02 -0.25198865173E+02  0.53725935813E+03  0.55802753086E+03  0.12499598623E+03 0.  0.
          5    1    4    4  502    0 -0.88354100514E+02  0.25843428726E+02  0.25742202389E+03  0.27342735465E+03  0.47000000000E+01 0.  1.
         -5    1    4    4    0  502  0.78051841884E+01 -0.51042293899E+02  0.27983733424E+03  0.28460017621E+03  0.47000000000E+01 0.  1.
        -11    1    3    3    0    0  0.80784150990E+02  0.53618106592E+02  0.29688379629E+03  0.31231549578E+03  0.00000000000E+00 0. -1.
         11    1    3    3    0    0 -0.23523466476E+00 -0.28419241418E+02  0.85626767347E+02  0.90220019421E+02  0.00000000000E+00 0.  1.
<mgrwt>
<rscale>  0 0.14401431E+03</rscale>
<asrwt>0</asrwt>
<pdfrwt beam="1">  1        2 0.14464096E+00 0.15082144E+03</pdfrwt>
<pdfrwt beam="2">  1       -2 0.31379334E-02 0.15082144E+03</pdfrwt>
<totfact> 0.10967541E+04</totfact>
</mgrwt>
</event>
<event>
 8    1  0.1273312E-005  0.1511206E+03  0.7546771E-02  0.1208063E+00
         -1   -1    0    0    0  501 -0.00000000000E+00  0.00000000000E+00  0.32848785668E+02  0.32848785668E+02  0.00000000000E+00 0.  1.
          1   -1    0    0  501    0  0.00000000000E+00 -0.00000000000E+00 -0.67874848332E+03  0.67874848332E+03  0.00000000000E+00 0. -1.
         23    2    1    2    0    0  0.81524635451E+02 -0.23818826333E+02 -0.16011534924E+03  0.20284992256E+03  0.91090961945E+02 0.  0.
         23    2    1    2    0    0 -0.81524635451E+02  0.23818826333E+02 -0.48578434842E+03  0.50874734643E+03  0.12499530655E+03 0.  0.
          5    1    4    4  502    0 -0.10335035463E+03  0.38029350720E+02 -0.45495343145E+03  0.46811562899E+03  0.47000000000E+01 0. -1.
         -5    1    4    4    0  502  0.21825719178E+02 -0.14210524387E+02 -0.30830916969E+02  0.40631717440E+02  0.47000000000E+01 0. -1.
        -11    1    3    3    0    0  0.30248029921E+02  0.15548782046E+02 -0.12445964151E+03  0.12902290611E+03  0.00000000000E+00 0. -1.
         11    1    3    3    0    0  0.51276605530E+02 -0.39367608379E+02 -0.35655707730E+02  0.73827016450E+02  0.00000000000E+00 0.  1.
<mgrwt>
<rscale>  0 0.14398699E+03</rscale>
<asrwt>0</asrwt>
<pdfrwt beam="2">  1        1 0.10442285E+00 0.15112058E+03</pdfrwt>
<pdfrwt beam="1">  1       -1 0.50536589E-02 0.15112058E+03</pdfrwt>
<totfact> 0.49741935E+03</totfact>
</mgrwt>
</event>
<event>
 8    1  0.1273312E-005  0.1256860E+03  0.7546771E-02  0.1251936E+00
         -1   -1    0    0    0  501 -0.00000000000E+00  0.00000000000E+00  0.26215826595E+02  0.26215826595E+02  0.00000000000E+00 0.  1.
          1   -1    0    0  501    0  0.00000000000E+00 -0.00000000000E+00 -0.46323091541E+03  0.46323091541E+03  0.00000000000E+00 0. -1.
         23    2    1    2    0    0  0.10711828522E+02  0.76761944327E+01 -0.12058478313E+03  0.14896898028E+03  0.86471960387E+02 0.  0.
         23    2    1    2    0    0 -0.10711828522E+02 -0.76761944327E+01 -0.31643030569E+03  0.34047776173E+03  0.12499320237E+03 0.  0.
          5    1    4    4  502    0  0.20632735232E+02  0.39924005190E+02 -0.47597003726E+02  0.65629267231E+02  0.47000000000E+01 0. -1.
         -5    1    4    4    0  502 -0.31344563755E+02 -0.47600199623E+02 -0.26883330197E+03  0.27484849450E+03  0.47000000000E+01 0. -1.
        -11    1    3    3    0    0  0.33339105078E+02 -0.13927751979E+02 -0.11025313993E+03  0.11602255413E+03  0.00000000000E+00 0. -1.
         11    1    3    3    0    0 -0.22627276555E+02  0.21603946412E+02 -0.10331643195E+02  0.32946426149E+02  0.00000000000E+00 0.  1.
<mgrwt>
<rscale>  0 0.11479696E+03</rscale>
<asrwt>0</asrwt>
<pdfrwt beam="2">  1        1 0.71266291E-01 0.12568599E+03</pdfrwt>
<pdfrwt beam="1">  1       -1 0.40332043E-02 0.12568599E+03</pdfrwt>
<totfact> 0.11456316E+04</totfact>
</mgrwt>
</event>
<event>
 8    1  0.1273312E-005  0.1916431E+03  0.7546771E-02  0.1161867E+00
          1   -1    0    0  501    0  0.00000000000E+00  0.00000000000E+00  0.12792086657E+03  0.12792086657E+03  0.00000000000E+00 0. -1.
         -1   -1    0    0    0  501 -0.00000000000E+00 -0.00000000000E+00 -0.25708659533E+03  0.25708659533E+03  0.00000000000E+00 0.  1.
         23    2    1    2    0    0 -0.10849660448E+03 -0.96601735230E+02 -0.60180603911E+02  0.18132623678E+03  0.90300003467E+02 0.  0.
         23    2    1    2    0    0  0.10849660448E+03  0.96601735230E+02 -0.68985124847E+02  0.20368122511E+03  0.12499474221E+03 0.  0.
          5    1    4    4  502    0  0.46569996388E+02  0.13702460614E+02  0.32548941252E+02  0.58634849425E+02  0.47000000000E+01 0.  1.
         -5    1    4    4    0  502  0.61926608090E+02  0.82899274617E+02 -0.10153406610E+03  0.14504637569E+03  0.47000000000E+01 0.  1.
        -11    1    3    3    0    0 -0.46414334634E+02  0.71503088396E+01 -0.16363486317E+01  0.46990371491E+02  0.00000000000E+00 0. -1.
         11    1    3    3    0    0 -0.62082269845E+02 -0.10375204407E+03 -0.58544255279E+02  0.13433586529E+03  0.00000000000E+00 0.  1.
<mgrwt>
<rscale>  0 0.18627287E+03</rscale>
<asrwt>0</asrwt>
<pdfrwt beam="1">  1        1 0.19680134E-01 0.19164314E+03</pdfrwt>
<pdfrwt beam="2">  1       -1 0.39551783E-01 0.19164314E+03</pdfrwt>
<totfact> 0.16253839E+03</totfact>
</mgrwt>
</event>
<event>
 8    1  0.1273312E-005  0.1776973E+03  0.7546771E-02  0.1176117E+00
          2   -1    0    0  501    0  0.00000000000E+00  0.00000000000E+00  0.11108413533E+03  0.11108413533E+03  0.00000000000E+00 0. -1.
         -2   -1    0    0    0  501 -0.00000000000E+00 -0.00000000000E+00 -0.26754790478E+03  0.26754790478E+03  0.00000000000E+00 0.  1.
         23    2    1    2    0    0 -0.10739794241E+03 -0.66459604774E+02 -0.12323682039E+03  0.19785491164E+03  0.89487736919E+02 0.  0.
         23    2    1    2    0    0  0.10739794241E+03  0.66459604774E+02 -0.33226949066E+02  0.18077712847E+03  0.12500057174E+03 0.  0.
          5    1    4    4  502    0  0.25622256431E+02 -0.28397694589E+02 -0.39640385878E+02  0.55284530161E+02  0.47000000000E+01 0. -1.
         -5    1    4    4    0  502  0.81775685978E+02  0.94857299363E+02  0.64134368122E+01  0.12549259831E+03  0.47000000000E+01 0. -1.
        -11    1    3    3    0    0 -0.98033874924E+02 -0.29874794625E+02 -0.12298629561E+03  0.16008989004E+03  0.00000000000E+00 0.  1.
         11    1    3    3    0    0 -0.93640674850E+01 -0.36584810149E+02 -0.25052478355E+00  0.37765021596E+02  0.00000000000E+00 0. -1.
<mgrwt>
<rscale>  0 0.17167017E+03</rscale>
<asrwt>0</asrwt>
<pdfrwt beam="1">  1        2 0.17089867E-01 0.17769733E+03</pdfrwt>
<pdfrwt beam="2">  1       -2 0.41161216E-01 0.17769733E+03</pdfrwt>
<totfact> 0.18484178E+03</totfact>
</mgrwt>
</event>
<event>
 8    1  0.1273312E-005  0.1463227E+03  0.7546771E-02  0.1215781E+00
         -4   -1    0    0    0  501 -0.00000000000E+00  0.00000000000E+00  0.11230408702E+03  0.11230408702E+03  0.00000000000E+00 0. -1.
          4   -1    0    0  501    0  0.00000000000E+00 -0.00000000000E+00 -0.16204463890E+03  0.16204463890E+03  0.00000000000E+00 0.  1.
         23    2    1    2    0    0  0.41413096398E+02  0.63564989606E+02  0.88058891784E+01  0.11674787013E+03  0.88300447561E+02 0.  0.
         23    2    1    2    0    0 -0.41413096398E+02 -0.63564989606E+02 -0.58546441061E+02  0.15760085579E+03  0.12511910937E+03 0.  0.
          5    1    4    4  502    0 -0.56239072967E+01 -0.28281982849E+02 -0.92343274997E+02  0.96854887974E+02  0.47000000000E+01 0. -1.
         -5    1    4    4    0  502 -0.35789189102E+02 -0.35283006757E+02  0.33796833937E+02  0.60745967821E+02  0.47000000000E+01 0. -1.
        -11    1    3    3    0    0  0.61434176375E+01  0.74861522798E+02  0.20589169042E+02  0.77883907566E+02  0.00000000000E+00 0. -1.
         11    1    3    3    0    0  0.35269678761E+02 -0.11296533193E+02 -0.11783279863E+02  0.38863962567E+02  0.00000000000E+00 0.  1.
<mgrwt>
<rscale>  0 0.13819311E+03</rscale>
<asrwt>0</asrwt>
<pdfrwt beam="2">  1        4 0.24929944E-01 0.14632274E+03</pdfrwt>
<pdfrwt beam="1">  1       -4 0.17277552E-01 0.14632274E+03</pdfrwt>
<totfact> 0.74217457E+02</totfact>
</mgrwt>
</event>
<event>
 7    1  0.1273312E-005  0.4167878E+03  0.7546771E-02  0.1090657E+00
         -4   -1    0    0    0  501 -0.00000000000E+00  0.00000000000E+00  0.11783209258E+04  0.11783209258E+04  0.00000000000E+00 0.  1.
          4   -1    0    0  501    0  0.00000000000E+00 -0.00000000000E+00 -0.56156526349E+02  0.56156526349E+02  0.00000000000E+00 0. -1.
         23    2    1    2    0    0  0.21317375491E+02 -0.17181586856E+02  0.23945648218E+03  0.25831901156E+03  0.92949811467E+02 0.  0.
          5    1    1    2  502    0 -0.69452666239E+02 -0.12017998073E+03  0.79856198983E+02  0.16020612701E+03  0.47000000000E+01 0. -1.
         -5    1    1    2    0  502  0.48135290747E+02  0.13736156759E+03  0.80285171828E+03  0.81595231356E+03  0.47000000000E+01 0.  1.
        -11    1    3    3    0    0 -0.29974054710E+02 -0.31399018526E+02  0.11711051215E+03  0.12489681492E+03  0.00000000000E+00 0.  1.
         11    1    3    3    0    0  0.51291430201E+02  0.14217431670E+02  0.12234597003E+03  0.13342219665E+03  0.00000000000E+00 0. -1.
<mgrwt>
<rscale>  0 0.28941124E+03</rscale>
<asrwt>0</asrwt>
<pdfrwt beam="2">  1        4 0.86394665E-02 0.41678776E+03</pdfrwt>
<pdfrwt beam="1">  1       -4 0.18128012E+00 0.41678776E+03</pdfrwt>
<totfact> 0.35120037E+01</totfact>
</mgrwt>
</event>
<event>
 8    1  0.1273312E-005  0.1434917E+03  0.7546771E-02  0.1219227E+00
          1   -1    0    0  501    0  0.00000000000E+00  0.00000000000E+00  0.95510449293E+02  0.95510449293E+02  0.00000000000E+00 0. -1.
         -1   -1    0    0    0  501 -0.00000000000E+00 -0.00000000000E+00 -0.17507204214E+03  0.17507204214E+03  0.00000000000E+00 0.  1.
         23    2    1    2    0    0  0.70436357144E+02  0.25978516558E+01 -0.42243011295E+02  0.12231736508E+03  0.90603733672E+02 0.  0.
         23    2    1    2    0    0 -0.70436357144E+02 -0.25978516558E+01 -0.37318581555E+02  0.14826512636E+03  0.12498736706E+03 0.  0.
          5    1    4    4  502    0  0.27886295184E+02  0.34845838369E+01 -0.40584855829E+02  0.49588388825E+02  0.47000000000E+01 0. -1.
         -5    1    4    4    0  502 -0.98322652328E+02 -0.60824354927E+01  0.32662742743E+01  0.98676737532E+02  0.47000000000E+01 0. -1.
        -11    1    3    3    0    0  0.51975216740E+02 -0.27857152672E+02 -0.58593143869E+02  0.83130022366E+02  0.00000000000E+00 0.  1.
         11    1    3    3    0    0  0.18461140404E+02  0.30455004328E+02  0.16350132574E+02  0.39187342712E+02  0.00000000000E+00 0. -1.
<mgrwt>
<rscale>  0 0.13570550E+03</rscale>
<asrwt>0</asrwt>
<pdfrwt beam="1">  1        1 0.14693915E-01 0.14349171E+03</pdfrwt>
<pdfrwt beam="2">  1       -1 0.26934160E-01 0.14349171E+03</pdfrwt>
<totfact> 0.45128625E+03</totfact>
</mgrwt>
</event>
<event>
 8    1  0.1273312E-005  0.2134429E+03  0.7546771E-02  0.1142361E+00
         -1   -1    0    0    0  501 -0.00000000000E+00  0.00000000000E+00  0.12828598816E+03  0.12828598816E+03  0.00000000000E+00 0.  1.
          1   -1    0    0  501    0  0.00000000000E+00 -0.00000000000E+00 -0.33918460038E+03  0.33918460038E+03  0.00000000000E+00 0. -1.
         23    2    1    2    0    0  0.15458699177E+03 -0.77685071219E+02 -0.56984269147E+02  0.20432140546E+03  0.92563067600E+02 0.  0.
         23    2    1    2    0    0 -0.15458699177E+03  0.77685071219E+02 -0.15391434307E+03  0.26314918309E+03  0.12500303693E+03 0.  0.
          5    1    4    4  502    0 -0.71437589044E+02 -0.10900752564E+02 -0.74583215713E+01  0.72800220437E+02  0.47000000000E+01 0.  1.
         -5    1    4    4    0  502 -0.83149402726E+02  0.88585823783E+02 -0.14645602150E+03  0.19034896265E+03  0.47000000000E+01 0.  1.
        -11    1    3    3    0    0  0.70509365387E+02  0.35545523222E+01  0.71701310529E+01  0.70962075990E+02  0.00000000000E+00 0.  1.
         11    1    3    3    0    0  0.84077626383E+02 -0.81239623541E+02 -0.64154400199E+02  0.13335932947E+03  0.00000000000E+00 0. -1.
<mgrwt>
<rscale>  0 0.20899885E+03</rscale>
<asrwt>0</asrwt>
<pdfrwt beam="2">  1        1 0.52182246E-01 0.21344289E+03</pdfrwt>
<pdfrwt beam="1">  1       -1 0.19736306E-01 0.21344289E+03</pdfrwt>
<totfact> 0.15361258E+03</totfact>
</mgrwt>
</event>
<event>
 8    1  0.1273312E-005  0.2253239E+03  0.7546771E-02  0.1133176E+00
         -1   -1    0    0    0  501 -0.00000000000E+00  0.00000000000E+00  0.30703479512E+03  0.30703479512E+03  0.00000000000E+00 0.  1.
          1   -1    0    0  501    0  0.00000000000E+00 -0.00000000000E+00 -0.15949024649E+03  0.15949024649E+03  0.00000000000E+00 0. -1.
         23    2    1    2    0    0 -0.43245654448E+02  0.18241563254E+03  0.11755603632E+03  0.23921426595E+03  0.90875704889E+02 0.  0.
         23    2    1    2    0    0  0.43245654448E+02 -0.18241563254E+03  0.29988512308E+02  0.22731077566E+03  0.12500091295E+03 0.  0.
          5    1    4    4  502    0 -0.28180509942E+02 -0.65373518251E+02  0.52103428041E+02  0.88344186242E+02  0.47000000000E+01 0.  1.
         -5    1    4    4    0  502  0.71426164390E+02 -0.11704211428E+03 -0.22114915733E+02  0.13896658941E+03  0.47000000000E+01 0.  1.
        -11    1    3    3    0    0 -0.41456783768E+02  0.67129502353E+02  0.91848028985E+02  0.12108301051E+03  0.00000000000E+00 0.  1.
         11    1    3    3    0    0 -0.17888706803E+01  0.11528613018E+03  0.25708007331E+02  0.11813125544E+03  0.00000000000E+00 0. -1.
<mgrwt>
<rscale>  0 0.22095141E+03</rscale>
<asrwt>0</asrwt>
<pdfrwt beam="2">  1        1 0.24536961E-01 0.22532394E+03</pdfrwt>
<pdfrwt beam="1">  1       -1 0.47236122E-01 0.22532394E+03</pdfrwt>
<totfact> 0.89393235E+02</totfact>
</mgrwt>
</event>
<event>
 8    1  0.1273312E-005  0.1505725E+03  0.7546771E-02  0.1208434E+00
         -1   -1    0    0    0  501 -0.00000000000E+00  0.00000000000E+00  0.28405543260E+03  0.28405543260E+03  0.00000000000E+00 0.  1.
          1   -1    0    0  501    0  0.00000000000E+00 -0.00000000000E+00 -0.68475474734E+02  0.68475474734E+02  0.00000000000E+00 0. -1.
         23    2    1    2    0    0  0.19610076977E+02 -0.81617274871E+02  0.12551509046E+03  0.17707793073E+03  0.92502005065E+02 0.  0.
         23    2    1    2    0    0 -0.19610076977E+02  0.81617274871E+02  0.90064867408E+02  0.17545297661E+03  0.12500452785E+03 0.  0.
          5    1    4    4  502    0  0.46898583731E+01  0.69369145542E+01  0.96070538378E+02  0.96549230444E+02  0.47000000000E+01 0.  1.
         -5    1    4    4    0  502 -0.24299935350E+02  0.74680360317E+02 -0.60056709693E+01  0.78903746165E+02  0.47000000000E+01 0.  1.
        -11    1    3    3    0    0 -0.37037509261E+02 -0.25926905381E+02  0.51108830584E+02  0.68235577806E+02  0.00000000000E+00 0.  1.
         11    1    3    3    0    0  0.56647586238E+02 -0.55690369490E+02  0.74406259876E+02  0.10884235292E+03  0.00000000000E+00 0. -1.
<mgrwt>
<rscale>  0 0.14370062E+03</rscale>
<asrwt>0</asrwt>
<pdfrwt beam="2">  1        1 0.10534689E-01 0.15057246E+03</pdfrwt>
<pdfrwt beam="1">  1       -1 0.43700835E-01 0.15057246E+03</pdfrwt>
<totfact> 0.30503747E+03</totfact>
</mgrwt>
</event>
<event>
 8    1  0.1273312E-005  0.1420190E+03  0.7546771E-02  0.1222250E+00
         -1   -1    0    0    0  501 -0.00000000000E+00  0.00000000000E+00  0.77800013565E+02  0.77800013565E+02  0.00000000000E+00 0.  1.
          1   -1    0    0  501    0  0.00000000000E+00 -0.00000000000E+00 -0.20638051415E+03  0.20638051415E+03  0.00000000000E+00 0. -1.
         23    2    1    2    0    0  0.44167364159E+02 -0.50887976366E+02 -0.63119983561E+02  0.12780126613E+03  0.88366787343E+02 0.  0.
         23    2    1    2    0    0 -0.44167364159E+02  0.50887976366E+02 -0.65460517023E+02  0.15637926158E+03  0.12501620682E+03 0.  0.
          5    1    4    4  502    0  0.42851846170E+02  0.28912257450E+02 -0.28357463295E+02  0.59147570327E+02  0.47000000000E+01 0. -1.
         -5    1    4    4    0  502 -0.87019210329E+02  0.21975718916E+02 -0.37103053728E+02  0.97231691254E+02  0.47000000000E+01 0. -1.
        -11    1    3    3    0    0  0.36669722260E+02 -0.41793082177E+02 -0.85800852961E+02  0.10224048424E+03  0.00000000000E+00 0. -1.
         11    1    3    3    0    0  0.74976418985E+01 -0.90948941884E+01  0.22680869400E+02  0.25560781895E+02  0.00000000000E+00 0.  1.
<mgrwt>
<rscale>  0 0.13357154E+03</rscale>
<asrwt>0</asrwt>
<pdfrwt beam="2">  1        1 0.31750848E-01 0.14201899E+03</pdfrwt>
<pdfrwt beam="1">  1       -1 0.11969233E-01 0.14201899E+03</pdfrwt>
<totfact> 0.61899460E+03</totfact>
</mgrwt>
</event>
<event>
 8    1  0.1273312E-005  0.1296745E+03  0.7546771E-02  0.1242481E+00
          3   -1    0    0  501    0  0.00000000000E+00  0.00000000000E+00  0.31484235683E+03  0.31484235683E+03  0.00000000000E+00 0. -1.
         -3   -1    0    0    0  501 -0.00000000000E+00 -0.00000000000E+00 -0.41359651065E+02  0.41359651065E+02  0.00000000000E+00 0.  1.
         23    2    1    2    0    0 -0.32061077840E+02 -0.12739885988E+02  0.92186869715E+02  0.13330372099E+03  0.89895748925E+02 0.  0.
         23    2    1    2    0    0  0.32061077840E+02  0.12739885988E+02  0.18129583604E+03  0.22289828690E+03  0.12500099491E+03 0.  0.
          5    1    4    4  502    0  0.51580002441E+02  0.56577937205E+00  0.19069722293E+03  0.19760652214E+03  0.47000000000E+01 0. -1.
         -5    1    4    4    0  502 -0.19518924601E+02  0.12174106616E+02 -0.94013868848E+01  0.25291764763E+02  0.47000000000E+01 0. -1.
        -11    1    3    3    0    0  0.73792107918E+00  0.33523433483E+02  0.58257717053E+02  0.67218499807E+02  0.00000000000E+00 0. -1.
         11    1    3    3    0    0 -0.32798998919E+02 -0.46263319471E+02  0.33929152662E+02  0.66085221184E+02  0.00000000000E+00 0.  1.
<mgrwt>
<rscale>  0 0.12037447E+03</rscale>
<asrwt>0</asrwt>
<pdfrwt beam="1">  1        3 0.48437284E-01 0.12967446E+03</pdfrwt>
<pdfrwt beam="2">  1       -3 0.63630234E-02 0.12967446E+03</pdfrwt>
<totfact> 0.15047162E+03</totfact>
</mgrwt>
</event>
<event>
 8    1  0.1273312E-005  0.1324787E+03  0.7546771E-02  0.1235860E+00
         -3   -1    0    0    0  501 -0.00000000000E+00  0.00000000000E+00  0.20487823317E+02  0.20487823317E+02  0.00000000000E+00 0.  1.
          3   -1    0    0  501    0  0.00000000000E+00 -0.00000000000E+00 -0.81809069067E+03  0.81809069067E+03  0.00000000000E+00 0. -1.
         23    2    1    2    0    0 -0.43724652423E+02  0.35808904563E+01 -0.18577271719E+03  0.21256994680E+03  0.93540428822E+02 0.  0.
         23    2    1    2    0    0  0.43724652423E+02 -0.35808904563E+01 -0.61183015016E+03  0.62600856719E+03  0.12500370210E+03 0.  0.
          5    1    4    4  502    0 -0.17842451757E+02 -0.19088870375E+02 -0.27512956481E+02  0.38233373265E+02  0.47000000000E+01 0. -1.
         -5    1    4    4    0  502  0.61567104180E+02  0.15507979919E+02 -0.58431719368E+03  0.58777519392E+03  0.47000000000E+01 0. -1.
        -11    1    3    3    0    0 -0.67826547701E+02 -0.23236188963E+01 -0.84908749051E+02  0.10869836909E+03  0.00000000000E+00 0.  1.
         11    1    3    3    0    0  0.24101895279E+02  0.59045093526E+01 -0.10086396814E+03  0.10387157771E+03  0.00000000000E+00 0. -1.
<mgrwt>
<rscale>  0 0.12449525E+03</rscale>
<asrwt>0</asrwt>
<pdfrwt beam="2">  1        3 0.12586010E+00 0.13247865E+03</pdfrwt>
<pdfrwt beam="1">  1       -3 0.31519729E-02 0.13247865E+03</pdfrwt>
<totfact> 0.57710887E+02</totfact>
</mgrwt>
</event>
<event>
 8    1  0.1273312E-005  0.1894127E+03  0.7546771E-02  0.1164459E+00
         -2   -1    0    0    0  501 -0.00000000000E+00  0.00000000000E+00  0.69659745350E+02  0.69659745350E+02  0.00000000000E+00 0.  1.
          2   -1    0    0  501    0  0.00000000000E+00 -0.00000000000E+00 -0.55936856119E+03  0.55936856119E+03  0.00000000000E+00 0. -1.
         23    2    1    2    0    0  0.10526081791E+03 -0.95773796174E+02 -0.96906935697E+02  0.19294291005E+03  0.87083595079E+02 0.  0.
         23    2    1    2    0    0 -0.10526081791E+03  0.95773796174E+02 -0.39280188014E+03  0.43608539649E+03  0.12499878468E+03 0.  0.
          5    1    4    4  502    0 -0.44347422640E+02  0.11498122888E+03 -0.28754547724E+03  0.31287676228E+03  0.47000000000E+01 0. -1.
         -5    1    4    4    0  502 -0.60913395265E+02 -0.19207432707E+02 -0.10525640290E+03  0.12320863422E+03  0.47000000000E+01 0. -1.
        -11    1    3    3    0    0  0.28071161392E+01 -0.46121321234E+02 -0.47170421242E+01  0.46446815389E+02  0.00000000000E+00 0.  1.
         11    1    3    3    0    0  0.10245370177E+03 -0.49652474940E+02 -0.92189893573E+02  0.14649609466E+03  0.00000000000E+00 0. -1.
<mgrwt>
<rscale>  0 0.18349855E+03</rscale>
<asrwt>0</asrwt>
<pdfrwt beam="2">  1        2 0.86056701E-01 0.18941266E+03</pdfrwt>
<pdfrwt beam="1">  1       -2 0.10716884E-01 0.18941266E+03</pdfrwt>
<totfact> 0.32050623E+03</totfact>
</mgrwt>
</event>
<event>
 8    1  0.1273312E-005  0.1326808E+03  0.7546771E-02  0.1231087E+00
         -1   -1    0    0    0  501 -0.00000000000E+00  0.00000000000E+00  0.75662014358E+02  0.75662014358E+02  0.00000000000E+00 0.  1.
          1   -1    0    0  501    0  0.00000000000E+00 -0.00000000000E+00 -0.20379919030E+03  0.20379919030E+03  0.00000000000E+00 0. -1.
         23    2    1    2    0    0  0.52734932991E+02  0.16848214695E+02 -0.40485070727E+02  0.12044205264E+03  0.99007129014E+02 0.  0.
         23    2    1    2    0    0 -0.52734932991E+02 -0.16848214695E+02 -0.87652105211E+02  0.15901915202E+03  0.12057928373E+03 0.  0.
          5    1    4    4  502    0 -0.89443403575E+02  0.66982853810E+00 -0.46310526912E+02  0.10083315931E+03  0.47000000000E+01 0. -1.
         -5    1    4    4    0  502  0.36708470584E+02 -0.17518043234E+02 -0.41341578299E+02  0.58185992710E+02  0.47000000000E+01 0.  1.
        -11    1    3    3    0    0  0.80187687642E+02  0.73273004106E+01 -0.15242087605E+02  0.81951667556E+02  0.00000000000E+00 0.  1.
         11    1    3    3    0    0 -0.27452754651E+02  0.95209142848E+01 -0.25242983122E+02  0.38490385081E+02  0.00000000000E+00 0. -1.
<mgrwt>
<rscale>  0 0.12758271E+03</rscale>
<asrwt>0</asrwt>
<pdfrwt beam="2">  1        1 0.31353721E-01 0.13268082E+03</pdfrwt>
<pdfrwt beam="1">  1       -1 0.11640310E-01 0.13268082E+03</pdfrwt>
<totfact> 0.65346041E+03</totfact>
</mgrwt>
</event>
<event>
 8    1  0.1273312E-005  0.1182894E+03  0.7546771E-02  0.1254887E+00
          2   -1    0    0  501    0  0.00000000000E+00  0.00000000000E+00  0.42344044431E+03  0.42344044431E+03  0.00000000000E+00 0. -1.
         -2   -1    0    0    0  501 -0.00000000000E+00 -0.00000000000E+00 -0.30802761600E+02  0.30802761600E+02  0.00000000000E+00 0.  1.
         23    2    1    2    0    0  0.36907520041E+02  0.10184514359E+02  0.11059722192E+03  0.14840140772E+03  0.91243317277E+02 0.  0.
         23    2    1    2    0    0 -0.36907520041E+02 -0.10184514359E+02  0.28204046080E+03  0.30584179820E+03  0.11192182375E+03 0.  0.
          5    1    4    4  502    0 -0.21131556625E+02 -0.45564061111E+02  0.25089103031E+03  0.25591214399E+03  0.47000000000E+01 0. -1.
         -5    1    4    4    0  502 -0.15775963416E+02  0.35379546752E+02  0.31149430487E+02  0.49929654212E+02  0.47000000000E+01 0.  1.
        -11    1    3    3    0    0  0.53628014476E+02  0.23033100696E+01  0.22191462674E+02  0.58083820377E+02  0.00000000000E+00 0.  1.
         11    1    3    3    0    0 -0.16720494435E+02  0.78812042895E+01  0.88405759245E+02  0.90317587340E+02  0.00000000000E+00 0. -1.
<mgrwt>
<rscale>  0 0.11312642E+03</rscale>
<asrwt>0</asrwt>
<pdfrwt beam="1">  1        2 0.65144679E-01 0.11828941E+03</pdfrwt>
<pdfrwt beam="2">  1       -2 0.47388867E-02 0.11828941E+03</pdfrwt>
<totfact> 0.14855279E+04</totfact>
</mgrwt>
</event>
<event>
 8    1  0.1273312E-005  0.1252186E+03  0.7546771E-02  0.1250571E+00
          3   -1    0    0  501    0  0.00000000000E+00  0.00000000000E+00  0.36342969804E+03  0.36342969804E+03  0.00000000000E+00 0. -1.
         -3   -1    0    0    0  501 -0.00000000000E+00 -0.00000000000E+00 -0.33316835774E+02  0.33316835774E+02  0.00000000000E+00 0.  1.
         23    2    1    2    0    0 -0.15996712407E+01 -0.73244954684E+01  0.10276118632E+03  0.13719215832E+03  0.90584875714E+02 0.  0.
         23    2    1    2    0    0  0.15996712407E+01  0.73244954684E+01  0.22735167595E+03  0.25955437550E+03  0.12499392826E+03 0.  0.
          5    1    4    4  502    0 -0.36297677069E+02  0.53305500925E+02  0.13259834227E+03  0.14752426296E+03  0.47000000000E+01 0. -1.
         -5    1    4    4    0  502  0.37897348310E+02 -0.45981005457E+02  0.94753333681E+02  0.11203011254E+03  0.47000000000E+01 0. -1.
        -11    1    3    3    0    0  0.22918977646E+02  0.19190982636E+02  0.17779940969E+01  0.29945527444E+02  0.00000000000E+00 0.  1.
         11    1    3    3    0    0 -0.24518648886E+02 -0.26515478105E+02  0.10098319222E+03  0.10724663087E+03  0.00000000000E+00 0. -1.
<mgrwt>
<rscale>  0 0.11558090E+03</rscale>
<asrwt>0</asrwt>
<pdfrwt beam="1">  1        3 0.55912259E-01 0.12521857E+03</pdfrwt>
<pdfrwt beam="2">  1       -3 0.51256673E-02 0.12521857E+03</pdfrwt>
<totfact> 0.15821417E+03</totfact>
</mgrwt>
</event>
<event>
 8    1  0.1273312E-005  0.4590478E+03  0.7546771E-02  0.1025638E+00
         -2   -1    0    0    0  501 -0.00000000000E+00  0.00000000000E+00  0.14857495797E+03  0.14857495797E+03  0.00000000000E+00 0.  1.
          2   -1    0    0  501    0  0.00000000000E+00 -0.00000000000E+00 -0.30763156511E+04  0.30763156511E+04  0.00000000000E+00 0. -1.
         23    2    1    2    0    0  0.19921797563E+03  0.39422331307E+03 -0.26570773246E+03  0.52356790749E+03  0.91776534484E+02 0.  0.
         23    2    1    2    0    0 -0.19921797563E+03 -0.39422331307E+03 -0.26620329607E+04  0.27013227016E+04  0.12500012781E+03 0.  0.
          5    1    4    4  502    0 -0.26589504779E+02 -0.27580439220E+01 -0.92108001929E+02  0.96023864690E+02  0.47000000000E+01 0.  1.
         -5    1    4    4    0  502 -0.17262847085E+03 -0.39146526915E+03 -0.25699249588E+04  0.26052988369E+04  0.47000000000E+01 0.  1.
        -11    1    3    3    0    0  0.19768543049E+03  0.33852026637E+03 -0.20977045129E+03  0.44461122613E+03  0.00000000000E+00 0.  1.
         11    1    3    3    0    0  0.15325451453E+01  0.55703046706E+02 -0.55937281166E+02  0.78956681359E+02  0.00000000000E+00 0. -1.
<mgrwt>
<rscale>  0 0.45705665E+03</rscale>
<asrwt>0</asrwt>
<pdfrwt beam="2">  1        2 0.47327924E+00 0.45904777E+03</pdfrwt>
<pdfrwt beam="1">  1       -2 0.22857690E-01 0.45904777E+03</pdfrwt>
<totfact> 0.29525182E+01</totfact>
</mgrwt>
</event>
<event>
 8    1  0.1273312E-005  0.1928365E+03  0.7546771E-02  0.1160858E+00
          2   -1    0    0  501    0  0.00000000000E+00  0.00000000000E+00  0.70931482209E+03  0.70931482209E+03  0.00000000000E+00 0. -1.
         -2   -1    0    0    0  501 -0.00000000000E+00 -0.00000000000E+00 -0.50206370266E+02  0.50206370266E+02  0.00000000000E+00 0.  1.
         23    2    1    2    0    0  0.13886984460E+03  0.47715810416E+02  0.21426949851E+03  0.27468346214E+03  0.89319393630E+02 0.  0.
         23    2    1    2    0    0 -0.13886984460E+03 -0.47715810416E+02  0.44483895332E+03  0.48483773022E+03  0.12499719178E+03 0.  0.
          5    1    4    4  502    0 -0.94900421694E+01  0.48994882141E+01  0.21864146099E+03  0.21895260754E+03  0.47000000000E+01 0. -1.
         -5    1    4    4    0  502 -0.12937980243E+03 -0.52615298630E+02  0.22619749233E+03  0.26588512268E+03  0.47000000000E+01 0. -1.
        -11    1    3    3    0    0  0.68892952426E+02  0.66063492870E+02  0.91722693000E+02  0.13237702367E+03  0.00000000000E+00 0.  1.
         11    1    3    3    0    0  0.69976892173E+02 -0.18347682454E+02  0.12254680551E+03  0.14230643847E+03  0.00000000000E+00 0. -1.
<mgrwt>
<rscale>  0 0.18736676E+03</rscale>
<asrwt>0</asrwt>
<pdfrwt beam="1">  1        2 0.10912535E+00 0.19283654E+03</pdfrwt>
<pdfrwt beam="2">  1       -2 0.77240575E-02 0.19283654E+03</pdfrwt>
<totfact> 0.40660668E+03</totfact>
</mgrwt>
</event>
<event>
 7    1  0.1273312E-005  0.3654534E+03  0.7546771E-02  0.1056445E+00
          2   -1    0    0  501    0  0.00000000000E+00  0.00000000000E+00  0.12721188741E+04  0.12721188741E+04  0.00000000000E+00 0. -1.
         -2   -1    0    0    0  501 -0.00000000000E+00 -0.00000000000E+00 -0.26246799477E+02  0.26246799477E+02  0.00000000000E+00 0.  1.
         23    2    1    2    0    0 -0.55312489226E+02  0.16094360636E+02  0.87017249423E+03  0.88099014851E+03  0.12499988864E+03 0.  0.
          5    1    3    3  502    0 -0.81723359676E+02 -0.18315917441E+02  0.39441998877E+03  0.40324111632E+03  0.47000000000E+01 0. -1.
         -5    1    3    3    0  502  0.26410870451E+02  0.34410278076E+02  0.47575250545E+03  0.47774903219E+03  0.47000000000E+01 0. -1.
        -11    1    1    2    0    0 -0.29979469434E+02  0.47859707602E+02  0.23004746567E+03  0.23687793621E+03  0.00000000000E+00 0. -1.
         11    1    1    2    0    0  0.85291958660E+02 -0.63954068238E+02  0.14565211468E+03  0.18049758881E+03  0.00000000000E+00 0.  1.
<mgrwt>
<rscale>  0 0.36545341E+03</rscale>
<asrwt>0</asrwt>
<pdfrwt beam="1">  1        2 0.19571055E+00 0.36545341E+03</pdfrwt>
<pdfrwt beam="2">  1       -2 0.40379701E-02 0.36545341E+03</pdfrwt>
<totfact> 0.49458462E+03</totfact>
</mgrwt>
</event>
<event>
 8    1  0.1273312E-005  0.2020976E+03  0.7546771E-02  0.1152269E+00
         -2   -1    0    0    0  501 -0.00000000000E+00  0.00000000000E+00  0.12656081566E+04  0.12656081566E+04  0.00000000000E+00 0.  1.
          2   -1    0    0  501    0  0.00000000000E+00 -0.00000000000E+00 -0.30069039619E+02  0.30069039619E+02  0.00000000000E+00 0. -1.
         23    2    1    2    0    0 -0.62777609172E+02  0.14586169707E+03  0.47924152751E+03  0.51284294383E+03  0.90104275500E+02 0.  0.
         23    2    1    2    0    0  0.62777609172E+02 -0.14586169707E+03  0.75629758949E+03  0.78283425241E+03  0.12500703976E+03 0.  0.
          5    1    4    4  502    0  0.40120864919E+02 -0.16597044092E+03  0.66177251483E+03  0.68346237822E+03  0.47000000000E+01 0. -1.
         -5    1    4    4    0  502  0.22656744253E+02  0.20108743853E+02  0.94525074664E+02  0.99371874188E+02  0.47000000000E+01 0. -1.
        -11    1    3    3    0    0  0.15227071382E+02  0.58218898461E+02  0.22371456009E+03  0.23166680434E+03  0.00000000000E+00 0.  1.
         11    1    3    3    0    0 -0.78004680554E+02  0.87642798604E+02  0.25552696742E+03  0.28117613948E+03  0.00000000000E+00 0. -1.
<mgrwt>
<rscale>  0 0.19703078E+03</rscale>
<asrwt>0</asrwt>
<pdfrwt beam="2">  1        2 0.46260071E-02 0.20209756E+03</pdfrwt>
<pdfrwt beam="1">  1       -2 0.19470891E+00 0.20209756E+03</pdfrwt>
<totfact> 0.27065134E+02</totfact>
</mgrwt>
</event>
<event>
 8    1  0.1273312E-005  0.1270022E+03  0.7546771E-02  0.1244531E+00
          1   -1    0    0  501    0  0.00000000000E+00  0.00000000000E+00  0.21114538288E+02  0.21114538288E+02  0.00000000000E+00 0. -1.
         -1   -1    0    0    0  501 -0.00000000000E+00 -0.00000000000E+00 -0.65743088109E+03  0.65743088109E+03  0.00000000000E+00 0.  1.
         23    2    1    2    0    0 -0.21259378647E+02  0.72347112198E+01 -0.37961079108E+03  0.39214135035E+03  0.95740188672E+02 0.  0.
         23    2    1    2    0    0  0.21259378647E+02 -0.72347112198E+01 -0.25670555172E+03  0.28640406903E+03  0.12500099296E+03 0.  0.
          5    1    4    4  502    0  0.72420532833E+02 -0.22380685626E+01 -0.11973421667E+03  0.14002897974E+03  0.47000000000E+01 0.  1.
         -5    1    4    4    0  502 -0.51161154187E+02 -0.49966426572E+01 -0.13697133506E+03  0.14637508928E+03  0.47000000000E+01 0.  1.
        -11    1    3    3    0    0 -0.57665254804E+02 -0.13600820565E+01 -0.17872264197E+03  0.18780019752E+03  0.00000000000E+00 0. -1.
         11    1    3    3    0    0  0.36405876157E+02  0.85947932763E+01 -0.20088814911E+03  0.20434115284E+03  0.00000000000E+00 0.  1.
<mgrwt>
<rscale>  0 0.11913500E+03</rscale>
<asrwt>0</asrwt>
<pdfrwt beam="1">  1        1 0.32483903E-02 0.12700217E+03</pdfrwt>
<pdfrwt beam="2">  1       -1 0.10114322E+00 0.12700217E+03</pdfrwt>
<totfact> 0.28749179E+03</totfact>
</mgrwt>
</event>
<event>
 8    1  0.1273312E-005  0.1534655E+03  0.7546771E-02  0.1204725E+00
          4   -1    0    0  501    0  0.00000000000E+00  0.00000000000E+00  0.86710561966E+02  0.86710561966E+02  0.00000000000E+00 0.  1.
         -4   -1    0    0    0  501 -0.00000000000E+00 -0.00000000000E+00 -0.25216802561E+03  0.25216802561E+03  0.00000000000E+00 0. -1.
         23    2    1    2    0    0  0.34205645168E+02 -0.82193925521E+02 -0.12811962438E+03  0.18093629868E+03  0.91637538562E+02 0.  0.
         23    2    1    2    0    0 -0.34205645168E+02  0.82193925521E+02 -0.37337839264E+02  0.15794228890E+03  0.12500313927E+03 0.  0.
          5    1    4    4  502    0  0.46039072247E+02  0.43905668165E+02 -0.22708043641E+02  0.67712990750E+02  0.47000000000E+01 0.  1.
         -5    1    4    4    0  502 -0.80244717415E+02  0.38288257356E+02 -0.14629795623E+02  0.90229298148E+02  0.47000000000E+01 0.  1.
        -11    1    3    3    0    0 -0.89378383599E+00 -0.62730608740E+02 -0.20380195917E+02  0.65964236584E+02  0.00000000000E+00 0.  1.
         11    1    3    3    0    0  0.35099429004E+02 -0.19463316781E+02 -0.10773942846E+03  0.11497206209E+03  0.00000000000E+00 0. -1.
<mgrwt>
<rscale>  0 0.14659158E+03</rscale>
<asrwt>0</asrwt>
<pdfrwt beam="1">  1        4 0.13340086E-01 0.15346548E+03</pdfrwt>
<pdfrwt beam="2">  1       -4 0.38795081E-01 0.15346548E+03</pdfrwt>
<totfact> 0.50772501E+02</totfact>
</mgrwt>
</event>
<event>
 8    1  0.1273312E-005  0.4429801E+03  0.7546771E-02  0.1030508E+00
         -1   -1    0    0    0  501 -0.00000000000E+00  0.00000000000E+00  0.90224440445E+03  0.90224440445E+03  0.00000000000E+00 0.  1.
          1   -1    0    0  501    0  0.00000000000E+00 -0.00000000000E+00 -0.27366553783E+03  0.27366553783E+03  0.00000000000E+00 0. -1.
         23    2    1    2    0    0  0.41407842811E+03 -0.95628738570E+02  0.58815117209E+03  0.73108893065E+03  0.89238013329E+02 0.  0.
         23    2    1    2    0    0 -0.41407842811E+03  0.95628738570E+02  0.40427694530E+02  0.44482101162E+03  0.12500213452E+03 0.  0.
          5    1    4    4  502    0 -0.28113852723E+02 -0.24953962854E+02  0.10569876425E+02  0.39330665704E+02  0.47000000000E+01 0.  1.
         -5    1    4    4    0  502 -0.38596457538E+03  0.12058270142E+03  0.29857818105E+02  0.40549034592E+03  0.47000000000E+01 0.  1.
        -11    1    3    3    0    0  0.36714144698E+03 -0.10866138839E+03  0.54474353924E+03  0.66584207058E+03  0.00000000000E+00 0. -1.
         11    1    3    3    0    0  0.46936981127E+02  0.13032649822E+02  0.43407632858E+02  0.65246860070E+02  0.00000000000E+00 0.  1.
<mgrwt>
<rscale>  0 0.44078011E+03</rscale>
<asrwt>0</asrwt>
<pdfrwt beam="2">  1        1 0.42102391E-01 0.44298006E+03</pdfrwt>
<pdfrwt beam="1">  1       -1 0.13880683E+00 0.44298006E+03</pdfrwt>
<totfact> 0.44643687E+01</totfact>
</mgrwt>
</event>
<event>
 8    1  0.1273312E-005  0.1365070E+03  0.7546771E-02  0.1229998E+00
         -1   -1    0    0    0  501 -0.00000000000E+00  0.00000000000E+00  0.17201163811E+03  0.17201163811E+03  0.00000000000E+00 0.  1.
          1   -1    0    0  501    0  0.00000000000E+00 -0.00000000000E+00 -0.13725663162E+03  0.13725663162E+03  0.00000000000E+00 0. -1.
         23    2    1    2    0    0  0.45628105697E+02  0.30447514509E+02  0.11022381202E+03  0.15328847750E+03  0.91318636816E+02 0.  0.
         23    2    1    2    0    0 -0.45628105697E+02 -0.30447514509E+02 -0.75468805533E+02  0.15597979223E+03  0.12500071922E+03 0.  0.
          5    1    4    4  502    0  0.94917598225E+01 -0.36290700722E+02 -0.90734772994E+02  0.98295460189E+02  0.47000000000E+01 0. -1.
         -5    1    4    4    0  502 -0.55119865520E+02  0.58431862134E+01  0.15265967461E+02  0.57684332037E+02  0.47000000000E+01 0. -1.
        -11    1    3    3    0    0  0.17214832038E+02  0.57108957979E+02  0.36574734847E+02  0.69967812262E+02  0.00000000000E+00 0. -1.
         11    1    3    3    0    0  0.28413273659E+02 -0.26661443470E+02  0.73649077172E+02  0.83320665241E+02  0.00000000000E+00 0.  1.
<mgrwt>
<rscale>  0 0.12830140E+03</rscale>
<asrwt>0</asrwt>
<pdfrwt beam="2">  1        1 0.21116405E-01 0.13650698E+03</pdfrwt>
<pdfrwt beam="1">  1       -1 0.26463329E-01 0.13650698E+03</pdfrwt>
<totfact> 0.29107562E+03</totfact>
</mgrwt>
</event>
<event>
 8    1  0.1273312E-005  0.1428354E+03  0.7546771E-02  0.1219795E+00
          1   -1    0    0  501    0  0.00000000000E+00  0.00000000000E+00  0.50837688241E+03  0.50837688241E+03  0.00000000000E+00 0. -1.
         -1   -1    0    0    0  501 -0.00000000000E+00 -0.00000000000E+00 -0.36695913445E+02  0.36695913445E+02  0.00000000000E+00 0.  1.
         23    2    1    2    0    0  0.44941267412E+01 -0.68970551568E+02  0.12360173243E+03  0.16882673907E+03  0.91912705365E+02 0.  0.
         23    2    1    2    0    0 -0.44941267412E+01  0.68970551568E+02  0.34807923654E+03  0.37624605679E+03  0.12499922471E+03 0.  0.
          5    1    4    4  502    0 -0.43442922991E+02  0.36541559060E+02  0.30283258575E+03  0.30814321036E+03  0.47000000000E+01 0. -1.
         -5    1    4    4    0  502  0.38948796250E+02  0.32428992508E+02  0.45246650791E+02  0.68102846432E+02  0.47000000000E+01 0. -1.
        -11    1    3    3    0    0 -0.24172123060E+02 -0.39868496720E+02  0.11889143360E+03  0.12770654465E+03  0.00000000000E+00 0. -1.
         11    1    3    3    0    0  0.28666249801E+02 -0.29102054848E+02  0.47102988307E+01  0.41120194420E+02  0.00000000000E+00 0.  1.
<mgrwt>
<rscale>  0 0.13530118E+03</rscale>
<asrwt>0</asrwt>
<pdfrwt beam="1">  1        1 0.78211823E-01 0.14283536E+03</pdfrwt>
<pdfrwt beam="2">  1       -1 0.56455255E-02 0.14283536E+03</pdfrwt>
<totfact> 0.62333735E+03</totfact>
</mgrwt>
</event>
<event>
 8    1  0.1273312E-005  0.1351100E+03  0.7546771E-02  0.1229218E+00
          1   -1    0    0  501    0  0.00000000000E+00  0.00000000000E+00  0.15331436185E+03  0.15331436185E+03  0.00000000000E+00 0. -1.
         -1   -1    0    0    0  501 -0.00000000000E+00 -0.00000000000E+00 -0.10748118950E+03  0.10748118950E+03  0.00000000000E+00 0.  1.
         23    2    1    2    0    0  0.34454685379E+02  0.37981431193E+02 -0.14942114027E+02  0.11264576489E+03  0.99177049344E+02 0.  0.
         23    2    1    2    0    0 -0.34454685379E+02 -0.37981431193E+02  0.60775286373E+02  0.14814978646E+03  0.12500003734E+03 0.  0.
          5    1    4    4  502    0 -0.47525804022E+02 -0.62464408012E+02 -0.27391526889E+01  0.78677171236E+02  0.47000000000E+01 0.  1.
         -5    1    4    4    0  502  0.13071118643E+02  0.24482976819E+02  0.63514439062E+02  0.69472615223E+02  0.47000000000E+01 0.  1.
        -11    1    3    3    0    0 -0.14893538307E+02 -0.10361048499E+02 -0.36095103111E+02  0.40398332613E+02  0.00000000000E+00 0.  1.
         11    1    3    3    0    0  0.49348223686E+02  0.48342479692E+02  0.21152989084E+02  0.72247432279E+02  0.00000000000E+00 0. -1.
<mgrwt>
<rscale>  0 0.12881925E+03</rscale>
<asrwt>0</asrwt>
<pdfrwt beam="1">  1        1 0.23586825E-01 0.13511004E+03</pdfrwt>
<pdfrwt beam="2">  1       -1 0.16535568E-01 0.13511004E+03</pdfrwt>
<totfact> 0.54029952E+03</totfact>
</mgrwt>
</event>
<event>
 7    1  0.1273312E-005  0.2560812E+03  0.7546771E-02  0.1109521E+00
         -2   -1    0    0    0  501 -0.00000000000E+00  0.00000000000E+00  0.53357441120E+02  0.53357441120E+02  0.00000000000E+00 0.  1.
          2   -1    0    0  501    0  0.00000000000E+00 -0.00000000000E+00 -0.30725603204E+03  0.30725603204E+03  0.00000000000E+00 0. -1.
         23    2    1    2    0    0 -0.12586206135E+02  0.46171475557E+02 -0.73255308980E+02  0.12644218570E+03  0.91274685922E+02 0.  0.
          5    1    1    2  502    0  0.33881717282E+02 -0.86926870831E+02 -0.15589311597E+03  0.18173883802E+03  0.47000000000E+01 0. -1.
         -5    1    1    2    0  502 -0.21295511147E+02  0.40755395274E+02 -0.24750165971E+02  0.52432449442E+02  0.47000000000E+01 0.  1.
        -11    1    3    3    0    0  0.11894965723E+02 -0.19307416371E+02  0.31356484312E+01  0.22893204834E+02  0.00000000000E+00 0. -1.
         11    1    3    3    0    0 -0.24481171858E+02  0.65478891928E+02 -0.76390957411E+02  0.10354898086E+03  0.00000000000E+00 0.  1.
<mgrwt>
<rscale>  0 0.25608120E+03</rscale>
<asrwt>0</asrwt>
<pdfrwt beam="2">  1        2 0.47270158E-01 0.25608120E+03</pdfrwt>
<pdfrwt beam="1">  1       -2 0.82088373E-02 0.25608120E+03</pdfrwt>
<totfact> 0.95550166E+03</totfact>
</mgrwt>
</event>
<event>
 8    1  0.1273312E-005  0.1292655E+03  0.7546771E-02  0.1242630E+00
          1   -1    0    0  501    0  0.00000000000E+00  0.00000000000E+00  0.23743580137E+03  0.23743580137E+03  0.00000000000E+00 0. -1.
         -1   -1    0    0    0  501 -0.00000000000E+00 -0.00000000000E+00 -0.59560466301E+02  0.59560466301E+02  0.00000000000E+00 0.  1.
         23    2    1    2    0    0  0.21848277921E+02  0.24634746040E+02  0.31931382307E+02  0.10203677103E+03  0.91146428929E+02 0.  0.
         23    2    1    2    0    0 -0.21848277921E+02 -0.24634746040E+02  0.14594395276E+03  0.19495949663E+03  0.12500140007E+03 0.  0.
          5    1    4    4  502    0 -0.66420631506E+02 -0.40706377270E+02  0.11189802181E+03  0.13642568206E+03  0.47000000000E+01 0. -1.
         -5    1    4    4    0  502  0.44572353585E+02  0.16071631230E+02  0.34045930948E+02  0.58533814574E+02  0.47000000000E+01 0. -1.
        -11    1    3    3    0    0 -0.32693141605E+02 -0.26455135230E+01 -0.82983946925E+00  0.32810499590E+02  0.00000000000E+00 0.  1.
         11    1    3    3    0    0  0.54541419526E+02  0.27280259563E+02  0.32761221776E+02  0.69226271444E+02  0.00000000000E+00 0. -1.
<mgrwt>
<rscale>  0 0.12028351E+03</rscale>
<asrwt>0</asrwt>
<pdfrwt beam="1">  1        1 0.36528585E-01 0.12926549E+03</pdfrwt>
<pdfrwt beam="2">  1       -1 0.91631487E-02 0.12926549E+03</pdfrwt>
<totfact> 0.77810669E+03</totfact>
</mgrwt>
</event>
<event>
 8    1  0.1273312E-005  0.1510811E+03  0.7546771E-02  0.1207567E+00
         -4   -1    0    0    0  501 -0.00000000000E+00  0.00000000000E+00  0.30011816586E+02  0.30011816586E+02  0.00000000000E+00 0.  1.
          4   -1    0    0  501    0  0.00000000000E+00 -0.00000000000E+00 -0.63987453753E+03  0.63987453753E+03  0.00000000000E+00 0. -1.
         23    2    1    2    0    0 -0.84136363038E+02 -0.10952291968E+02 -0.26830944514E+03  0.29641059123E+03  0.93114982474E+02 0.  0.
         23    2    1    2    0    0  0.84136363038E+02  0.10952291968E+02 -0.34155327581E+03  0.37347576288E+03  0.12500649968E+03 0.  0.
          5    1    4    4  502    0  0.93279642621E+02 -0.32261174482E+02 -0.17364437716E+03  0.19979072758E+03  0.47000000000E+01 0. -1.
         -5    1    4    4    0  502 -0.91432795833E+01  0.43213466451E+02 -0.16790889865E+03  0.17368503531E+03  0.47000000000E+01 0. -1.
        -11    1    3    3    0    0 -0.49751153417E+02 -0.43423257575E+02 -0.88117950831E+02  0.11011598351E+03  0.00000000000E+00 0.  1.
         11    1    3    3    0    0 -0.34385209621E+02  0.32470965607E+02 -0.18019149431E+03  0.18629460773E+03  0.00000000000E+00 0. -1.
<mgrwt>
<rscale>  0 0.14437012E+03</rscale>
<asrwt>0</asrwt>
<pdfrwt beam="2">  1        4 0.98442234E-01 0.15108112E+03</pdfrwt>
<pdfrwt beam="1">  1       -4 0.46172027E-02 0.15108112E+03</pdfrwt>
<totfact> 0.40902383E+02</totfact>
</mgrwt>
</event>
<event>
 8    1  0.1273312E-005  0.1315597E+03  0.7546771E-02  0.1238960E+00
          1   -1    0    0  501    0  0.00000000000E+00  0.00000000000E+00  0.18543714888E+03  0.18543714888E+03  0.00000000000E+00 0. -1.
         -1   -1    0    0    0  501 -0.00000000000E+00 -0.00000000000E+00 -0.72245406559E+02  0.72245406559E+02  0.00000000000E+00 0.  1.
         23    2    1    2    0    0 -0.59668865088E+01 -0.40572851509E+02  0.59896704989E+02  0.11573777169E+03  0.90143532837E+02 0.  0.
         23    2    1    2    0    0  0.59668865088E+01  0.40572851509E+02  0.53295037335E+02  0.14194478376E+03  0.12500480238E+03 0.  0.
          5    1    4    4  502    0  0.35590968530E+02 -0.33061795551E+02  0.53466488986E+01  0.49096598868E+02  0.47000000000E+01 0.  1.
         -5    1    4    4    0  502 -0.29624082021E+02  0.73634647060E+02  0.47948388436E+02  0.92848184887E+02  0.47000000000E+01 0.  1.
        -11    1    3    3    0    0  0.37348876059E+02 -0.38451114466E+01  0.71310490786E+01  0.38217473567E+02  0.00000000000E+00 0.  1.
         11    1    3    3    0    0 -0.43315762568E+02 -0.36727740062E+02  0.52765655910E+02  0.77520298119E+02  0.00000000000E+00 0. -1.
<mgrwt>
<rscale>  0 0.12254276E+03</rscale>
<asrwt>0</asrwt>
<pdfrwt beam="1">  1        1 0.28528792E-01 0.13155972E+03</pdfrwt>
<pdfrwt beam="2">  1       -1 0.11114678E-01 0.13155972E+03</pdfrwt>
<totfact> 0.78842258E+03</totfact>
</mgrwt>
</event>
<event>
 8    1  0.1273312E-005  0.1546463E+03  0.7546771E-02  0.1203228E+00
         -1   -1    0    0    0  501 -0.00000000000E+00  0.00000000000E+00  0.10528178528E+03  0.10528178528E+03  0.00000000000E+00 0.  1.
          1   -1    0    0  501    0  0.00000000000E+00 -0.00000000000E+00 -0.24052487722E+03  0.24052487722E+03  0.00000000000E+00 0. -1.
         23    2    1    2    0    0  0.77581458023E+02  0.47665352257E+02  0.15454595693E+02  0.12987780452E+03  0.91315558058E+02 0.  0.
         23    2    1    2    0    0 -0.77581458023E+02 -0.47665352257E+02 -0.15069768764E+03  0.21592885798E+03  0.12499844085E+03 0.  0.
          5    1    4    4  502    0 -0.95214891911E+02 -0.59322584503E+02 -0.15732495643E+03  0.19328289264E+03  0.47000000000E+01 0.  1.
         -5    1    4    4    0  502  0.17633433888E+02  0.11657232246E+02  0.66272687931E+01  0.22645965335E+02  0.47000000000E+01 0.  1.
        -11    1    3    3    0    0  0.35673604399E+02  0.62256134599E+02  0.36796117502E+02  0.80637377246E+02  0.00000000000E+00 0. -1.
         11    1    3    3    0    0  0.41907853624E+02 -0.14590782342E+02 -0.21341521808E+02  0.49240427271E+02  0.00000000000E+00 0.  1.
<mgrwt>
<rscale>  0 0.14777951E+03</rscale>
<asrwt>0</asrwt>
<pdfrwt beam="2">  1        1 0.37003827E-01 0.15464630E+03</pdfrwt>
<pdfrwt beam="1">  1       -1 0.16197198E-01 0.15464630E+03</pdfrwt>
<totfact> 0.32052963E+03</totfact>
</mgrwt>
</event>
<event>
 8    1  0.1273312E-005  0.1420013E+03  0.7546771E-02  0.1220437E+00
         -2   -1    0    0    0  501 -0.00000000000E+00  0.00000000000E+00  0.22265070104E+02  0.22265070104E+02  0.00000000000E+00 0.  1.
          2   -1    0    0  501    0  0.00000000000E+00 -0.00000000000E+00 -0.77213835954E+03  0.77213835954E+03  0.00000000000E+00 0. -1.
         23    2    1    2    0    0  0.56431020616E+02  0.36821165116E+02 -0.26273440578E+03  0.28698972860E+03  0.93773546654E+02 0.  0.
         23    2    1    2    0    0 -0.56431020616E+02 -0.36821165116E+02 -0.48713888366E+03  0.50741370105E+03  0.12499645495E+03 0.  0.
          5    1    4    4  502    0 -0.41910554888E+02 -0.73303903095E+02 -0.42796972737E+03  0.43624549781E+03  0.47000000000E+01 0.  1.
         -5    1    4    4    0  502 -0.14520465728E+02  0.36482737978E+02 -0.59169156293E+02  0.71168203235E+02  0.47000000000E+01 0.  1.
        -11    1    3    3    0    0  0.53516985583E+02 -0.19831511692E+02 -0.15607788700E+03  0.16618562938E+03  0.00000000000E+00 0. -1.
         11    1    3    3    0    0  0.29140350327E+01  0.56652676808E+02 -0.10665651878E+03  0.12080409921E+03  0.00000000000E+00 0.  1.
<mgrwt>
<rscale>  0 0.13484606E+03</rscale>
<asrwt>0</asrwt>
<pdfrwt beam="2">  1        2 0.11879052E+00 0.14200131E+03</pdfrwt>
<pdfrwt beam="1">  1       -2 0.34253953E-02 0.14200131E+03</pdfrwt>
<totfact> 0.12355177E+04</totfact>
</mgrwt>
</event>
<event>
 8    1  0.1273312E-005  0.1262402E+03  0.7546771E-02  0.1244222E+00
          1   -1    0    0  501    0  0.00000000000E+00  0.00000000000E+00  0.18385225147E+03  0.18385225147E+03  0.00000000000E+00 0. -1.
         -1   -1    0    0    0  501 -0.00000000000E+00 -0.00000000000E+00 -0.99070537653E+02  0.99070537653E+02  0.00000000000E+00 0.  1.
         23    2    1    2    0    0  0.28857361134E+02  0.60732868122E+01 -0.37174448430E+02  0.10739528399E+03  0.96344046538E+02 0.  0.
         23    2    1    2    0    0 -0.28857361134E+02 -0.60732868122E+01  0.12195616225E+03  0.17552750513E+03  0.12274757612E+03 0.  0.
          5    1    4    4  502    0 -0.21296425204E+02  0.13030070560E+02  0.14329825968E+03  0.14553281998E+03  0.47000000000E+01 0. -1.
         -5    1    4    4    0  502 -0.75609359304E+01 -0.19103357372E+02 -0.21342097425E+02  0.29994685155E+02  0.47000000000E+01 0.  1.
        -11    1    3    3    0    0  0.24500421987E+01  0.49660905565E+02 -0.16330569409E+02  0.52334460401E+02  0.00000000000E+00 0.  1.
         11    1    3    3    0    0  0.26407318936E+02 -0.43587618752E+02 -0.20843879021E+02  0.55060823591E+02  0.00000000000E+00 0. -1.
<mgrwt>
<rscale>  0 0.11932084E+03</rscale>
<asrwt>0</asrwt>
<pdfrwt beam="1">  1        1 0.28284962E-01 0.12624025E+03</pdfrwt>
<pdfrwt beam="2">  1       -1 0.15241621E-01 0.12624025E+03</pdfrwt>
<totfact> 0.48716867E+03</totfact>
</mgrwt>
</event>
<event>
 8    1  0.1273312E-005  0.2077194E+03  0.7546771E-02  0.1147414E+00
         -2   -1    0    0    0  501 -0.00000000000E+00  0.00000000000E+00  0.23160443579E+02  0.23160443579E+02  0.00000000000E+00 0.  1.
          2   -1    0    0  501    0  0.00000000000E+00 -0.00000000000E+00 -0.17007407995E+04  0.17007407995E+04  0.00000000000E+00 0. -1.
         23    2    1    2    0    0  0.11518883039E+03  0.11939152120E+03 -0.84431024724E+03  0.86513095596E+03  0.89827475611E+02 0.  0.
         23    2    1    2    0    0 -0.11518883039E+03 -0.11939152120E+03 -0.83327010866E+03  0.85877028710E+03  0.12499812017E+03 0.  0.
          5    1    4    4  502    0  0.18398434208E+02 -0.54399366092E+02 -0.28118605815E+03  0.28702871409E+03  0.47000000000E+01 0.  1.
         -5    1    4    4    0  502 -0.13358726460E+03 -0.64992155106E+02 -0.55208405051E+03  0.57174157302E+03  0.47000000000E+01 0.  1.
        -11    1    3    3    0    0  0.96841370479E+02  0.43039769804E+02 -0.39287306226E+03  0.40691512121E+03  0.00000000000E+00 0.  1.
         11    1    3    3    0    0  0.18347459913E+02  0.76351751393E+02 -0.45143718499E+03  0.45821583475E+03  0.00000000000E+00 0. -1.
<mgrwt>
<rscale>  0 0.20278062E+03</rscale>
<asrwt>0</asrwt>
<pdfrwt beam="2">  1        2 0.26165240E+00 0.20771936E+03</pdfrwt>
<pdfrwt beam="1">  1       -2 0.35631455E-02 0.20771936E+03</pdfrwt>
<totfact> 0.34879683E+03</totfact>
</mgrwt>
</event>
