<event>
 8    1  0.6965441E-009  0.1298141E+03  0.7561462E-02  0.1227732E+00
          1   -1    0    0  501    0  0.00000000000E+00  0.00000000000E+00  0.67987701677E+03  0.67987701677E+03  0.00000000000E+00 0. -1.
         -1   -1    0    0    0  501 -0.00000000000E+00 -0.00000000000E+00 -0.28963795484E+02  0.28963795484E+02  0.00000000000E+00 0.  1.
         25    2    1    2    0    0  0.34422582311E+01 -0.89421825683E+02  0.29622714105E+03  0.33377543709E+03  0.12508961292E+03 0.  0.
         23    2    1    2    0    0 -0.34422582311E+01  0.89421825683E+02  0.35468608023E+03  0.37506537516E+03  0.82847498957E+02 0.  0.
          5    1    3    3  502    0 -0.75258584613E+01  0.23062500826E+02  0.13261185084E+03  0.13487732527E+03  0.41800000000E+01 0.  1.
         -5    1    3    3    0  502  0.10968116692E+02 -0.11248432651E+03  0.16361529022E+03  0.19889811182E+03  0.41800000000E+01 0.  1.
        -11    1    4    4    0    0  0.38991558561E+02  0.31566391279E+02  0.14162008020E+03  0.15024322219E+03  0.00000000000E+00 0. -1.
         11    1    4    4    0    0 -0.42433816792E+02  0.57855434404E+02  0.21306600003E+03  0.22482215297E+03  0.00000000000E+00 0.  1.
</event>
<event>
 8    1  0.6965441E-009  0.8493558E+02  0.7561462E-02  0.1315601E+00
         -4   -1    0    0    0  501 -0.00000000000E+00  0.00000000000E+00  0.27831963731E+03  0.27831963731E+03  0.00000000000E+00 0.  1.
          4   -1    0    0  501    0  0.00000000000E+00 -0.00000000000E+00 -0.52411814416E+02  0.52411814416E+02  0.00000000000E+00 0. -1.
         25    2    1    2    0    0 -0.50290388758E+02 -0.15794022360E+02  0.13639120530E+03  0.19241080978E+03  0.12506312204E+03 0.  0.
         23    2    1    2    0    0  0.50290388758E+02  0.15794022360E+02  0.89516617594E+02  0.13832064194E+03  0.91327984853E+02 0.  0.
          5    1    3    3  502    0  0.32643107356E+02 -0.69831851118E+01  0.13903605031E+01  0.33671097910E+02  0.41800000000E+01 0.  1.
         -5    1    3    3    0  502 -0.82933496114E+02 -0.88108372480E+01  0.13500084479E+03  0.15873971187E+03  0.41800000000E+01 0.  1.
        -11    1    4    4    0    0  0.21685448771E+02  0.73873393404E+01 -0.16473378235E+02  0.28217081022E+02  0.00000000000E+00 0. -1.
         11    1    4    4    0    0  0.28604939988E+02  0.84066830194E+01  0.10598999583E+03  0.11010356092E+03  0.00000000000E+00 0.  1.
</event>
<event>
 8    1  0.6965441E-009  0.1727777E+03  0.7561462E-02  0.1174982E+00
          1   -1    0    0  501    0  0.00000000000E+00  0.00000000000E+00  0.11571026251E+03  0.11571026251E+03  0.00000000000E+00 0. -1.
         -1   -1    0    0    0  501 -0.00000000000E+00 -0.00000000000E+00 -0.34462591854E+03  0.34462591854E+03  0.00000000000E+00 0.  1.
         25    2    1    2    0    0 -0.99019433091E+02  0.11802608324E+03 -0.44920994044E+02  0.20347537611E+03  0.12509727624E+03 0.  0.
         23    2    1    2    0    0  0.99019433091E+02 -0.11802608324E+03 -0.18399466198E+03  0.25686080494E+03  0.91588389133E+02 0.  0.
          5    1    3    3  502    0  0.23714309465E+02  0.12158683959E+02 -0.30468231583E+02  0.40693827601E+02  0.41800000000E+01 0.  1.
         -5    1    3    3    0  502 -0.12273374256E+03  0.10586739928E+03 -0.14452762461E+02  0.16278154851E+03  0.41800000000E+01 0.  1.
        -11    1    4    4    0    0  0.71285146340E+02 -0.10190111670E+03 -0.18706801090E+03  0.22463270104E+03  0.00000000000E+00 0.  1.
         11    1    4    4    0    0  0.27734286751E+02 -0.16124966540E+02  0.30733489235E+01  0.32228103902E+02  0.00000000000E+00 0. -1.
</event>
<event>
 8    1  0.6965441E-009  0.1027108E+03  0.7561462E-02  0.1274697E+00
         -1   -1    0    0    0  501 -0.00000000000E+00  0.00000000000E+00  0.57938681782E+02  0.57938681782E+02  0.00000000000E+00 0.  1.
          1   -1    0    0  501    0  0.00000000000E+00 -0.00000000000E+00 -0.23730598150E+03  0.23730598150E+03  0.00000000000E+00 0. -1.
         25    2    1    2    0    0  0.87009922948E+01 -0.43887482798E+02 -0.91223833347E+02  0.16111026495E+03  0.12503164114E+03 0.  0.
         23    2    1    2    0    0 -0.87009922948E+01  0.43887482798E+02 -0.88143466372E+02  0.13413439834E+03  0.90669442152E+02 0.  0.
          5    1    3    3  502    0  0.51188858111E+02 -0.18173316471E+02  0.29521832054E+01  0.54559659199E+02  0.41800000000E+01 0. -1.
         -5    1    3    3    0  502 -0.42487865816E+02 -0.25714166327E+02 -0.94176016552E+02  0.10655060575E+03  0.41800000000E+01 0. -1.
        -11    1    4    4    0    0 -0.28170667011E+02  0.65928204381E+02 -0.61923523155E+02  0.94734562503E+02  0.00000000000E+00 0.  1.
         11    1    4    4    0    0  0.19469674716E+02 -0.22040721583E+02 -0.26219943217E+02  0.39399835835E+02  0.00000000000E+00 0. -1.
</event>
<event>
 8    1  0.6965441E-009  0.1251027E+03  0.7561462E-02  0.1234909E+00
          2   -1    0    0  501    0  0.00000000000E+00  0.00000000000E+00  0.12372176972E+03  0.12372176972E+03  0.00000000000E+00 0. -1.
         -2   -1    0    0    0  501 -0.00000000000E+00 -0.00000000000E+00 -0.17550316226E+03  0.17550316226E+03  0.00000000000E+00 0.  1.
         25    2    1    2    0    0 -0.19797164615E+02  0.94450876651E+02 -0.19127064342E+02  0.15913548151E+03  0.12508141771E+03 0.  0.
         23    2    1    2    0    0  0.19797164615E+02 -0.94450876651E+02 -0.32654328196E+02  0.14008945048E+03  0.96155359492E+02 0.  0.
          5    1    3    3  502    0 -0.23503877162E+02 -0.20497676234E+02 -0.30081462391E+02  0.43531066518E+02  0.41800000000E+01 0. -1.
         -5    1    3    3    0  502  0.37067125469E+01  0.11494855288E+03  0.10954398049E+02  0.11560441499E+03  0.41800000000E+01 0. -1.
        -11    1    4    4    0    0  0.25881467244E+02 -0.33163869435E+02 -0.59528965718E+02  0.72893006126E+02  0.00000000000E+00 0.  1.
         11    1    4    4    0    0 -0.60843026283E+01 -0.61287007216E+02  0.26874637522E+02  0.67196444354E+02  0.00000000000E+00 0. -1.
</event>
<event>
 8    1  0.6965441E-009  0.2553246E+03  0.7561462E-02  0.1109985E+00
         -2   -1    0    0    0  501 -0.00000000000E+00  0.00000000000E+00  0.13887273939E+03  0.13887273939E+03  0.00000000000E+00 0.  1.
          2   -1    0    0  501    0  0.00000000000E+00 -0.00000000000E+00 -0.62888573462E+03  0.62888573462E+03  0.00000000000E+00 0. -1.
         25    2    1    2    0    0  0.23455257403E+02 -0.23737215921E+03 -0.42712939303E+03  0.50495788850E+03  0.12508900713E+03 0.  0.
         23    2    1    2    0    0 -0.23455257403E+02  0.23737215921E+03 -0.62883602198E+02  0.26280058550E+03  0.90631723182E+02 0.  0.
          5    1    3    3  502    0  0.59958271172E+02 -0.15108834957E+03 -0.19072496208E+03  0.25063153676E+03  0.41800000000E+01 0. -1.
         -5    1    3    3    0  502 -0.36503013770E+02 -0.86283809641E+02 -0.23640443094E+03  0.25432635174E+03  0.41800000000E+01 0. -1.
        -11    1    4    4    0    0  0.18501447299E+02  0.19034085646E+03 -0.56728581517E+02  0.19947450251E+03  0.00000000000E+00 0.  1.
         11    1    4    4    0    0 -0.41956704702E+02  0.47031302754E+02 -0.61550206811E+01  0.63326082997E+02  0.00000000000E+00 0. -1.
</event>
<event>
 8    1  0.6965441E-009  0.5937371E+02  0.7561462E-02  0.1400479E+00
         -1   -1    0    0    0  501 -0.00000000000E+00  0.00000000000E+00  0.75426753182E+02  0.75426753182E+02  0.00000000000E+00 0.  1.
          1   -1    0    0  501    0  0.00000000000E+00 -0.00000000000E+00 -0.16683325254E+03  0.16683325254E+03  0.00000000000E+00 0. -1.
         25    2    1    2    0    0 -0.16319239117E+02 -0.49776745096E+02 -0.34893125481E+02  0.14003562798E+03  0.12509358489E+03 0.  0.
         23    2    1    2    0    0  0.16319239117E+02  0.49776745096E+02 -0.56513373880E+02  0.10222437774E+03  0.67171571809E+02 0.  0.
          5    1    3    3  502    0 -0.30566593770E+01 -0.43500010622E+02  0.42570138968E+02  0.61084230554E+02  0.41800000000E+01 0.  1.
         -5    1    3    3    0  502 -0.13262579740E+02 -0.62767344741E+01 -0.77463264450E+02  0.78951397430E+02  0.41800000000E+01 0.  1.
        -11    1    4    4    0    0 -0.59550339824E+01  0.27661587426E+02 -0.63982309451E+02  0.69959715346E+02  0.00000000000E+00 0. -1.
         11    1    4    4    0    0  0.22274273099E+02  0.22115157670E+02  0.74689355703E+01  0.32264662394E+02  0.00000000000E+00 0.  1.
</event>
<event>
 8    1  0.6965441E-009  0.1339166E+03  0.7561462E-02  0.1221757E+00
         -1   -1    0    0    0  501 -0.00000000000E+00  0.00000000000E+00  0.84194154630E+02  0.84194154630E+02  0.00000000000E+00 0.  1.
          1   -1    0    0  501    0  0.00000000000E+00 -0.00000000000E+00 -0.48334796947E+03  0.48334796947E+03  0.00000000000E+00 0. -1.
         25    2    1    2    0    0  0.92177355373E+01 -0.82354530396E+02 -0.49879636627E-02  0.15004462113E+03  0.12508458330E+03 0.  0.
         23    2    1    2    0    0 -0.92177355373E+01  0.82354530396E+02 -0.39914882688E+03  0.41749750297E+03  0.90095192230E+02 0.  0.
          5    1    3    3  502    0  0.54734300648E+02 -0.44138901893E+01 -0.17955506735E+02  0.57924077171E+02  0.41800000000E+01 0. -1.
         -5    1    3    3    0  502 -0.45516565111E+02 -0.77940640207E+02  0.17950518771E+02  0.92120543960E+02  0.41800000000E+01 0. -1.
        -11    1    4    4    0    0 -0.49480123488E+02  0.53499604025E+02 -0.23616849187E+03  0.24715591598E+03  0.00000000000E+00 0.  1.
         11    1    4    4    0    0  0.40262387950E+02  0.28854926372E+02 -0.16298033501E+03  0.17034158700E+03  0.00000000000E+00 0. -1.
</event>
<event>
 8    1  0.6965441E-009  0.3186847E+03  0.7561462E-02  0.1076256E+00
         -1   -1    0    0    0  501 -0.00000000000E+00  0.00000000000E+00  0.10371968518E+03  0.10371968518E+03  0.00000000000E+00 0.  1.
          1   -1    0    0  501    0  0.00000000000E+00 -0.00000000000E+00 -0.11022468485E+04  0.11022468485E+04  0.00000000000E+00 0. -1.
         25    2    1    2    0    0  0.30227928376E+03 -0.86818321859E+02 -0.40237985951E+03  0.52580062820E+03  0.12508622179E+03 0.  0.
         23    2    1    2    0    0 -0.30227928376E+03  0.86818321859E+02 -0.59614730387E+03  0.68016590552E+03  0.91235216444E+02 0.  0.
          5    1    3    3  502    0  0.11773215892E+03 -0.58239674377E+02 -0.25861163714E+03  0.29008649086E+03  0.41800000000E+01 0.  1.
         -5    1    3    3    0  502  0.18454712485E+03 -0.28578647482E+02 -0.14376822236E+03  0.23571413734E+03  0.41800000000E+01 0.  1.
        -11    1    4    4    0    0 -0.64653629681E+02  0.42677173885E+02 -0.21823304065E+03  0.23157524270E+03  0.00000000000E+00 0.  1.
         11    1    4    4    0    0 -0.23762565408E+03  0.44141147973E+02 -0.37791426322E+03  0.44859066282E+03  0.00000000000E+00 0. -1.
</event>
<event>
 8    1  0.6965441E-009  0.1533503E+03  0.7561462E-02  0.1196416E+00
          1   -1    0    0  501    0  0.00000000000E+00  0.00000000000E+00  0.23535036730E+02  0.23535036730E+02  0.00000000000E+00 0. -1.
         -1   -1    0    0    0  501 -0.00000000000E+00 -0.00000000000E+00 -0.11189967619E+04  0.11189967619E+04  0.00000000000E+00 0.  1.
         25    2    1    2    0    0  0.11785430329E+03 -0.22535244298E+02 -0.55911953078E+03  0.58538000759E+03  0.12513045015E+03 0.  0.
         23    2    1    2    0    0 -0.11785430329E+03  0.22535244298E+02 -0.53634219435E+03  0.55715179100E+03  0.91420428396E+02 0.  0.
          5    1    3    3  502    0  0.39648212884E+02  0.50574700310E+02 -0.17030349907E+03  0.18207288456E+03  0.41800000000E+01 0.  1.
         -5    1    3    3    0  502  0.78206090408E+02 -0.73109944608E+02 -0.38881603170E+03  0.40330712303E+03  0.41800000000E+01 0.  1.
        -11    1    4    4    0    0 -0.66799034649E+02 -0.18886409387E+02 -0.39767779775E+03  0.40369101837E+03  0.00000000000E+00 0. -1.
         11    1    4    4    0    0 -0.51055268642E+02  0.41421653685E+02 -0.13866439661E+03  0.15346077263E+03  0.00000000000E+00 0.  1.
</event>
<event>
 8    1  0.6965441E-009  0.1143524E+03  0.7561462E-02  0.1252716E+00
         -2   -1    0    0    0  501 -0.00000000000E+00  0.00000000000E+00  0.28765600720E+02  0.28765600720E+02  0.00000000000E+00 0. -1.
          2   -1    0    0  501    0  0.00000000000E+00 -0.00000000000E+00 -0.51381372580E+03  0.51381372580E+03  0.00000000000E+00 0.  1.
         25    2    1    2    0    0  0.46268239254E+02 -0.21972105435E+02 -0.31249790127E+03  0.34047945393E+03  0.12509115422E+03 0.  0.
         23    2    1    2    0    0 -0.46268239254E+02  0.21972105435E+02 -0.17255022381E+03  0.20209987259E+03  0.91908951610E+02 0.  0.
          5    1    3    3  502    0 -0.11013964554E+02 -0.60137204074E+02 -0.19319271359E+03  0.20267877964E+03  0.41800000000E+01 0. -1.
         -5    1    3    3    0  502  0.57282203808E+02  0.38165098638E+02 -0.11930518768E+03  0.13780067429E+03  0.41800000000E+01 0. -1.
        -11    1    4    4    0    0  0.24071575423E+02  0.13551448833E+02 -0.20639700890E+02  0.34483035853E+02  0.00000000000E+00 0. -1.
         11    1    4    4    0    0 -0.70339814677E+02  0.84206566026E+01 -0.15191052292E+03  0.16761683674E+03  0.00000000000E+00 0.  1.
</event>
<event>
 8    1  0.6965441E-009  0.1087841E+03  0.7561462E-02  0.1262838E+00
          2   -1    0    0  501    0  0.00000000000E+00  0.00000000000E+00  0.35736459320E+03  0.35736459320E+03  0.00000000000E+00 0. -1.
         -2   -1    0    0    0  501 -0.00000000000E+00 -0.00000000000E+00 -0.48277634123E+02  0.48277634123E+02  0.00000000000E+00 0.  1.
         25    2    1    2    0    0  0.40716163087E+02 -0.37974248238E+02  0.25417885036E+03  0.28871099117E+03  0.12508916416E+03 0.  0.
         23    2    1    2    0    0 -0.40716163087E+02  0.37974248238E+02  0.54908108721E+02  0.11693123615E+03  0.86937702516E+02 0.  0.
          5    1    3    3  502    0  0.75928746378E+02 -0.58063915334E+02  0.18904104543E+03  0.21187397681E+03  0.41800000000E+01 0. -1.
         -5    1    3    3    0  502 -0.35212583291E+02  0.20089667096E+02  0.65137804927E+02  0.76837014367E+02  0.41800000000E+01 0. -1.
        -11    1    4    4    0    0 -0.34082072135E+02 -0.77342034116E+01 -0.10831312847E+02  0.36588562166E+02  0.00000000000E+00 0.  1.
         11    1    4    4    0    0 -0.66340909525E+01  0.45708451650E+02  0.65739421568E+02  0.80342673985E+02  0.00000000000E+00 0. -1.
</event>
<event>
 8    1  0.6965441E-009  0.1105539E+03  0.7561462E-02  0.1259548E+00
          3   -1    0    0  501    0  0.00000000000E+00  0.00000000000E+00  0.30050326178E+03  0.30050326178E+03  0.00000000000E+00 0. -1.
         -3   -1    0    0    0  501 -0.00000000000E+00 -0.00000000000E+00 -0.42763883048E+02  0.42763883048E+02  0.00000000000E+00 0.  1.
         25    2    1    2    0    0  0.28422728531E+02 -0.82677629360E+01  0.13288429797E+03  0.18485947556E+03  0.12505431482E+03 0.  0.
         23    2    1    2    0    0 -0.28422728531E+02  0.82677629360E+01  0.12485508077E+03  0.15840766928E+03  0.92886980201E+02 0.  0.
          5    1    3    3  502    0  0.47225362686E+02 -0.55376155228E+02  0.10184739048E+03  0.12524822073E+03  0.41800000000E+01 0. -1.
         -5    1    3    3    0  502 -0.18802634155E+02  0.47108392292E+02  0.31036907494E+02  0.59611254829E+02  0.41800000000E+01 0. -1.
        -11    1    4    4    0    0 -0.66102864089E+01  0.49888683209E+02  0.69293208394E+02  0.85639507987E+02  0.00000000000E+00 0.  1.
         11    1    4    4    0    0 -0.21812442122E+02 -0.41620920273E+02  0.55561872373E+02  0.72768161289E+02  0.00000000000E+00 0. -1.
</event>
<event>
 8    1  0.6965441E-009  0.7551854E+02  0.7561462E-02  0.1342273E+00
         -2   -1    0    0    0  501 -0.00000000000E+00  0.00000000000E+00  0.17762550235E+02  0.17762550235E+02  0.00000000000E+00 0.  1.
          2   -1    0    0  501    0  0.00000000000E+00 -0.00000000000E+00 -0.77018945853E+03  0.77018945853E+03  0.00000000000E+00 0. -1.
         25    2    1    2    0    0 -0.24264710507E+02  0.25632668439E+01 -0.30053063137E+03  0.32643802233E+03  0.12509106890E+03 0.  0.
         23    2    1    2    0    0  0.24264710507E+02 -0.25632668439E+01 -0.45189627692E+03  0.46151398643E+03  0.90496232314E+02 0.  0.
          5    1    3    3  502    0 -0.29498157833E+01  0.25346493404E+02 -0.16563679278E+01  0.25910656027E+02  0.41800000000E+01 0. -1.
         -5    1    3    3    0  502 -0.21314894723E+02 -0.22783226560E+02 -0.29887426344E+03  0.30052736631E+03  0.41800000000E+01 0. -1.
        -11    1    4    4    0    0 -0.31380697329E+02 -0.17707374818E+02 -0.16845399853E+03  0.17226447373E+03  0.00000000000E+00 0. -1.
         11    1    4    4    0    0  0.55645407836E+02  0.15144107974E+02 -0.28344227839E+03  0.28924951270E+03  0.00000000000E+00 0.  1.
</event>
<event>
 8    1  0.6965441E-009  0.1058045E+03  0.7561462E-02  0.1268543E+00
          1   -1    0    0  501    0  0.00000000000E+00  0.00000000000E+00  0.39584863086E+02  0.39584863086E+02  0.00000000000E+00 0. -1.
         -1   -1    0    0    0  501 -0.00000000000E+00 -0.00000000000E+00 -0.31357059437E+03  0.31357059437E+03  0.00000000000E+00 0.  1.
         25    2    1    2    0    0 -0.33991128399E+02  0.46683509851E+02 -0.19118958268E+03  0.23565813787E+03  0.12508618836E+03 0.  0.
         23    2    1    2    0    0  0.33991128399E+02 -0.46683509851E+02 -0.82796148605E+02  0.11749731958E+03  0.60130449722E+02 0.  0.
          5    1    3    3  502    0  0.43581996260E+02  0.40824712015E+02 -0.83949871134E+02  0.10310722949E+03  0.41800000000E+01 0.  1.
         -5    1    3    3    0  502 -0.77573124659E+02  0.58587978358E+01 -0.10723971155E+03  0.13255090839E+03  0.41800000000E+01 0.  1.
        -11    1    4    4    0    0  0.96657627241E+01  0.89173928048E+01 -0.42896215425E+02  0.44866826958E+02  0.00000000000E+00 0.  1.
         11    1    4    4    0    0  0.24325365675E+02 -0.55600902655E+02 -0.39899933180E+02  0.72630492626E+02  0.00000000000E+00 0. -1.
</event>
<event>
 8    1  0.6965441E-009  0.1079053E+03  0.7561462E-02  0.1264499E+00
         -2   -1    0    0    0  501 -0.00000000000E+00  0.00000000000E+00  0.21123925586E+02  0.21123925586E+02  0.00000000000E+00 0.  1.
          2   -1    0    0  501    0  0.00000000000E+00 -0.00000000000E+00 -0.79314192001E+03  0.79314192001E+03  0.00000000000E+00 0. -1.
         25    2    1    2    0    0 -0.21634070916E+02 -0.61640084212E+02 -0.51022999496E+03  0.52939513372E+03  0.12512804178E+03 0.  0.
         23    2    1    2    0    0  0.21634070916E+02  0.61640084212E+02 -0.26178799947E+03  0.28487071188E+03  0.91382891275E+02 0.  0.
          5    1    3    3  502    0  0.22870647113E+02  0.13604814787E+02 -0.30624040025E+03  0.30742285639E+03  0.41800000000E+01 0.  1.
         -5    1    3    3    0  502 -0.44504718029E+02 -0.75244898999E+02 -0.20398959471E+03  0.22197227733E+03  0.41800000000E+01 0.  1.
        -11    1    4    4    0    0  0.11369909636E+02 -0.17870883038E+02 -0.12114274860E+03  0.12298052221E+03  0.00000000000E+00 0. -1.
         11    1    4    4    0    0  0.10264161280E+02  0.79510967249E+02 -0.14064525087E+03  0.16189018967E+03  0.00000000000E+00 0.  1.
</event>
<event>
 8    1  0.6965441E-009  0.9637169E+02  0.7561462E-02  0.1288116E+00
          1   -1    0    0  501    0  0.00000000000E+00  0.00000000000E+00  0.48255378503E+03  0.48255378503E+03  0.00000000000E+00 0. -1.
         -1   -1    0    0    0  501 -0.00000000000E+00 -0.00000000000E+00 -0.27767796232E+02  0.27767796232E+02  0.00000000000E+00 0.  1.
         25    2    1    2    0    0 -0.18331576127E+01  0.38239958957E+02  0.28304119151E+03  0.31181005088E+03  0.12509011475E+03 0.  0.
         23    2    1    2    0    0  0.18331576127E+01 -0.38239958957E+02  0.17174479729E+03  0.19851153039E+03  0.91896122732E+02 0.  0.
          5    1    3    3  502    0  0.46055188525E+02 -0.24020850414E+02  0.11693905032E+03  0.12802458957E+03  0.41800000000E+01 0.  1.
         -5    1    3    3    0  502 -0.47888346138E+02  0.62260809371E+02  0.16610214119E+03  0.18378546131E+03  0.41800000000E+01 0.  1.
        -11    1    4    4    0    0  0.16278424712E+02  0.44750807780E+01 -0.37690720453E+01  0.17297958353E+02  0.00000000000E+00 0.  1.
         11    1    4    4    0    0 -0.14445267100E+02 -0.42715039735E+02  0.17551386933E+03  0.18121357203E+03  0.00000000000E+00 0. -1.
</event>
<event>
 8    1  0.6965441E-009  0.8194844E+02  0.7561462E-02  0.1323611E+00
          2   -1    0    0  501    0  0.00000000000E+00  0.00000000000E+00  0.26280316903E+03  0.26280316903E+03  0.00000000000E+00 0. -1.
         -2   -1    0    0    0  501 -0.00000000000E+00 -0.00000000000E+00 -0.57228449537E+02  0.57228449537E+02  0.00000000000E+00 0.  1.
         25    2    1    2    0    0 -0.20585478961E+01  0.55423093766E+02  0.10050747545E+03  0.16978015689E+03  0.12509033580E+03 0.  0.
         23    2    1    2    0    0  0.20585478961E+01 -0.55423093766E+02  0.10506724405E+03  0.15025146168E+03  0.91980536107E+02 0.  0.
          5    1    3    3  502    0  0.44445082949E+02  0.35356452701E+02  0.10428398068E+03  0.11881946462E+03  0.41800000000E+01 0.  1.
         -5    1    3    3    0  502 -0.46503630845E+02  0.20066641065E+02 -0.37765052310E+01  0.50960692275E+02  0.41800000000E+01 0.  1.
        -11    1    4    4    0    0 -0.21044778122E+01 -0.42511662018E+02  0.12161815975E+03  0.12885125927E+03  0.00000000000E+00 0. -1.
         11    1    4    4    0    0  0.41630257083E+01 -0.12911431748E+02 -0.16550915697E+02  0.21400202412E+02  0.00000000000E+00 0.  1.
</event>
<event>
 8    1  0.6965441E-009  0.1107380E+03  0.7561462E-02  0.1259209E+00
          2   -1    0    0  501    0  0.00000000000E+00  0.00000000000E+00  0.47954892105E+03  0.47954892105E+03  0.00000000000E+00 0. -1.
         -2   -1    0    0    0  501 -0.00000000000E+00 -0.00000000000E+00 -0.27179040876E+02  0.27179040876E+02  0.00000000000E+00 0.  1.
         25    2    1    2    0    0 -0.56949026602E+02 -0.12367203651E+02  0.30671847855E+03  0.33633314320E+03  0.12509044239E+03 0.  0.
         23    2    1    2    0    0  0.56949026602E+02  0.12367203651E+02  0.14565140163E+03  0.17039481873E+03  0.66512585992E+02 0.  0.
          5    1    3    3  502    0 -0.61619981693E+02  0.46800118959E+02  0.15306796600E+03  0.17156499612E+03  0.41800000000E+01 0.  1.
         -5    1    3    3    0  502  0.46709550916E+01 -0.59167322610E+02  0.15365051255E+03  0.16476814708E+03  0.41800000000E+01 0.  1.
        -11    1    4    4    0    0  0.41385116426E+02  0.36891568269E+02  0.69580653597E+02  0.88967314368E+02  0.00000000000E+00 0. -1.
         11    1    4    4    0    0  0.15563910176E+02 -0.24524364618E+02  0.76070748032E+02  0.81427504359E+02  0.00000000000E+00 0.  1.
</event>
<event>
 8    1  0.6965441E-009  0.1110273E+03  0.7561462E-02  0.1258679E+00
         -1   -1    0    0    0  501 -0.00000000000E+00  0.00000000000E+00  0.24005617488E+02  0.24005617488E+02  0.00000000000E+00 0.  1.
          1   -1    0    0  501    0  0.00000000000E+00 -0.00000000000E+00 -0.72910154388E+03  0.72910154388E+03  0.00000000000E+00 0. -1.
         25    2    1    2    0    0  0.52621822990E+02 -0.34592512488E+02 -0.48943162506E+03  0.50907403720E+03  0.12508941431E+03 0.  0.
         23    2    1    2    0    0 -0.52621822990E+02  0.34592512488E+02 -0.21566430133E+03  0.24403312416E+03  0.95264771265E+02 0.  0.
          5    1    3    3  502    0  0.81262674869E+02 -0.59701497688E+02 -0.37788225919E+03  0.39112704504E+03  0.41800000000E+01 0. -1.
         -5    1    3    3    0  502 -0.28640851879E+02  0.25108985200E+02 -0.11154936587E+03  0.11794699216E+03  0.41800000000E+01 0. -1.
        -11    1    4    4    0    0 -0.48585072743E+02  0.60581536149E+00 -0.34319898906E+02  0.59487240369E+02  0.00000000000E+00 0.  1.
         11    1    4    4    0    0 -0.40367502466E+01  0.33986697126E+02 -0.18134440242E+03  0.18454588379E+03  0.00000000000E+00 0. -1.
</event>
<event>
 8    1  0.6965441E-009  0.9786513E+02  0.7561462E-02  0.1284850E+00
          2   -1    0    0  501    0  0.00000000000E+00  0.00000000000E+00  0.19090497994E+03  0.19090497994E+03  0.00000000000E+00 0.  1.
         -2   -1    0    0    0  501 -0.00000000000E+00 -0.00000000000E+00 -0.64479364344E+02  0.64479364344E+02  0.00000000000E+00 0. -1.
         25    2    1    2    0    0 -0.77930966494E+01  0.20886152979E+02  0.86848052561E+02  0.15390730164E+03  0.12509160453E+03 0.  0.
         23    2    1    2    0    0  0.77930966494E+01 -0.20886152979E+02  0.39577563032E+02  0.10147704264E+03  0.90742729436E+02 0.  0.
          5    1    3    3  502    0 -0.49567872391E+02  0.34347244855E+02  0.46458056155E+01  0.60628071983E+02  0.41800000000E+01 0. -1.
         -5    1    3    3    0  502  0.41774775742E+02 -0.13461091876E+02  0.82202246945E+02  0.93279229658E+02  0.41800000000E+01 0. -1.
        -11    1    4    4    0    0 -0.22846920134E+02 -0.46139430194E+02  0.33200453601E+02  0.61262540737E+02  0.00000000000E+00 0.  1.
         11    1    4    4    0    0  0.30640016783E+02  0.25253277214E+02  0.63771094300E+01  0.40214501902E+02  0.00000000000E+00 0. -1.
</event>
<event>
 8    1  0.6965441E-009  0.1376162E+03  0.7561462E-02  0.1216573E+00
          4   -1    0    0  501    0  0.00000000000E+00  0.00000000000E+00  0.37483578106E+03  0.37483578106E+03  0.00000000000E+00 0.  1.
         -4   -1    0    0    0  501 -0.00000000000E+00 -0.00000000000E+00 -0.54281807238E+02  0.54281807238E+02  0.00000000000E+00 0. -1.
         25    2    1    2    0    0 -0.84476849376E+02  0.32398615781E+02  0.18816244484E+03  0.24339465422E+03  0.12509933521E+03 0.  0.
         23    2    1    2    0    0  0.84476849376E+02 -0.32398615781E+02  0.13239152898E+03  0.18572293408E+03  0.93698894928E+02 0.  0.
          5    1    3    3  502    0 -0.98753032825E+02  0.60057089964E+02  0.17402894630E+03  0.20895588553E+03  0.41800000000E+01 0.  1.
         -5    1    3    3    0  502  0.14276183449E+02 -0.27658474183E+02  0.14133498536E+02  0.34438768690E+02  0.41800000000E+01 0.  1.
        -11    1    4    4    0    0 -0.16211100158E+02  0.98600593506E+01  0.91516137796E+01  0.21065910222E+02  0.00000000000E+00 0. -1.
         11    1    4    4    0    0  0.10068794953E+03 -0.42258675131E+02  0.12323991521E+03  0.16465702386E+03  0.00000000000E+00 0.  1.
</event>
<event>
 8    1  0.6965441E-009  0.1205663E+03  0.7561462E-02  0.1242166E+00
          2   -1    0    0  501    0  0.00000000000E+00  0.00000000000E+00  0.13713847582E+03  0.13713847582E+03  0.00000000000E+00 0. -1.
         -2   -1    0    0    0  501 -0.00000000000E+00 -0.00000000000E+00 -0.15214635276E+03  0.15214635276E+03  0.00000000000E+00 0.  1.
         25    2    1    2    0    0  0.24420679136E+02  0.91456198131E+02 -0.18898262162E+02  0.15800327004E+03  0.12508910138E+03 0.  0.
         23    2    1    2    0    0 -0.24420679136E+02 -0.91456198131E+02  0.38903852233E+01  0.13128155855E+03  0.90879627924E+02 0.  0.
          5    1    3    3  502    0  0.34683422518E+02  0.20107445055E+02  0.45829680269E+02  0.61033442781E+02  0.41800000000E+01 0. -1.
         -5    1    3    3    0  502 -0.10262743382E+02  0.71348753076E+02 -0.64727942430E+02  0.96969827259E+02  0.41800000000E+01 0. -1.
        -11    1    4    4    0    0  0.29083201099E+02 -0.59687374207E+02  0.15009103978E+02  0.68071201166E+02  0.00000000000E+00 0. -1.
         11    1    4    4    0    0 -0.53503880235E+02 -0.31768823924E+02 -0.11118718755E+02  0.63210357383E+02  0.00000000000E+00 0.  1.
</event>
<event>
 8    1  0.6965441E-009  0.1145341E+03  0.7561462E-02  0.1252397E+00
          2   -1    0    0  501    0  0.00000000000E+00  0.00000000000E+00  0.41754614112E+03  0.41754614112E+03  0.00000000000E+00 0. -1.
         -2   -1    0    0    0  501 -0.00000000000E+00 -0.00000000000E+00 -0.35732192110E+02  0.35732192110E+02  0.00000000000E+00 0.  1.
         25    2    1    2    0    0 -0.34184630612E+02  0.39403983485E+02  0.18263083544E+03  0.22742557007E+03  0.12508838869E+03 0.  0.
         23    2    1    2    0    0  0.34184630612E+02 -0.39403983485E+02  0.19918311357E+03  0.22585276315E+03  0.92813226470E+02 0.  0.
          5    1    3    3  502    0 -0.43807159031E+02 -0.33578976680E+02  0.11384380540E+03  0.12658791129E+03  0.41800000000E+01 0.  1.
         -5    1    3    3    0  502  0.96225284183E+01  0.72982960165E+02  0.68787030042E+02  0.10083765879E+03  0.41800000000E+01 0.  1.
        -11    1    4    4    0    0 -0.22409121767E+02  0.10296557558E+02  0.20951095297E+02  0.32359484391E+02  0.00000000000E+00 0. -1.
         11    1    4    4    0    0  0.56593752379E+02 -0.49700541043E+02  0.17823201827E+03  0.19349327876E+03  0.00000000000E+00 0.  1.
</event>
<event>
 8    1  0.6965441E-009  0.1142229E+03  0.7561462E-02  0.1252944E+00
         -2   -1    0    0    0  501 -0.00000000000E+00  0.00000000000E+00  0.20575476535E+02  0.20575476535E+02  0.00000000000E+00 0.  1.
          2   -1    0    0  501    0  0.00000000000E+00 -0.00000000000E+00 -0.93861836736E+03  0.93861836736E+03  0.00000000000E+00 0. -1.
         25    2    1    2    0    0  0.70857795394E+02 -0.48609137407E+02 -0.51035343623E+03  0.53243925476E+03  0.12508898721E+03 0.  0.
         23    2    1    2    0    0 -0.70857795394E+02  0.48609137407E+02 -0.40768945460E+03  0.42675458914E+03  0.92331536103E+02 0.  0.
          5    1    3    3  502    0 -0.27221137405E+02 -0.21319701322E+02 -0.25724808113E+03  0.25959500695E+03  0.41800000000E+01 0. -1.
         -5    1    3    3    0  502  0.98078932800E+02 -0.27289436086E+02 -0.25310535510E+03  0.27284424781E+03  0.41800000000E+01 0. -1.
        -11    1    4    4    0    0 -0.58442259387E+02  0.52660106587E+02 -0.40604078893E+03  0.41359123151E+03  0.00000000000E+00 0. -1.
         11    1    4    4    0    0 -0.12415536007E+02 -0.40509691793E+01 -0.16486656638E+01  0.13163357631E+02  0.00000000000E+00 0.  1.
</event>
<event>
 8    1  0.6965441E-009  0.1016654E+03  0.7561462E-02  0.1276832E+00
          1   -1    0    0  501    0  0.00000000000E+00  0.00000000000E+00  0.34202167453E+02  0.34202167453E+02  0.00000000000E+00 0. -1.
         -1   -1    0    0    0  501 -0.00000000000E+00 -0.00000000000E+00 -0.58246950724E+03  0.58246950724E+03  0.00000000000E+00 0.  1.
         25    2    1    2    0    0  0.52199753447E+02  0.49220615746E+02 -0.18168828143E+03  0.23195961301E+03  0.12508855737E+03 0.  0.
         23    2    1    2    0    0 -0.52199753447E+02 -0.49220615746E+02 -0.36657905835E+03  0.38471206168E+03  0.92063462375E+02 0.  0.
          5    1    3    3  502    0  0.44562924211E+02  0.90420336188E+01  0.15915704524E-01  0.45662733597E+02  0.41800000000E+01 0.  1.
         -5    1    3    3    0  502  0.76368292356E+01  0.40178582128E+02 -0.18170419714E+03  0.18629687942E+03  0.41800000000E+01 0.  1.
        -11    1    4    4    0    0 -0.68625298132E+02 -0.43368346501E+01 -0.22611244029E+03  0.23633678370E+03  0.00000000000E+00 0.  1.
         11    1    4    4    0    0  0.16425544686E+02 -0.44883781096E+02 -0.14046661806E+03  0.14837527797E+03  0.00000000000E+00 0. -1.
</event>
<event>
 8    1  0.6965441E-009  0.1077062E+03  0.7561462E-02  0.1264878E+00
          4   -1    0    0  501    0  0.00000000000E+00  0.00000000000E+00  0.20684319441E+03  0.20684319441E+03  0.00000000000E+00 0. -1.
         -4   -1    0    0    0  501 -0.00000000000E+00 -0.00000000000E+00 -0.84902043813E+02  0.84902043813E+02  0.00000000000E+00 0.  1.
         25    2    1    2    0    0  0.27518586838E+02 -0.87130465839E+01 -0.97337869587E+01  0.12873772118E+03  0.12508183099E+03 0.  0.
         23    2    1    2    0    0 -0.27518586838E+02  0.87130465839E+01  0.13167493755E+03  0.16300751704E+03  0.91651359120E+02 0.  0.
          5    1    3    3  502    0  0.72861215473E+02 -0.12489839658E+02 -0.28506818198E+02  0.79340178338E+02  0.41800000000E+01 0. -1.
         -5    1    3    3    0  502 -0.45342628634E+02  0.37767930740E+01  0.18773031239E+02  0.49397542847E+02  0.41800000000E+01 0. -1.
        -11    1    4    4    0    0  0.29820773964E+02  0.21708619746E+02  0.43565934398E+02  0.57083564807E+02  0.00000000000E+00 0. -1.
         11    1    4    4    0    0 -0.57339360802E+02 -0.12995573162E+02  0.88109003156E+02  0.10592395223E+03  0.00000000000E+00 0.  1.
</event>
<event>
 8    1  0.6965441E-009  0.1453946E+03  0.7561462E-02  0.1206249E+00
          2   -1    0    0  501    0  0.00000000000E+00  0.00000000000E+00  0.16616506118E+03  0.16616506118E+03  0.00000000000E+00 0. -1.
         -2   -1    0    0    0  501 -0.00000000000E+00 -0.00000000000E+00 -0.13050662983E+03  0.13050662983E+03  0.00000000000E+00 0.  1.
         25    2    1    2    0    0 -0.23309181739E+02 -0.92463311178E+02  0.14319715973E+02  0.15794058426E+03  0.12508953602E+03 0.  0.
         23    2    1    2    0    0  0.23309181739E+02  0.92463311178E+02  0.21338715377E+02  0.13873110675E+03  0.98479425970E+02 0.  0.
          5    1    3    3  502    0 -0.44499981853E+02  0.12695442365E+02  0.19663998963E+02  0.50453621247E+02  0.41800000000E+01 0.  1.
         -5    1    3    3    0  502  0.21190800114E+02 -0.10515875354E+03 -0.53442829903E+01  0.10748696301E+03  0.41800000000E+01 0.  1.
        -11    1    4    4    0    0  0.55098415439E+02  0.21375644547E+02  0.64710053535E+01  0.59452733108E+02  0.00000000000E+00 0.  1.
         11    1    4    4    0    0 -0.31789233701E+02  0.71087666630E+02  0.14867710024E+02  0.79278373644E+02  0.00000000000E+00 0. -1.
</event>
<event>
 8    1  0.6965441E-009  0.1071679E+03  0.7561462E-02  0.1265906E+00
         -2   -1    0    0    0  501 -0.00000000000E+00  0.00000000000E+00  0.27269284713E+02  0.27269284713E+02  0.00000000000E+00 0.  1.
          2   -1    0    0  501    0  0.00000000000E+00 -0.00000000000E+00 -0.68732899415E+03  0.68732899415E+03  0.00000000000E+00 0. -1.
         25    2    1    2    0    0  0.17305157590E+02  0.65870367915E+02 -0.48349602622E+03  0.50403800211E+03  0.12509007295E+03 0.  0.
         23    2    1    2    0    0 -0.17305157590E+02 -0.65870367915E+02 -0.17656368322E+03  0.21056027675E+03  0.92317506826E+02 0.  0.
          5    1    3    3  502    0 -0.42947641571E+02  0.15485366826E+02 -0.31218653316E+03  0.31553478475E+03  0.41800000000E+01 0. -1.
         -5    1    3    3    0  502  0.60252799162E+02  0.50385001090E+02 -0.17130949306E+03  0.18850321736E+03  0.41800000000E+01 0. -1.
        -11    1    4    4    0    0 -0.23665481447E+02 -0.75036327760E+02 -0.18190453423E+03  0.19819123358E+03  0.00000000000E+00 0. -1.
         11    1    4    4    0    0  0.63603238561E+01  0.91659598447E+01  0.53408510121E+01  0.12369043171E+02  0.00000000000E+00 0.  1.
</event>
<event>
 8    1  0.6965441E-009  0.9098355E+02  0.7561462E-02  0.1300487E+00
          1   -1    0    0  501    0  0.00000000000E+00  0.00000000000E+00  0.46404503442E+03  0.46404503442E+03  0.00000000000E+00 0. -1.
         -1   -1    0    0    0  501 -0.00000000000E+00 -0.00000000000E+00 -0.30097551810E+02  0.30097551810E+02  0.00000000000E+00 0.  1.
         25    2    1    2    0    0  0.25607856020E+02  0.38825671179E+02  0.23774762871E+03  0.27264190133E+03  0.12508587599E+03 0.  0.
         23    2    1    2    0    0 -0.25607856020E+02 -0.38825671179E+02  0.19619985391E+03  0.22150068491E+03  0.91678654595E+02 0.  0.
          5    1    3    3  502    0  0.36443239060E+02  0.56620025677E+02  0.50700412617E+02  0.84391594489E+02  0.41800000000E+01 0.  1.
         -5    1    3    3    0  502 -0.10835383040E+02 -0.17794354498E+02  0.18704721609E+03  0.18825030684E+03  0.41800000000E+01 0.  1.
        -11    1    4    4    0    0  0.16796690093E+02  0.16501150641E+02  0.16493580168E+02  0.28748129632E+02  0.00000000000E+00 0. -1.
         11    1    4    4    0    0 -0.42404546114E+02 -0.55326821819E+02  0.17970627374E+03  0.19275255528E+03  0.00000000000E+00 0.  1.
</event>
<event>
 7    1  0.6965441E-009  0.1795527E+03  0.7561462E-02  0.1168237E+00
         -1   -1    0    0    0  501 -0.00000000000E+00  0.00000000000E+00  0.11379068118E+03  0.11379068118E+03  0.00000000000E+00 0.  1.
          1   -1    0    0  501    0  0.00000000000E+00 -0.00000000000E+00 -0.29889147839E+03  0.29889147839E+03  0.00000000000E+00 0. -1.
         23    2    1    2    0    0  0.80239829527E+02 -0.12468732112E+03 -0.74734432708E+02  0.18945598172E+03  0.91230341914E+02 0.  0.
          5    1    1    2  502    0 -0.10679593751E+03  0.76787422678E+02 -0.10438303503E+03  0.16797312568E+03  0.41800000000E+01 0.  1.
         -5    1    1    2    0  502  0.26556107982E+02  0.47899898443E+02 -0.59833294772E+01  0.55253052166E+02  0.41800000000E+01 0.  1.
        -11    1    3    3    0    0  0.88729368452E+02 -0.59488724575E+02 -0.33978048597E+02  0.11209958503E+03  0.00000000000E+00 0.  1.
         11    1    3    3    0    0 -0.84895389253E+01 -0.65198596546E+02 -0.40756384111E+02  0.77356396688E+02  0.00000000000E+00 0. -1.
</event>
<event>
 8    1  0.6965441E-009  0.1028000E+03  0.7561462E-02  0.1274516E+00
          2   -1    0    0  501    0  0.00000000000E+00  0.00000000000E+00  0.45469222770E+03  0.45469222770E+03  0.00000000000E+00 0. -1.
         -2   -1    0    0    0  501 -0.00000000000E+00 -0.00000000000E+00 -0.53955614134E+02  0.53955614134E+02  0.00000000000E+00 0.  1.
         25    2    1    2    0    0 -0.83332968218E+02  0.10049068161E+02  0.33485280877E+03  0.36717749606E+03  0.12509013834E+03 0.  0.
         23    2    1    2    0    0  0.83332968218E+02 -0.10049068161E+02  0.65883804798E+02  0.14147034578E+03  0.92886035743E+02 0.  0.
          5    1    3    3  502    0 -0.29233651650E+02  0.85906199825E+01  0.29846354018E+01  0.30899604997E+02  0.41800000000E+01 0.  1.
         -5    1    3    3    0  502 -0.54099316568E+02  0.14584481789E+01  0.33186817337E+03  0.33627789107E+03  0.41800000000E+01 0.  1.
        -11    1    4    4    0    0  0.10139827440E+03 -0.13108870586E+02  0.68347194835E+02  0.12298289142E+03  0.00000000000E+00 0. -1.
         11    1    4    4    0    0 -0.18065306180E+02  0.30598024247E+01 -0.24633900369E+01  0.18487454360E+02  0.00000000000E+00 0.  1.
</event>
<event>
 8    1  0.6965441E-009  0.7721758E+02  0.7561462E-02  0.1337138E+00
         -1   -1    0    0    0  501 -0.00000000000E+00  0.00000000000E+00  0.36314882833E+03  0.36314882833E+03  0.00000000000E+00 0.  1.
          1   -1    0    0  501    0  0.00000000000E+00 -0.00000000000E+00 -0.37479366115E+02  0.37479366115E+02  0.00000000000E+00 0. -1.
         25    2    1    2    0    0 -0.36768297983E+02 -0.10478964411E+02  0.17432838605E+03  0.21794368339E+03  0.12508935413E+03 0.  0.
         23    2    1    2    0    0  0.36768297983E+02  0.10478964411E+02  0.15134107616E+03  0.18268451105E+03  0.94909392644E+02 0.  0.
          5    1    3    3  502    0 -0.35456944516E+02  0.57122560778E+01 -0.61600128092E+01  0.36677553650E+02  0.41800000000E+01 0.  1.
         -5    1    3    3    0  502 -0.13113534665E+01 -0.16191220489E+02  0.18048839886E+03  0.18126612974E+03  0.41800000000E+01 0.  1.
        -11    1    4    4    0    0  0.23194844299E+02 -0.41630967507E+02  0.59639724353E+02  0.76341567829E+02  0.00000000000E+00 0. -1.
         11    1    4    4    0    0  0.13573453684E+02  0.52109931918E+02  0.91701351808E+02  0.10634294322E+03  0.00000000000E+00 0.  1.
</event>
<event>
 8    1  0.6965441E-009  0.1618768E+03  0.7561462E-02  0.1186594E+00
          1   -1    0    0  501    0  0.00000000000E+00  0.00000000000E+00  0.65642230134E+03  0.65642230134E+03  0.00000000000E+00 0. -1.
         -1   -1    0    0    0  501 -0.00000000000E+00 -0.00000000000E+00 -0.45387272160E+02  0.45387272160E+02  0.00000000000E+00 0.  1.
         25    2    1    2    0    0  0.13418219153E+02 -0.12271636615E+03  0.22073895982E+03  0.28215821970E+03  0.12509283527E+03 0.  0.
         23    2    1    2    0    0 -0.13418219153E+02  0.12271636615E+03  0.39029606937E+03  0.41965135381E+03  0.92395248063E+02 0.  0.
          5    1    3    3  502    0 -0.42718919162E+02 -0.28718625280E+01  0.61697427919E+02  0.75214351427E+02  0.41800000000E+01 0. -1.
         -5    1    3    3    0  502  0.56137138314E+02 -0.11984450362E+03  0.15904153190E+03  0.20694386827E+03  0.41800000000E+01 0. -1.
        -11    1    4    4    0    0  0.29684947043E+02  0.88343099941E+02  0.18593384048E+03  0.20798339459E+03  0.00000000000E+00 0. -1.
         11    1    4    4    0    0 -0.43103166195E+02  0.34373266206E+02  0.20436222888E+03  0.21166795922E+03  0.00000000000E+00 0.  1.
</event>
<event>
 8    1  0.6965441E-009  0.1097213E+03  0.7561462E-02  0.1261087E+00
          2   -1    0    0  501    0  0.00000000000E+00  0.00000000000E+00  0.17554350321E+04  0.17554350321E+04  0.00000000000E+00 0. -1.
         -2   -1    0    0    0  501 -0.00000000000E+00 -0.00000000000E+00 -0.12220482611E+02  0.12220482611E+02  0.00000000000E+00 0.  1.
         25    2    1    2    0    0 -0.32397207663E+02  0.83275238043E+02  0.11978185893E+04  0.12076426463E+04  0.12508814413E+03 0.  0.
         23    2    1    2    0    0  0.32397207663E+02 -0.83275238043E+02  0.54539596012E+03  0.56001286840E+03  0.90406388767E+02 0.  0.
          5    1    3    3  502    0 -0.35970519261E+02  0.74492264881E+02  0.34654130293E+03  0.35630229135E+03  0.41800000000E+01 0.  1.
         -5    1    3    3    0  502  0.35733115974E+01  0.87829731625E+01  0.85127728639E+03  0.85134035491E+03  0.41800000000E+01 0.  1.
        -11    1    4    4    0    0  0.47142683146E+02 -0.59302239639E+01  0.23769590653E+03  0.24239831705E+03  0.00000000000E+00 0.  1.
         11    1    4    4    0    0 -0.14745475483E+02 -0.77345014079E+02  0.30770005359E+03  0.31761455135E+03  0.00000000000E+00 0. -1.
</event>
<event>
 8    1  0.6965441E-009  0.1022581E+03  0.7561462E-02  0.1275618E+00
         -1   -1    0    0    0  501 -0.00000000000E+00  0.00000000000E+00  0.17296894558E+03  0.17296894558E+03  0.00000000000E+00 0.  1.
          1   -1    0    0  501    0  0.00000000000E+00 -0.00000000000E+00 -0.10986625750E+03  0.10986625750E+03  0.00000000000E+00 0. -1.
         25    2    1    2    0    0 -0.31058406913E+02 -0.44881853609E+02 -0.39125797340E+02  0.14197607967E+03  0.12508946301E+03 0.  0.
         23    2    1    2    0    0  0.31058406913E+02  0.44881853609E+02  0.10222848541E+03  0.14085912341E+03  0.80072617016E+02 0.  0.
          5    1    3    3  502    0  0.11764322681E+02  0.30046438402E+02  0.19152770122E+02  0.37755645302E+02  0.41800000000E+01 0. -1.
         -5    1    3    3    0  502 -0.42822729593E+02 -0.74928292011E+02 -0.58278567461E+02  0.10422043436E+03  0.41800000000E+01 0. -1.
        -11    1    4    4    0    0 -0.20897625889E+02  0.13463221361E+02  0.65111785949E+02  0.69695866210E+02  0.00000000000E+00 0.  1.
         11    1    4    4    0    0  0.51956032802E+02  0.31418632248E+02  0.37116699464E+02  0.71163257204E+02  0.00000000000E+00 0. -1.
</event>
<event>
 8    1  0.6965441E-009  0.1592960E+03  0.7561462E-02  0.1189494E+00
         -1   -1    0    0    0  501 -0.00000000000E+00  0.00000000000E+00  0.12973423282E+02  0.12973423282E+02  0.00000000000E+00 0.  1.
          1   -1    0    0  501    0  0.00000000000E+00 -0.00000000000E+00 -0.22554449550E+04  0.22554449550E+04  0.00000000000E+00 0. -1.
         25    2    1    2    0    0  0.20018337982E+02 -0.12038640620E+03 -0.16093421598E+04  0.16188066164E+04  0.12513613891E+03 0.  0.
         23    2    1    2    0    0 -0.20018337982E+02  0.12038640620E+03 -0.63312937184E+03  0.64961176183E+03  0.79050736655E+02 0.  0.
          5    1    3    3  502    0  0.43490370836E+02 -0.13768128581E+03 -0.13928610054E+04  0.14003309615E+04  0.41800000000E+01 0.  1.
         -5    1    3    3    0  502 -0.23472032854E+02  0.17294879614E+02 -0.21648115443E+03  0.21847565496E+03  0.41800000000E+01 0.  1.
        -11    1    4    4    0    0  0.10081610372E+02  0.11332678163E+03 -0.46965133375E+03  0.48323593988E+03  0.00000000000E+00 0.  1.
         11    1    4    4    0    0 -0.30099948354E+02  0.70596245715E+01 -0.16347803809E+03  0.16637582194E+03  0.00000000000E+00 0. -1.
</event>
<event>
 8    1  0.6965441E-009  0.1982907E+03  0.7561462E-02  0.1151189E+00
          2   -1    0    0  501    0  0.00000000000E+00  0.00000000000E+00  0.80776606812E+03  0.80776606812E+03  0.00000000000E+00 0. -1.
         -2   -1    0    0    0  501 -0.00000000000E+00 -0.00000000000E+00 -0.50683447721E+02  0.50683447721E+02  0.00000000000E+00 0.  1.
         25    2    1    2    0    0 -0.53128330014E+02  0.15972692851E+03  0.35781967125E+03  0.41474976165E+03  0.12508851473E+03 0.  0.
         23    2    1    2    0    0  0.53128330014E+02 -0.15972692851E+03  0.39926294915E+03  0.44369975419E+03  0.95515748244E+02 0.  0.
          5    1    3    3  502    0 -0.93096699413E+02  0.93871631637E+02  0.21521045245E+03  0.25261015402E+03  0.41800000000E+01 0.  1.
         -5    1    3    3    0  502  0.39968369399E+02  0.65855296870E+02  0.14260921880E+03  0.16213960764E+03  0.41800000000E+01 0.  1.
        -11    1    4    4    0    0 -0.21332284943E+02 -0.51978537209E+02  0.72919286584E+02  0.92054641747E+02  0.00000000000E+00 0.  1.
         11    1    4    4    0    0  0.74460614956E+02 -0.10774839130E+03  0.32634366256E+03  0.35164511244E+03  0.00000000000E+00 0. -1.
</event>
<event>
 8    1  0.6965441E-009  0.6682564E+02  0.7561462E-02  0.1371233E+00
         -1   -1    0    0    0  501 -0.00000000000E+00  0.00000000000E+00  0.40126055647E+02  0.40126055647E+02  0.00000000000E+00 0.  1.
          1   -1    0    0  501    0  0.00000000000E+00 -0.00000000000E+00 -0.31053142635E+03  0.31053142635E+03  0.00000000000E+00 0. -1.
         25    2    1    2    0    0  0.83102801058E+01 -0.54760800306E+01 -0.12277045128E+03  0.17555558595E+03  0.12509249315E+03 0.  0.
         23    2    1    2    0    0 -0.83102801058E+01  0.54760800306E+01 -0.14763491943E+03  0.17510189605E+03  0.93624549981E+02 0.  0.
          5    1    3    3  502    0 -0.14451417057E+02  0.31249718394E+02 -0.12727270167E+03  0.13191361319E+03  0.41800000000E+01 0. -1.
         -5    1    3    3    0  502  0.22761697163E+02 -0.36725798425E+02  0.45022503900E+01  0.43641972758E+02  0.41800000000E+01 0. -1.
        -11    1    4    4    0    0  0.17915158117E+02  0.18948116522E+02 -0.16055275931E+01  0.26125882357E+02  0.00000000000E+00 0.  1.
         11    1    4    4    0    0 -0.26225438223E+02 -0.13472036492E+02 -0.14602939183E+03  0.14897601369E+03  0.00000000000E+00 0. -1.
</event>
<event>
 8    1  0.6965441E-009  0.1772573E+03  0.7561462E-02  0.1170484E+00
          2   -1    0    0  501    0  0.00000000000E+00  0.00000000000E+00  0.26619237186E+02  0.26619237186E+02  0.00000000000E+00 0. -1.
         -2   -1    0    0    0  501 -0.00000000000E+00 -0.00000000000E+00 -0.14427062120E+04  0.14427062120E+04  0.00000000000E+00 0.  1.
         25    2    1    2    0    0  0.10290587080E+03 -0.12473169680E+03 -0.66644885350E+03  0.69710053835E+03  0.12508985493E+03 0.  0.
         23    2    1    2    0    0 -0.10290587080E+03  0.12473169680E+03 -0.74963812136E+03  0.77222491088E+03  0.90699424249E+02 0.  0.
          5    1    3    3  502    0  0.96127018091E+02 -0.83722903198E+02 -0.62631835987E+03  0.63917297224E+03  0.41800000000E+01 0.  1.
         -5    1    3    3    0  502  0.67788527042E+01 -0.41008793604E+02 -0.40130493626E+02  0.57927566111E+02  0.41800000000E+01 0.  1.
        -11    1    4    4    0    0 -0.10534427051E+02  0.83290920488E+02 -0.35804448599E+03  0.36775563291E+03  0.00000000000E+00 0.  1.
         11    1    4    4    0    0 -0.92371443745E+02  0.41440776314E+02 -0.39159363537E+03  0.40446927798E+03  0.00000000000E+00 0. -1.
</event>
<event>
 8    1  0.6965441E-009  0.2349015E+03  0.7561462E-02  0.1123237E+00
         -1   -1    0    0    0  501 -0.00000000000E+00  0.00000000000E+00  0.42531305544E+02  0.42531305544E+02  0.00000000000E+00 0.  1.
          1   -1    0    0  501    0  0.00000000000E+00 -0.00000000000E+00 -0.15037404615E+04  0.15037404615E+04  0.00000000000E+00 0. -1.
         25    2    1    2    0    0  0.18309438480E+02 -0.21962260131E+03 -0.93258669230E+03  0.96640414848E+03  0.12509882895E+03 0.  0.
         23    2    1    2    0    0 -0.18309438480E+02  0.21962260131E+03 -0.52862246370E+03  0.57986761860E+03  0.90749233785E+02 0.  0.
          5    1    3    3  502    0 -0.32323771217E+01  0.13597160576E+02 -0.23819449939E+02  0.27931516840E+02  0.41800000000E+01 0.  1.
         -5    1    3    3    0  502  0.21541815602E+02 -0.23321976189E+03 -0.90876724236E+03  0.93847263164E+03  0.41800000000E+01 0.  1.
        -11    1    4    4    0    0 -0.24141610582E+01  0.12454039511E+03 -0.18536447803E+03  0.22332963955E+03  0.00000000000E+00 0. -1.
         11    1    4    4    0    0 -0.15895277422E+02  0.95082206208E+02 -0.34325798566E+03  0.35653797905E+03  0.00000000000E+00 0.  1.
</event>
<event>
 8    1  0.6965441E-009  0.1199529E+03  0.7561462E-02  0.1243175E+00
         -2   -1    0    0    0  501 -0.00000000000E+00  0.00000000000E+00  0.19596182983E+03  0.19596182983E+03  0.00000000000E+00 0.  1.
          2   -1    0    0  501    0  0.00000000000E+00 -0.00000000000E+00 -0.15327820476E+03  0.15327820476E+03  0.00000000000E+00 0. -1.
         25    2    1    2    0    0 -0.66104482332E+02 -0.68862833726E+02  0.11519151731E+03  0.19500859852E+03  0.12508946950E+03 0.  0.
         23    2    1    2    0    0  0.66104482332E+02  0.68862833726E+02 -0.72507892246E+02  0.15423143606E+03  0.97046633015E+02 0.  0.
          5    1    3    3  502    0  0.21536738345E+02 -0.42854065913E+02  0.86685369319E+02  0.99157086070E+02  0.41800000000E+01 0. -1.
         -5    1    3    3    0  502 -0.87641220676E+02 -0.26008767813E+02  0.28506147995E+02  0.95851512447E+02  0.41800000000E+01 0. -1.
        -11    1    4    4    0    0  0.35098862611E+02  0.57222512877E+02  0.75896233068E+01  0.67557001994E+02  0.00000000000E+00 0.  1.
         11    1    4    4    0    0  0.31005619720E+02  0.11640320849E+02 -0.80097515553E+02  0.86674434070E+02  0.00000000000E+00 0. -1.
</event>
<event>
 7    1  0.6965441E-009  0.1653057E+03  0.7561462E-02  0.1182834E+00
         -1   -1    0    0    0  501 -0.00000000000E+00  0.00000000000E+00  0.87803432420E+02  0.87803432420E+02  0.00000000000E+00 0.  1.
          1   -1    0    0  501    0  0.00000000000E+00 -0.00000000000E+00 -0.71615488463E+03  0.71615488463E+03  0.00000000000E+00 0. -1.
         23    2    1    2    0    0  0.12136357365E+03  0.61826264891E+02 -0.59376146455E+03  0.61592991076E+03  0.90914103108E+02 0.  0.
          5    1    1    2  502    0 -0.10917791229E+03 -0.86310199725E+02 -0.58916377337E+02  0.15118822384E+03  0.41800000000E+01 0.  1.
         -5    1    1    2    0  502 -0.12185661366E+02  0.24483934834E+02  0.24326389682E+02  0.36840182449E+02  0.41800000000E+01 0.  1.
        -11    1    3    3    0    0  0.17342657535E+02  0.56995728085E+02 -0.22345302414E+03  0.23125858857E+03  0.00000000000E+00 0. -1.
         11    1    3    3    0    0  0.10402091612E+03  0.48305368062E+01 -0.37030844041E+03  0.38467132219E+03  0.00000000000E+00 0.  1.
</event>
<event>
 7    1  0.6965441E-009  0.1771327E+03  0.7561462E-02  0.1170607E+00
         -2   -1    0    0    0  501 -0.00000000000E+00  0.00000000000E+00  0.11299872939E+03  0.11299872939E+03  0.00000000000E+00 0.  1.
          2   -1    0    0  501    0  0.00000000000E+00 -0.00000000000E+00 -0.46792925690E+03  0.46792925690E+03  0.00000000000E+00 0. -1.
         23    2    1    2    0    0 -0.14771846849E+03  0.32568348498E+02 -0.34537203675E+03  0.38804232933E+03  0.91725472621E+02 0.  0.
          5    1    1    2  502    0  0.10547918711E+03 -0.76985148626E+02  0.36302881509E+00  0.13065288444E+03  0.41800000000E+01 0.  1.
         -5    1    1    2    0  502  0.42239281374E+02  0.44416800128E+02 -0.99215195717E+01  0.62232772518E+02  0.41800000000E+01 0.  1.
        -11    1    3    3    0    0 -0.90500311479E+02  0.48640783995E+02 -0.13629792772E+03  0.17068496520E+03  0.00000000000E+00 0.  1.
         11    1    3    3    0    0 -0.57218157009E+02 -0.16072435497E+02 -0.20907410903E+03  0.21735736413E+03  0.00000000000E+00 0. -1.
</event>
<event>
 8    1  0.6965441E-009  0.1384897E+03  0.7561462E-02  0.1215376E+00
          2   -1    0    0  501    0  0.00000000000E+00  0.00000000000E+00  0.10337756670E+03  0.10337756670E+03  0.00000000000E+00 0. -1.
         -2   -1    0    0    0  501 -0.00000000000E+00 -0.00000000000E+00 -0.21679348280E+03  0.21679348280E+03  0.00000000000E+00 0.  1.
         25    2    1    2    0    0  0.19551459430E+02 -0.94664692478E+02 -0.96887801158E+02  0.18541711801E+03  0.12509435667E+03 0.  0.
         23    2    1    2    0    0 -0.19551459430E+02  0.94664692478E+02 -0.16528114941E+02  0.13475393150E+03  0.92421750162E+02 0.  0.
          5    1    3    3  502    0  0.71620818374E+02 -0.59733835280E+02 -0.43642043846E+02  0.10305228330E+03  0.41800000000E+01 0. -1.
         -5    1    3    3    0  502 -0.52069358944E+02 -0.34930857198E+02 -0.53245757312E+02  0.82364834712E+02  0.41800000000E+01 0. -1.
        -11    1    4    4    0    0  0.21519044843E+02  0.69180153076E+02  0.18842183812E+02  0.74859807383E+02  0.00000000000E+00 0.  1.
         11    1    4    4    0    0 -0.41070504273E+02  0.25484539401E+02 -0.35370298753E+02  0.59894124116E+02  0.00000000000E+00 0. -1.
</event>
<event>
 8    1  0.6965441E-009  0.7693645E+02  0.7561462E-02  0.1337977E+00
         -1   -1    0    0    0  501 -0.00000000000E+00  0.00000000000E+00  0.38177354839E+02  0.38177354839E+02  0.00000000000E+00 0.  1.
          1   -1    0    0  501    0  0.00000000000E+00 -0.00000000000E+00 -0.32097109438E+03  0.32097109438E+03  0.00000000000E+00 0. -1.
         25    2    1    2    0    0  0.52108521448E+01 -0.12931744942E+01 -0.20365874830E+03  0.23906597916E+03  0.12508729494E+03 0.  0.
         23    2    1    2    0    0 -0.52108521448E+01  0.12931744942E+01 -0.79134991243E+02  0.12008247005E+03  0.90158901361E+02 0.  0.
          5    1    3    3  502    0  0.46148151768E+02 -0.20154150800E+02 -0.18200035280E+03  0.18888473343E+03  0.41800000000E+01 0.  1.
         -5    1    3    3    0  502 -0.40937299623E+02  0.18860976305E+02 -0.21658395500E+02  0.50181245732E+02  0.41800000000E+01 0.  1.
        -11    1    4    4    0    0  0.12850509042E+02 -0.23865552422E+02 -0.84419545077E+02  0.88664309426E+02  0.00000000000E+00 0.  1.
         11    1    4    4    0    0 -0.18061361187E+02  0.25158726916E+02  0.52845538336E+01  0.31418160627E+02  0.00000000000E+00 0. -1.
</event>
<event>
 8    1  0.6965441E-009  0.1387401E+03  0.7561462E-02  0.1215034E+00
          2   -1    0    0  501    0  0.00000000000E+00  0.00000000000E+00  0.74409130206E+02  0.74409130206E+02  0.00000000000E+00 0. -1.
         -2   -1    0    0    0  501 -0.00000000000E+00 -0.00000000000E+00 -0.31565657836E+03  0.31565657836E+03  0.00000000000E+00 0.  1.
         25    2    1    2    0    0 -0.72458559916E+02  0.53179162254E+02 -0.56702881084E+02  0.16413869628E+03  0.12509208085E+03 0.  0.
         23    2    1    2    0    0  0.72458559916E+02 -0.53179162254E+02 -0.18454456707E+03  0.22592701228E+03  0.94382474222E+02 0.  0.
          5    1    3    3  502    0 -0.10245890504E+01 -0.34861144542E+02 -0.33085910031E+02  0.48254523353E+02  0.41800000000E+01 0. -1.
         -5    1    3    3    0  502 -0.71433970866E+02  0.88040306796E+02 -0.23616971053E+02  0.11588417293E+03  0.41800000000E+01 0. -1.
        -11    1    4    4    0    0  0.46946884352E+02 -0.79449154465E+02 -0.14633498920E+03  0.17300319985E+03  0.00000000000E+00 0. -1.
         11    1    4    4    0    0  0.25511675564E+02  0.26269992211E+02 -0.38209577870E+02  0.52923812428E+02  0.00000000000E+00 0.  1.
</event>
<event>
 7    1  0.6965441E-009  0.7775174E+02  0.7561462E-02  0.1335555E+00
         -3   -1    0    0    0  501 -0.00000000000E+00  0.00000000000E+00  0.13901910394E+03  0.13901910394E+03  0.00000000000E+00 0.  1.
          3   -1    0    0  501    0  0.00000000000E+00 -0.00000000000E+00 -0.11645884745E+03  0.11645884745E+03  0.00000000000E+00 0. -1.
         23    2    1    2    0    0 -0.16338061728E+02  0.63250663572E+02  0.22284183575E+02  0.11451758591E+03  0.91378957869E+02 0.  0.
          5    1    1    2  502    0  0.70616278503E+00 -0.44138322508E+02  0.60920483089E+02  0.75348973712E+02  0.41800000000E+01 0. -1.
         -5    1    1    2    0  502  0.15631898943E+02 -0.19112341064E+02 -0.60644410175E+02  0.65611391777E+02  0.41800000000E+01 0. -1.
        -11    1    3    3    0    0  0.18010142952E+02  0.42078169832E+02 -0.25164716946E+02  0.52232179779E+02  0.00000000000E+00 0. -1.
         11    1    3    3    0    0 -0.34348204680E+02  0.21172493740E+02  0.47448900521E+02  0.62285406128E+02  0.00000000000E+00 0.  1.
</event>
<event>
 8    1  0.6965441E-009  0.1494393E+03  0.7561462E-02  0.1201164E+00
         -1   -1    0    0    0  501 -0.00000000000E+00  0.00000000000E+00  0.45238969566E+03  0.45238969566E+03  0.00000000000E+00 0.  1.
          1   -1    0    0  501    0  0.00000000000E+00 -0.00000000000E+00 -0.20130664150E+03  0.20130664150E+03  0.00000000000E+00 0. -1.
         25    2    1    2    0    0  0.46257052043E+02  0.10624040749E+03 -0.14823124221E+03  0.22594006345E+03  0.12509864931E+03 0.  0.
         23    2    1    2    0    0 -0.46257052043E+02 -0.10624040749E+03  0.39931429637E+03  0.42775627371E+03  0.10048275157E+03 0.  0.
          5    1    3    3  502    0  0.45159879308E+02 -0.12062567173E+02 -0.69160743671E+02  0.83579908417E+02  0.41800000000E+01 0.  1.
         -5    1    3    3    0  502  0.10971727344E+01  0.11830297467E+03 -0.79070498541E+02  0.14236015504E+03  0.41800000000E+01 0.  1.
        -11    1    4    4    0    0 -0.46135062965E+02 -0.25281434342E+02  0.27083302169E+03  0.27589512608E+03  0.00000000000E+00 0.  1.
         11    1    4    4    0    0 -0.12198907786E+00 -0.80958973151E+02  0.12848127468E+03  0.15186114763E+03  0.00000000000E+00 0. -1.
</event>
<event>
 8    1  0.6965441E-009  0.1097633E+03  0.7561462E-02  0.1261009E+00
         -2   -1    0    0    0  501 -0.00000000000E+00  0.00000000000E+00  0.20512173258E+02  0.20512173258E+02  0.00000000000E+00 0.  1.
          2   -1    0    0  501    0  0.00000000000E+00 -0.00000000000E+00 -0.80027607842E+03  0.80027607842E+03  0.00000000000E+00 0. -1.
         25    2    1    2    0    0 -0.20257121001E+02  0.30028763987E+02 -0.61227719131E+03  0.62597310374E+03  0.12508752932E+03 0.  0.
         23    2    1    2    0    0  0.20257121001E+02 -0.30028763987E+02 -0.16748671386E+03  0.19481514794E+03  0.92677208260E+02 0.  0.
          5    1    3    3  502    0 -0.47137813946E+02 -0.29138081647E+02 -0.16811713829E+03  0.17706452465E+03  0.41800000000E+01 0.  1.
         -5    1    3    3    0  502  0.26880692944E+02  0.59166845634E+02 -0.44416005302E+03  0.44890857909E+03  0.41800000000E+01 0.  1.
        -11    1    4    4    0    0  0.39962078040E+02  0.20271181945E+02 -0.87304508038E+02  0.98132388244E+02  0.00000000000E+00 0. -1.
         11    1    4    4    0    0 -0.19704957038E+02 -0.50299945932E+02 -0.80182205820E+02  0.96682759698E+02  0.00000000000E+00 0.  1.
</event>
<event>
 8    1  0.6965441E-009  0.1339968E+03  0.7561462E-02  0.1221643E+00
         -2   -1    0    0    0  501 -0.00000000000E+00  0.00000000000E+00  0.12519881196E+03  0.12519881196E+03  0.00000000000E+00 0.  1.
          2   -1    0    0  501    0  0.00000000000E+00 -0.00000000000E+00 -0.14998187847E+03  0.14998187847E+03  0.00000000000E+00 0. -1.
         25    2    1    2    0    0  0.76547323024E+02 -0.35865567654E+02 -0.40557701415E+01  0.15102731366E+03  0.12508784351E+03 0.  0.
         23    2    1    2    0    0 -0.76547323024E+02  0.35865567654E+02 -0.20727296368E+02  0.12415337677E+03  0.88535916682E+02 0.  0.
          5    1    3    3  502    0  0.25226368704E+02 -0.77435022673E+02  0.13270031168E+02  0.82620327653E+02  0.41800000000E+01 0. -1.
         -5    1    3    3    0  502  0.51320954320E+02  0.41569455019E+02 -0.17325801310E+02  0.68406986003E+02  0.41800000000E+01 0. -1.
        -11    1    4    4    0    0 -0.72545127162E+02 -0.10876776598E+02 -0.23851207659E+02  0.77136112495E+02  0.00000000000E+00 0. -1.
         11    1    4    4    0    0 -0.40021958619E+01  0.46742344251E+02  0.31239112910E+01  0.47017264272E+02  0.00000000000E+00 0.  1.
</event>
<event>
 8    1  0.6965441E-009  0.1721372E+03  0.7561462E-02  0.1175637E+00
          2   -1    0    0  501    0  0.00000000000E+00  0.00000000000E+00  0.35894685000E+03  0.35894685000E+03  0.00000000000E+00 0. -1.
         -2   -1    0    0    0  501 -0.00000000000E+00 -0.00000000000E+00 -0.10401224791E+03  0.10401224791E+03  0.00000000000E+00 0.  1.
         25    2    1    2    0    0  0.14347784487E+03 -0.70716683982E+02  0.12074574116E+03  0.23624903844E+03  0.12508929928E+03 0.  0.
         23    2    1    2    0    0 -0.14347784487E+03  0.70716683982E+02  0.13418886093E+03  0.22671005946E+03  0.88340586953E+02 0.  0.
          5    1    3    3  502    0  0.57970621154E+02 -0.41546437544E+02 -0.15127140567E+02  0.73027406988E+02  0.41800000000E+01 0. -1.
         -5    1    3    3    0  502  0.85507223712E+02 -0.29170246438E+02  0.13587288173E+03  0.16322163145E+03  0.41800000000E+01 0. -1.
        -11    1    4    4    0    0 -0.25137261792E+02 -0.20929917735E+02  0.18892110917E+02  0.37773737460E+02  0.00000000000E+00 0.  1.
         11    1    4    4    0    0 -0.11834058307E+03  0.91646601717E+02  0.11529675001E+03  0.18893632200E+03  0.00000000000E+00 0. -1.
</event>
<event>
 8    1  0.6965441E-009  0.1575547E+03  0.7561462E-02  0.1191485E+00
         -3   -1    0    0    0  501 -0.00000000000E+00  0.00000000000E+00  0.53185160918E+02  0.53185160918E+02  0.00000000000E+00 0.  1.
          3   -1    0    0  501    0  0.00000000000E+00 -0.00000000000E+00 -0.47533091926E+03  0.47533091926E+03  0.00000000000E+00 0. -1.
         25    2    1    2    0    0  0.38997994997E+02 -0.10903635004E+03 -0.22852603836E+03  0.28509829737E+03  0.12508844755E+03 0.  0.
         23    2    1    2    0    0 -0.38997994997E+02  0.10903635004E+03 -0.19361971998E+03  0.24341778281E+03  0.91399407988E+02 0.  0.
          5    1    3    3  502    0  0.78272450159E+02 -0.10459763522E+03 -0.17635833779E+03  0.21951532396E+03  0.41800000000E+01 0.  1.
         -5    1    3    3    0  502 -0.39274455163E+02 -0.44387148181E+01 -0.52167700578E+02  0.65582973409E+02  0.41800000000E+01 0.  1.
        -11    1    4    4    0    0  0.20954563984E+02  0.85397965436E+00 -0.13572341199E+02  0.24980622063E+02  0.00000000000E+00 0. -1.
         11    1    4    4    0    0 -0.59952558981E+02  0.10818237038E+03 -0.18004737878E+03  0.21843716075E+03  0.00000000000E+00 0.  1.
</event>
<event>
 8    1  0.6965441E-009  0.9717792E+02  0.7561462E-02  0.1286345E+00
          1   -1    0    0  501    0  0.00000000000E+00  0.00000000000E+00  0.79728249589E+03  0.79728249589E+03  0.00000000000E+00 0. -1.
         -1   -1    0    0    0  501 -0.00000000000E+00 -0.00000000000E+00 -0.20860139357E+02  0.20860139357E+02  0.00000000000E+00 0.  1.
         25    2    1    2    0    0  0.46157933590E+02 -0.43442561150E+02  0.51163579510E+03  0.53050456671E+03  0.12508436165E+03 0.  0.
         23    2    1    2    0    0 -0.46157933590E+02  0.43442561150E+02  0.26478656143E+03  0.28763806853E+03  0.92768121670E+02 0.  0.
          5    1    3    3  502    0 -0.10601977558E+02  0.30900948901E+02  0.25884834732E+03  0.26093525994E+03  0.41800000000E+01 0.  1.
         -5    1    3    3    0  502  0.56759911149E+02 -0.74343510051E+02  0.25278744778E+03  0.26956930677E+03  0.41800000000E+01 0.  1.
        -11    1    4    4    0    0 -0.24105635697E+02  0.38128238659E+02  0.26071907881E+03  0.26459267244E+03  0.00000000000E+00 0. -1.
         11    1    4    4    0    0 -0.22052297893E+02  0.53143224909E+01  0.40674826271E+01  0.23045396087E+02  0.00000000000E+00 0.  1.
</event>
<event>
 8    1  0.6965441E-009  0.9441727E+02  0.7561462E-02  0.1292494E+00
          1   -1    0    0  501    0  0.00000000000E+00  0.00000000000E+00  0.11973374595E+04  0.11973374595E+04  0.00000000000E+00 0. -1.
         -1   -1    0    0    0  501 -0.00000000000E+00 -0.00000000000E+00 -0.12538660955E+02  0.12538660955E+02  0.00000000000E+00 0.  1.
         25    2    1    2    0    0  0.45590688434E+01  0.40049062217E+02  0.84912107673E+03  0.85923123210E+03  0.12508794810E+03 0.  0.
         23    2    1    2    0    0 -0.45590688434E+01 -0.40049062217E+02  0.33567772181E+03  0.35064488836E+03  0.92992431521E+02 0.  0.
          5    1    3    3  502    0  0.27390359183E+02 -0.16525329324E+02  0.63418852992E+02  0.71152945127E+02  0.41800000000E+01 0. -1.
         -5    1    3    3    0  502 -0.22831290339E+02  0.56574391541E+02  0.78570222374E+03  0.78807828697E+03  0.41800000000E+01 0. -1.
        -11    1    4    4    0    0  0.33702416955E+01 -0.67124963186E+02  0.28317868769E+03  0.29104516552E+03  0.00000000000E+00 0. -1.
         11    1    4    4    0    0 -0.79293105389E+01  0.27075900968E+02  0.52499034122E+02  0.59599722840E+02  0.00000000000E+00 0.  1.
</event>
<event>
 8    1  0.6965441E-009  0.1060790E+03  0.7561462E-02  0.1268008E+00
         -1   -1    0    0    0  501 -0.00000000000E+00  0.00000000000E+00  0.96007118186E+02  0.96007118186E+02  0.00000000000E+00 0.  1.
          1   -1    0    0  501    0  0.00000000000E+00 -0.00000000000E+00 -0.17933448660E+03  0.17933448660E+03  0.00000000000E+00 0. -1.
         25    2    1    2    0    0  0.84328493204E+01 -0.54959852840E+02 -0.96101653408E+02  0.16725527424E+03  0.12508837117E+03 0.  0.
         23    2    1    2    0    0 -0.84328493204E+01  0.54959852840E+02  0.12774284993E+02  0.10808633055E+03  0.91802909117E+02 0.  0.
          5    1    3    3  502    0  0.51438636707E+02 -0.50870475703E+02 -0.13168744540E+02  0.73652066348E+02  0.41800000000E+01 0. -1.
         -5    1    3    3    0  502 -0.43005787387E+02 -0.40893771378E+01 -0.82932908868E+02  0.93603207891E+02  0.41800000000E+01 0. -1.
        -11    1    4    4    0    0 -0.40137908320E+02  0.50132212358E+02  0.30878653846E+02  0.71258555020E+02  0.00000000000E+00 0.  1.
         11    1    4    4    0    0  0.31705058999E+02  0.48276404823E+01 -0.18104368853E+02  0.36827775528E+02  0.00000000000E+00 0. -1.
</event>
<event>
 8    1  0.6965441E-009  0.1181644E+03  0.7561462E-02  0.1246156E+00
         -1   -1    0    0    0  501 -0.00000000000E+00  0.00000000000E+00  0.31659285196E+02  0.31659285196E+02  0.00000000000E+00 0.  1.
          1   -1    0    0  501    0  0.00000000000E+00 -0.00000000000E+00 -0.56011483691E+03  0.56011483691E+03  0.00000000000E+00 0. -1.
         25    2    1    2    0    0  0.56625942616E+02  0.50204469034E+02 -0.32532530883E+03  0.35666458327E+03  0.12508430081E+03 0.  0.
         23    2    1    2    0    0 -0.56625942616E+02 -0.50204469034E+02 -0.20313024289E+03  0.23510953883E+03  0.91036331133E+02 0.  0.
          5    1    3    3  502    0  0.86492974158E+02  0.13109196534E+02 -0.13889176836E+03  0.16419890782E+03  0.41800000000E+01 0. -1.
         -5    1    3    3    0  502 -0.29867031543E+02  0.37095272500E+02 -0.18643354047E+03  0.19246567545E+03  0.41800000000E+01 0. -1.
        -11    1    4    4    0    0 -0.63703401434E+02 -0.15554053507E+02 -0.64278581096E+02  0.91824767479E+02  0.00000000000E+00 0.  1.
         11    1    4    4    0    0  0.70774588187E+01 -0.34650415526E+02 -0.13885166179E+03  0.14328477135E+03  0.00000000000E+00 0. -1.
</event>
<event>
 8    1  0.6965441E-009  0.9858634E+02  0.7561462E-02  0.1283297E+00
          2   -1    0    0  501    0  0.00000000000E+00  0.00000000000E+00  0.62604755203E+03  0.62604755203E+03  0.00000000000E+00 0. -1.
         -2   -1    0    0    0  501 -0.00000000000E+00 -0.00000000000E+00 -0.19580867098E+02  0.19580867098E+02  0.00000000000E+00 0.  1.
         25    2    1    2    0    0 -0.35201484600E+02  0.14041171428E+02  0.38402427143E+03  0.40565731690E+03  0.12508764405E+03 0.  0.
         23    2    1    2    0    0  0.35201484600E+02 -0.14041171428E+02  0.22244241350E+03  0.23997110223E+03  0.81665191898E+02 0.  0.
          5    1    3    3  502    0 -0.65748222658E+01 -0.46438677915E+02  0.68724146425E+02  0.83308221661E+02  0.41800000000E+01 0. -1.
         -5    1    3    3    0  502 -0.28626662335E+02  0.60479849343E+02  0.31530012501E+03  0.32234909524E+03  0.41800000000E+01 0. -1.
        -11    1    4    4    0    0  0.35602903837E+02 -0.42011660777E+02  0.97894449590E+02  0.11232038846E+03  0.00000000000E+00 0.  1.
         11    1    4    4    0    0 -0.40141923646E+00  0.27970489349E+02  0.12454796391E+03  0.12765071377E+03  0.00000000000E+00 0. -1.
</event>
<event>
 8    1  0.6965441E-009  0.8638445E+02  0.7561462E-02  0.1311851E+00
          2   -1    0    0  501    0  0.00000000000E+00  0.00000000000E+00  0.17814822828E+03  0.17814822828E+03  0.00000000000E+00 0. -1.
         -2   -1    0    0    0  501 -0.00000000000E+00 -0.00000000000E+00 -0.67973781140E+02  0.67973781140E+02  0.00000000000E+00 0.  1.
         25    2    1    2    0    0  0.99055646345E+01  0.13490422657E+02  0.85499934636E+02  0.15243677513E+03  0.12508644960E+03 0.  0.
         23    2    1    2    0    0 -0.99055646345E+01 -0.13490422657E+02  0.24674512501E+02  0.93685234290E+02  0.88814299764E+02 0.  0.
          5    1    3    3  502    0  0.27205672409E+01  0.53565361193E+02  0.96122412329E+02  0.11015280277E+03  0.41800000000E+01 0.  1.
         -5    1    3    3    0  502  0.71849973937E+01 -0.40074938536E+02 -0.10622477692E+02  0.42283972360E+02  0.41800000000E+01 0.  1.
        -11    1    4    4    0    0 -0.30413456864E+02  0.21667120566E+02 -0.11664833241E+02  0.39121743399E+02  0.00000000000E+00 0.  1.
         11    1    4    4    0    0  0.20507892230E+02 -0.35157543223E+02  0.36339345742E+02  0.54563490890E+02  0.00000000000E+00 0. -1.
</event>
<event>
 8    1  0.6965441E-009  0.1182408E+03  0.7561462E-02  0.1246028E+00
         -1   -1    0    0    0  501 -0.00000000000E+00  0.00000000000E+00  0.43922806875E+02  0.43922806875E+02  0.00000000000E+00 0.  1.
          1   -1    0    0  501    0  0.00000000000E+00 -0.00000000000E+00 -0.36265672606E+03  0.36265672606E+03  0.00000000000E+00 0. -1.
         25    2    1    2    0    0 -0.32229557466E+02  0.54799803575E+02 -0.15796857908E+03  0.21129065249E+03  0.12509158647E+03 0.  0.
         23    2    1    2    0    0  0.32229557466E+02 -0.54799803575E+02 -0.16076534011E+03  0.19528888045E+03  0.90832204648E+02 0.  0.
          5    1    3    3  502    0  0.42775649230E+02  0.11326073337E+02 -0.92330640705E+02  0.10247173131E+03  0.41800000000E+01 0.  1.
         -5    1    3    3    0  502 -0.75005206697E+02  0.43473730238E+02 -0.65637938378E+02  0.10881892118E+03  0.41800000000E+01 0.  1.
        -11    1    4    4    0    0  0.57120359278E+02 -0.16308834782E+02 -0.12020663255E+03  0.13408336230E+03  0.00000000000E+00 0. -1.
         11    1    4    4    0    0 -0.24890801812E+02 -0.38490968794E+02 -0.40558707553E+02  0.61205518149E+02  0.00000000000E+00 0.  1.
</event>
<event>
 8    1  0.6965441E-009  0.1023898E+03  0.7561462E-02  0.1275349E+00
          2   -1    0    0  501    0  0.00000000000E+00  0.00000000000E+00  0.12994016091E+03  0.12994016091E+03  0.00000000000E+00 0. -1.
         -2   -1    0    0    0  501 -0.00000000000E+00 -0.00000000000E+00 -0.10617904354E+03  0.10617904354E+03  0.00000000000E+00 0.  1.
         25    2    1    2    0    0 -0.33357627959E+02 -0.34327927230E+01  0.21424636526E+01  0.12952051871E+03  0.12508580738E+03 0.  0.
         23    2    1    2    0    0  0.33357627959E+02  0.34327927230E+01  0.21618653711E+02  0.10659868574E+03  0.98850382928E+02 0.  0.
          5    1    3    3  502    0 -0.45896393648E+02 -0.53200473616E+02 -0.20438948404E+02  0.73293876652E+02  0.41800000000E+01 0.  1.
         -5    1    3    3    0  502  0.12538765689E+02  0.49767680893E+02  0.22581412057E+02  0.56226642056E+02  0.41800000000E+01 0.  1.
        -11    1    4    4    0    0 -0.21705078347E+02  0.15322460906E+02 -0.22682333620E+02  0.34933887455E+02  0.00000000000E+00 0.  1.
         11    1    4    4    0    0  0.55062706306E+02 -0.11889668183E+02  0.44300987331E+02  0.71664798288E+02  0.00000000000E+00 0. -1.
</event>
<event>
 8    1  0.6965441E-009  0.8909374E+02  0.7561462E-02  0.1305061E+00
         -1   -1    0    0    0  501 -0.00000000000E+00  0.00000000000E+00  0.13340485981E+03  0.13340485981E+03  0.00000000000E+00 0.  1.
          1   -1    0    0  501    0  0.00000000000E+00 -0.00000000000E+00 -0.10879011478E+03  0.10879011478E+03  0.00000000000E+00 0. -1.
         25    2    1    2    0    0 -0.35723646963E+02 -0.39280239618E+02  0.26976581271E+02  0.13853887379E+03  0.12508464109E+03 0.  0.
         23    2    1    2    0    0  0.35723646963E+02  0.39280239618E+02 -0.23618362380E+01  0.10365610080E+03  0.88993779476E+02 0.  0.
          5    1    3    3  502    0 -0.93919734927E+01 -0.52465196064E+02 -0.38994415769E+02  0.66172825429E+02  0.41800000000E+01 0.  1.
         -5    1    3    3    0  502 -0.26331673471E+02  0.13184956446E+02  0.65970997040E+02  0.72366048356E+02  0.41800000000E+01 0.  1.
        -11    1    4    4    0    0  0.46176703265E+02 -0.77331183655E+01 -0.21892436541E+02  0.51685276644E+02  0.00000000000E+00 0. -1.
         11    1    4    4    0    0 -0.10453056302E+02  0.47013357984E+02  0.19530600303E+02  0.51970824153E+02  0.00000000000E+00 0.  1.
</event>
<event>
 8    1  0.6965441E-009  0.2107375E+03  0.7561462E-02  0.1140983E+00
          2   -1    0    0  501    0  0.00000000000E+00  0.00000000000E+00  0.67212294238E+03  0.67212294238E+03  0.00000000000E+00 0. -1.
         -2   -1    0    0    0  501 -0.00000000000E+00 -0.00000000000E+00 -0.79237478139E+02  0.79237478139E+02  0.00000000000E+00 0.  1.
         25    2    1    2    0    0 -0.11272515735E+03 -0.16355559374E+03  0.23499338827E+03  0.33215484044E+03  0.12509017609E+03 0.  0.
         23    2    1    2    0    0  0.11272515735E+03  0.16355559374E+03  0.35789207597E+03  0.41920558008E+03  0.90494126791E+02 0.  0.
          5    1    3    3  502    0 -0.40445066890E+02 -0.13784749026E+03  0.94433072256E+02  0.17196747234E+03  0.41800000000E+01 0.  1.
         -5    1    3    3    0  502 -0.72280090463E+02 -0.25708103480E+02  0.14056031602E+03  0.16018736811E+03  0.41800000000E+01 0.  1.
        -11    1    4    4    0    0  0.74553515280E+02  0.81673450877E+02  0.11266961858E+03  0.15787090350E+03  0.00000000000E+00 0. -1.
         11    1    4    4    0    0  0.38171642073E+02  0.81882142860E+02  0.24522245739E+03  0.26133467658E+03  0.00000000000E+00 0.  1.
</event>
<event>
 8    1  0.6965441E-009  0.1820596E+03  0.7561462E-02  0.1165824E+00
         -1   -1    0    0    0  501 -0.00000000000E+00  0.00000000000E+00  0.36510341046E+03  0.36510341046E+03  0.00000000000E+00 0.  1.
          1   -1    0    0  501    0  0.00000000000E+00 -0.00000000000E+00 -0.12804383947E+03  0.12804383947E+03  0.00000000000E+00 0. -1.
         25    2    1    2    0    0 -0.16020259284E+03 -0.69521475942E+02  0.48523722214E+02  0.22022759066E+03  0.12509010233E+03 0.  0.
         23    2    1    2    0    0  0.16020259284E+03  0.69521475942E+02  0.18853584878E+03  0.27291965927E+03  0.91876372214E+02 0.  0.
          5    1    3    3  502    0 -0.22314576489E+02 -0.27644915202E+02 -0.37919805050E+02  0.52130275996E+02  0.41800000000E+01 0.  1.
         -5    1    3    3    0  502 -0.13788801635E+03 -0.41876560740E+02  0.86443527264E+02  0.16809731467E+03  0.41800000000E+01 0.  1.
        -11    1    4    4    0    0  0.91958326040E+02  0.70588604849E+02  0.67993360270E+02  0.13439561713E+03  0.00000000000E+00 0. -1.
         11    1    4    4    0    0  0.68244266798E+02 -0.10671289068E+01  0.12054248851E+03  0.13852404214E+03  0.00000000000E+00 0.  1.
</event>
<event>
 8    1  0.6965441E-009  0.1543349E+03  0.7561462E-02  0.1195245E+00
          2   -1    0    0  501    0  0.00000000000E+00  0.00000000000E+00  0.10496424292E+03  0.10496424292E+03  0.00000000000E+00 0. -1.
         -2   -1    0    0    0  501 -0.00000000000E+00 -0.00000000000E+00 -0.29792998867E+03  0.29792998867E+03  0.00000000000E+00 0.  1.
         25    2    1    2    0    0  0.11582719146E+03 -0.68290511661E+02 -0.60356277138E+02  0.19329263951E+03  0.12505851445E+03 0.  0.
         23    2    1    2    0    0 -0.11582719146E+03  0.68290511661E+02 -0.13260946861E+03  0.20960159207E+03  0.90928675177E+02 0.  0.
          5    1    3    3  502    0  0.32865534688E+02 -0.52837803024E+02  0.30326538825E+02  0.69348022003E+02  0.41800000000E+01 0. -1.
         -5    1    3    3    0  502  0.82961656771E+02 -0.15452708637E+02 -0.90682815962E+02  0.12394461751E+03  0.41800000000E+01 0. -1.
        -11    1    4    4    0    0 -0.72211061811E+02  0.88096707439E+02 -0.85622958003E+02  0.14250178331E+03  0.00000000000E+00 0.  1.
         11    1    4    4    0    0 -0.43616129648E+02 -0.19806195778E+02 -0.46986510607E+02  0.67099808760E+02  0.00000000000E+00 0. -1.
</event>
<event>
 7    1  0.8621265E-009  0.6312555E+02  0.7561462E-02  0.1385164E+00
          2   -1    0    0  501    0  0.00000000000E+00  0.00000000000E+00  0.19222296693E+03  0.19222296693E+03  0.00000000000E+00 0. -1.
         -2   -1    0    0    0  501 -0.00000000000E+00 -0.00000000000E+00 -0.51867880413E+02  0.51867880413E+02  0.00000000000E+00 0.  1.
         25    2    1    2    0    0 -0.14019191368E+01 -0.20078262696E+02  0.13870496433E+03  0.18785883902E+03  0.12508706672E+03 0.  0.
          5    1    3    3  502    0  0.14994822293E+02  0.20716949488E+02  0.14126239427E+03  0.14361954298E+03  0.41800000000E+01 0.  1.
         -5    1    3    3    0  502 -0.16396741430E+02 -0.40795212184E+02 -0.25574299389E+01  0.44239296045E+02  0.41800000000E+01 0.  1.
        -11    1    1    2    0    0 -0.10607291632E+02 -0.15409615629E+02 -0.39181699314E+00  0.18711611640E+02  0.00000000000E+00 0. -1.
         11    1    1    2    0    0  0.12009210769E+02  0.35487878325E+02  0.20419391817E+01  0.37520396679E+02  0.00000000000E+00 0.  1.
</event>
<event>
 8    1  0.6965441E-009  0.9818813E+02  0.7561462E-02  0.1284153E+00
         -1   -1    0    0    0  501 -0.00000000000E+00  0.00000000000E+00  0.49169174422E+02  0.49169174422E+02  0.00000000000E+00 0.  1.
          1   -1    0    0  501    0  0.00000000000E+00 -0.00000000000E+00 -0.36420230896E+03  0.36420230896E+03  0.00000000000E+00 0. -1.
         25    2    1    2    0    0  0.67423696716E+02 -0.36294718483E+02 -0.20024560473E+03  0.24821302156E+03  0.12509252733E+03 0.  0.
         23    2    1    2    0    0 -0.67423696716E+02  0.36294718483E+02 -0.11478752981E+03  0.16515846181E+03  0.90762762410E+02 0.  0.
          5    1    3    3  502    0 -0.80995430438E+01 -0.38790090545E+02 -0.67111820603E+01  0.40407747854E+02  0.41800000000E+01 0.  1.
         -5    1    3    3    0  502  0.75523239760E+02  0.24953720617E+01 -0.19353442267E+03  0.20780527371E+03  0.41800000000E+01 0.  1.
        -11    1    4    4    0    0 -0.21014605730E+02 -0.13997141377E+01  0.12526278223E+02  0.24504703626E+02  0.00000000000E+00 0.  1.
         11    1    4    4    0    0 -0.46409090986E+02  0.37694432621E+02 -0.12731380803E+03  0.14065375819E+03  0.00000000000E+00 0. -1.
</event>
<event>
 8    1  0.6965441E-009  0.1303291E+03  0.7561462E-02  0.1226968E+00
         -2   -1    0    0    0  501 -0.00000000000E+00  0.00000000000E+00  0.37270159514E+02  0.37270159514E+02  0.00000000000E+00 0.  1.
          2   -1    0    0  501    0  0.00000000000E+00 -0.00000000000E+00 -0.56216286362E+03  0.56216286362E+03  0.00000000000E+00 0. -1.
         25    2    1    2    0    0 -0.82998079341E+02  0.41221215344E+02 -0.32190125165E+03  0.35756930039E+03  0.12509004356E+03 0.  0.
         23    2    1    2    0    0  0.82998079341E+02 -0.41221215344E+02 -0.20299145246E+03  0.24186372275E+03  0.93298771915E+02 0.  0.
          5    1    3    3  502    0 -0.79878087420E+02  0.67533704895E+02 -0.31180276755E+03  0.32890689929E+03  0.41800000000E+01 0. -1.
         -5    1    3    3    0  502 -0.31199919213E+01 -0.26312489551E+02 -0.10098484102E+02  0.28662401106E+02  0.41800000000E+01 0. -1.
        -11    1    4    4    0    0  0.49026417695E+02 -0.69428662424E+02 -0.11080971765E+03  0.13965214758E+03  0.00000000000E+00 0.  1.
         11    1    4    4    0    0  0.33971661646E+02  0.28207447080E+02 -0.92181734811E+02  0.10221157517E+03  0.00000000000E+00 0. -1.
</event>
<event>
 8    1  0.6965441E-009  0.1117696E+03  0.7561462E-02  0.1257328E+00
          2   -1    0    0  501    0  0.00000000000E+00  0.00000000000E+00  0.79518711516E+03  0.79518711516E+03  0.00000000000E+00 0. -1.
         -2   -1    0    0    0  501 -0.00000000000E+00 -0.00000000000E+00 -0.16392766473E+02  0.16392766473E+02  0.00000000000E+00 0.  1.
         25    2    1    2    0    0  0.32007572088E+02 -0.25947516946E+02  0.46219275764E+03  0.48059120337E+03  0.12509197111E+03 0.  0.
         23    2    1    2    0    0 -0.32007572088E+02  0.25947516946E+02  0.31660159105E+03  0.33098867826E+03  0.87287910836E+02 0.  0.
          5    1    3    3  502    0  0.68811459392E+02 -0.49599286403E+02  0.34853276913E+03  0.35873063671E+03  0.41800000000E+01 0. -1.
         -5    1    3    3    0  502 -0.36803887303E+02  0.23651769458E+02  0.11365998851E+03  0.12186056666E+03  0.41800000000E+01 0. -1.
        -11    1    4    4    0    0  0.94103013908E+01  0.47188388866E+02  0.19315340405E+03  0.19905661333E+03  0.00000000000E+00 0. -1.
         11    1    4    4    0    0 -0.41417873479E+02 -0.21240871921E+02  0.12344818700E+03  0.13193206493E+03  0.00000000000E+00 0.  1.
</event>
<event>
 8    1  0.6965441E-009  0.1285314E+03  0.7561462E-02  0.1229651E+00
          1   -1    0    0  501    0  0.00000000000E+00  0.00000000000E+00  0.11477076785E+04  0.11477076785E+04  0.00000000000E+00 0. -1.
         -1   -1    0    0    0  501 -0.00000000000E+00 -0.00000000000E+00 -0.36931670050E+02  0.36931670050E+02  0.00000000000E+00 0.  1.
         25    2    1    2    0    0  0.56152881234E+02  0.85539377964E+02  0.98560670365E+03  0.99876907085E+03  0.12509576877E+03 0.  0.
         23    2    1    2    0    0 -0.56152881234E+02 -0.85539377964E+02  0.12516930477E+03  0.18587027767E+03  0.91707546086E+02 0.  0.
          5    1    3    3  502    0  0.60459695478E+02  0.10130191304E+03  0.53595454425E+03  0.54880069084E+03  0.41800000000E+01 0.  1.
         -5    1    3    3    0  502 -0.43068142441E+01 -0.15762535081E+02  0.44965215939E+03  0.44996838001E+03  0.41800000000E+01 0.  1.
        -11    1    4    4    0    0  0.10149224010E+02 -0.41095174802E+02  0.64588224570E+01  0.42819814661E+02  0.00000000000E+00 0. -1.
         11    1    4    4    0    0 -0.66302105244E+02 -0.44444203162E+02  0.11871048232E+03  0.14305046301E+03  0.00000000000E+00 0.  1.
</event>
<event>
 8    1  0.6965441E-009  0.1830532E+03  0.7561462E-02  0.1164880E+00
         -3   -1    0    0    0  501 -0.00000000000E+00  0.00000000000E+00  0.47899019553E+03  0.47899019553E+03  0.00000000000E+00 0.  1.
          3   -1    0    0  501    0  0.00000000000E+00 -0.00000000000E+00 -0.70508502710E+02  0.70508502710E+02  0.00000000000E+00 0. -1.
         25    2    1    2    0    0  0.56166310233E+02 -0.13703869528E+03  0.20030695283E+03  0.27875435998E+03  0.12508740724E+03 0.  0.
         23    2    1    2    0    0 -0.56166310233E+02  0.13703869528E+03  0.20817473999E+03  0.27074433825E+03  0.89618725275E+02 0.  0.
          5    1    3    3  502    0  0.16696143923E+02  0.23076568873E+02  0.26517315883E+02  0.39139873460E+02  0.41800000000E+01 0.  1.
         -5    1    3    3    0  502  0.39470166310E+02 -0.16011526415E+03  0.17378963695E+03  0.23961448652E+03  0.41800000000E+01 0.  1.
        -11    1    4    4    0    0  0.21820087320E+02  0.54978110171E+02  0.59770549579E+02  0.84090590471E+02  0.00000000000E+00 0.  1.
         11    1    4    4    0    0 -0.77986397553E+02  0.82060585104E+02  0.14840419041E+03  0.18665374778E+03  0.00000000000E+00 0. -1.
</event>
<event>
 8    1  0.6965441E-009  0.3509552E+03  0.7561462E-02  0.1062224E+00
          1   -1    0    0  501    0  0.00000000000E+00  0.00000000000E+00  0.53193549382E+03  0.53193549382E+03  0.00000000000E+00 0. -1.
         -1   -1    0    0    0  501 -0.00000000000E+00 -0.00000000000E+00 -0.24924941460E+03  0.24924941460E+03  0.00000000000E+00 0.  1.
         25    2    1    2    0    0  0.13194892289E+03 -0.32107372011E+03  0.15247697321E+03  0.39924154676E+03  0.12508290573E+03 0.  0.
         23    2    1    2    0    0 -0.13194892289E+03  0.32107372011E+03  0.13020910601E+03  0.38194336166E+03  0.91801243079E+02 0.  0.
          5    1    3    3  502    0 -0.14598484574E+00 -0.10381306979E+02  0.42802839737E+02  0.44241929611E+02  0.41800000000E+01 0.  1.
         -5    1    3    3    0  502  0.13209490773E+03 -0.31069241313E+03  0.10967413347E+03  0.35499961715E+03  0.41800000000E+01 0.  1.
        -11    1    4    4    0    0 -0.77145503415E+02  0.25916927551E+03  0.12815880317E+03  0.29924040652E+03  0.00000000000E+00 0. -1.
         11    1    4    4    0    0 -0.54803419471E+02  0.61904444593E+02  0.20503028491E+01  0.82702955134E+02  0.00000000000E+00 0.  1.
</event>
<event>
 8    1  0.6965441E-009  0.1042443E+03  0.7561462E-02  0.1271616E+00
         -2   -1    0    0    0  501 -0.00000000000E+00  0.00000000000E+00  0.25957636071E+02  0.25957636071E+02  0.00000000000E+00 0. -1.
          2   -1    0    0  501    0  0.00000000000E+00 -0.00000000000E+00 -0.81145829339E+03  0.81145829339E+03  0.00000000000E+00 0.  1.
         25    2    1    2    0    0  0.43011527215E+02 -0.44950548571E+01 -0.67775013526E+03  0.69055334911E+03  0.12509390523E+03 0.  0.
         23    2    1    2    0    0 -0.43011527215E+02  0.44950548571E+01 -0.10775052206E+03  0.14686258035E+03  0.89934673586E+02 0.  0.
          5    1    3    3  502    0 -0.26385847223E+02 -0.39820973557E+02 -0.16223633863E+03  0.16917453958E+03  0.41800000000E+01 0.  1.
         -5    1    3    3    0  502  0.69397374438E+02  0.35325918700E+02 -0.51551379663E+03  0.52137880953E+03  0.41800000000E+01 0.  1.
        -11    1    4    4    0    0 -0.17901741551E+02  0.37222214751E+02 -0.95154721167E+02  0.10373228322E+03  0.00000000000E+00 0.  1.
         11    1    4    4    0    0 -0.25109785664E+02 -0.32727159894E+02 -0.12595800890E+02  0.43130297134E+02  0.00000000000E+00 0. -1.
</event>
<event>
 8    1  0.6965441E-009  0.1023853E+03  0.7561462E-02  0.1275358E+00
         -1   -1    0    0    0  501 -0.00000000000E+00  0.00000000000E+00  0.11368632053E+03  0.11368632053E+03  0.00000000000E+00 0.  1.
          1   -1    0    0  501    0  0.00000000000E+00 -0.00000000000E+00 -0.21772480633E+03  0.21772480633E+03  0.00000000000E+00 0. -1.
         25    2    1    2    0    0  0.11303034891E+02  0.30622867589E+02 -0.16968877427E+03  0.21333126972E+03  0.12510168628E+03 0.  0.
         23    2    1    2    0    0 -0.11303034891E+02 -0.30622867589E+02  0.65650288473E+02  0.11807985714E+03  0.92560108407E+02 0.  0.
          5    1    3    3  502    0  0.57225068376E+02  0.22409542390E+02 -0.15067759794E+03  0.16278239144E+03  0.41800000000E+01 0.  1.
         -5    1    3    3    0  502 -0.45922033485E+02  0.82133251993E+01 -0.19011176326E+02  0.50548878282E+02  0.41800000000E+01 0.  1.
        -11    1    4    4    0    0  0.23344739700E+02 -0.51035196401E+02  0.49192372283E+02  0.74628798960E+02  0.00000000000E+00 0.  1.
         11    1    4    4    0    0 -0.34647774591E+02  0.20412328811E+02  0.16457916190E+02  0.43451058180E+02  0.00000000000E+00 0. -1.
</event>
<event>
 8    1  0.6965441E-009  0.1137337E+03  0.7561462E-02  0.1253808E+00
          4   -1    0    0  501    0  0.00000000000E+00  0.00000000000E+00  0.86936013255E+02  0.86936013255E+02  0.00000000000E+00 0. -1.
         -4   -1    0    0    0  501 -0.00000000000E+00 -0.00000000000E+00 -0.18649497961E+03  0.18649497961E+03  0.00000000000E+00 0.  1.
         25    2    1    2    0    0 -0.55784628102E+02  0.73730976336E+01 -0.19361559424E+02  0.13852060747E+03  0.12508717524E+03 0.  0.
         23    2    1    2    0    0  0.55784628102E+02 -0.73730976336E+01 -0.80197406933E+02  0.13491038539E+03  0.92751823200E+02 0.  0.
          5    1    3    3  502    0 -0.45877122124E+02 -0.46230201631E+02  0.23168766524E+02  0.69254646194E+02  0.41800000000E+01 0.  1.
         -5    1    3    3    0  502 -0.99075059782E+01  0.53603299265E+02 -0.42530325948E+02  0.69265961280E+02  0.41800000000E+01 0.  1.
        -11    1    4    4    0    0  0.54863533167E+02  0.35046745094E+02 -0.57133962536E+02  0.86617384447E+02  0.00000000000E+00 0. -1.
         11    1    4    4    0    0  0.92109493467E+00 -0.42419842728E+02 -0.23063444397E+02  0.48293000946E+02  0.00000000000E+00 0.  1.
</event>
<event>
 8    1  0.6965441E-009  0.1138990E+03  0.7561462E-02  0.1253515E+00
          1   -1    0    0  501    0  0.00000000000E+00  0.00000000000E+00  0.78050397023E+02  0.78050397023E+02  0.00000000000E+00 0. -1.
         -1   -1    0    0    0  501 -0.00000000000E+00 -0.00000000000E+00 -0.32263010183E+03  0.32263010183E+03  0.00000000000E+00 0.  1.
         25    2    1    2    0    0  0.71010385375E+02  0.98144104711E+01 -0.16801537889E+02  0.14515059023E+03  0.12509038606E+03 0.  0.
         23    2    1    2    0    0 -0.71010385375E+02 -0.98144104711E+01 -0.22777816691E+03  0.25552990862E+03  0.90960669476E+02 0.  0.
          5    1    3    3  502    0  0.90069434839E+02  0.19082795562E+02  0.27233120378E+02  0.96102920997E+02  0.41800000000E+01 0. -1.
         -5    1    3    3    0  502 -0.19059049463E+02 -0.92683850908E+01 -0.44034658267E+02  0.49047669234E+02  0.41800000000E+01 0. -1.
        -11    1    4    4    0    0 -0.47212654997E+02 -0.49090616087E+02 -0.11347061141E+03  0.13234237052E+03  0.00000000000E+00 0.  1.
         11    1    4    4    0    0 -0.23797730378E+02  0.39276205616E+02 -0.11430755550E+03  0.12318753810E+03  0.00000000000E+00 0. -1.
</event>
<event>
 7    1  0.6965441E-009  0.8381087E+02  0.7561462E-02  0.1318572E+00
         -3   -1    0    0    0  501 -0.00000000000E+00  0.00000000000E+00  0.27330238430E+03  0.27330238430E+03  0.00000000000E+00 0.  1.
          3   -1    0    0  501    0  0.00000000000E+00 -0.00000000000E+00 -0.56865018916E+02  0.56865018916E+02  0.00000000000E+00 0. -1.
         23    2    1    2    0    0  0.14551298096E+02  0.46966207519E+02  0.14729491960E+03  0.17918457152E+03  0.89407787169E+02 0.  0.
          5    1    1    2  502    0 -0.27956747320E+02  0.11973064159E+02 -0.24617288302E+02  0.39349933538E+02  0.41800000000E+01 0.  1.
         -5    1    1    2    0  502  0.13405449223E+02 -0.58939271678E+02  0.93759734092E+02  0.11163289816E+03  0.41800000000E+01 0.  1.
        -11    1    3    3    0    0  0.36656142276E+02  0.37010661226E+02  0.14587847489E+03  0.15489993947E+03  0.00000000000E+00 0.  1.
         11    1    3    3    0    0 -0.22104844180E+02  0.99555462932E+01  0.14164447061E+01  0.24284632050E+02  0.00000000000E+00 0. -1.
</event>
<event>
 8    1  0.6965441E-009  0.1291073E+03  0.7561462E-02  0.1228786E+00
          1   -1    0    0  501    0  0.00000000000E+00  0.00000000000E+00  0.65278636770E+02  0.65278636770E+02  0.00000000000E+00 0. -1.
         -1   -1    0    0    0  501 -0.00000000000E+00 -0.00000000000E+00 -0.28370090030E+03  0.28370090030E+03  0.00000000000E+00 0.  1.
         25    2    1    2    0    0 -0.77309482894E+02 -0.44531122846E+01 -0.90339393988E+02  0.17264183868E+03  0.12508961588E+03 0.  0.
         23    2    1    2    0    0  0.77309482894E+02  0.44531122846E+01 -0.12808286954E+03  0.17633769839E+03  0.93237203141E+02 0.  0.
          5    1    3    3  502    0 -0.10924081223E+03 -0.11054338163E+02 -0.85898981689E+02  0.13946992831E+03  0.41800000000E+01 0.  1.
         -5    1    3    3    0  502  0.31931329332E+02  0.66012258787E+01 -0.44404122990E+01  0.33171910367E+02  0.41800000000E+01 0.  1.
        -11    1    4    4    0    0  0.41838692790E+02 -0.40480324795E+02 -0.91336727364E+02  0.10831219080E+03  0.00000000000E+00 0. -1.
         11    1    4    4    0    0  0.35470790104E+02  0.44933437079E+02 -0.36746142177E+02  0.68025507593E+02  0.00000000000E+00 0.  1.
</event>
<event>
 8    1  0.6965441E-009  0.1268625E+03  0.7561462E-02  0.1232187E+00
         -2   -1    0    0    0  501 -0.00000000000E+00  0.00000000000E+00  0.38520188466E+02  0.38520188466E+02  0.00000000000E+00 0.  1.
          2   -1    0    0  501    0  0.00000000000E+00 -0.00000000000E+00 -0.45171183035E+03  0.45171183035E+03  0.00000000000E+00 0. -1.
         25    2    1    2    0    0  0.70025287837E+02  0.27636578968E+02 -0.22171119246E+03  0.26546407163E+03  0.12509196231E+03 0.  0.
         23    2    1    2    0    0 -0.70025287837E+02 -0.27636578968E+02 -0.19148044942E+03  0.22476794718E+03  0.90490585883E+02 0.  0.
          5    1    3    3  502    0 -0.23199315034E+02  0.37111451008E+02 -0.11645890024E+03  0.12448138760E+03  0.41800000000E+01 0.  1.
         -5    1    3    3    0  502  0.93224602871E+02 -0.94748720393E+01 -0.10525229222E+03  0.14098268404E+03  0.41800000000E+01 0.  1.
        -11    1    4    4    0    0 -0.33852396703E+02  0.31759220598E+02 -0.96136238861E+02  0.10675583955E+03  0.00000000000E+00 0.  1.
         11    1    4    4    0    0 -0.36172891134E+02 -0.59395799567E+02 -0.95344210563E+02  0.11801210763E+03  0.00000000000E+00 0. -1.
</event>
<event>
 8    1  0.6965441E-009  0.1037667E+03  0.7561462E-02  0.1272569E+00
         -3   -1    0    0    0  501 -0.00000000000E+00  0.00000000000E+00  0.50753921134E+02  0.50753921134E+02  0.00000000000E+00 0.  1.
          3   -1    0    0  501    0  0.00000000000E+00 -0.00000000000E+00 -0.30032843782E+03  0.30032843782E+03  0.00000000000E+00 0. -1.
         25    2    1    2    0    0 -0.22064896585E+02 -0.16699963141E+02 -0.21432836958E+03  0.24969959756E+03  0.12508992998E+03 0.  0.
         23    2    1    2    0    0  0.22064896585E+02  0.16699963141E+02 -0.35246147104E+02  0.10138276140E+03  0.90941877001E+02 0.  0.
          5    1    3    3  502    0  0.21246146732E+02 -0.52708769051E+02 -0.16551386182E+03  0.17504834744E+03  0.41800000000E+01 0. -1.
         -5    1    3    3    0  502 -0.43311043317E+02  0.36008805910E+02 -0.48814507758E+02  0.74651250117E+02  0.41800000000E+01 0. -1.
        -11    1    4    4    0    0 -0.35113175115E+02  0.27838264485E+01 -0.20350697579E+02  0.40679671192E+02  0.00000000000E+00 0.  1.
         11    1    4    4    0    0  0.57178071700E+02  0.13916136693E+02 -0.14895449525E+02  0.60703090204E+02  0.00000000000E+00 0. -1.
</event>
<event>
 8    1  0.6965441E-009  0.1284338E+03  0.7561462E-02  0.1229798E+00
         -3   -1    0    0    0  501 -0.00000000000E+00  0.00000000000E+00  0.21254895259E+03  0.21254895259E+03  0.00000000000E+00 0. -1.
          3   -1    0    0  501    0  0.00000000000E+00 -0.00000000000E+00 -0.90320656767E+02  0.90320656767E+02  0.00000000000E+00 0.  1.
         25    2    1    2    0    0 -0.77445779270E+02  0.22011340248E+02  0.98817459041E+02  0.17857025871E+03  0.12506038245E+03 0.  0.
         23    2    1    2    0    0  0.77445779270E+02 -0.22011340248E+02  0.23410836782E+02  0.12429935064E+03  0.91760086450E+02 0.  0.
          5    1    3    3  502    0 -0.96606646249E+02 -0.16511814875E+02  0.40857159012E+02  0.10626506468E+03  0.41800000000E+01 0.  1.
         -5    1    3    3    0  502  0.19160866979E+02  0.38523155123E+02  0.57960300029E+02  0.72305194028E+02  0.41800000000E+01 0.  1.
        -11    1    4    4    0    0  0.17698185569E+02 -0.47421679553E+02  0.30325285761E+02  0.59005630414E+02  0.00000000000E+00 0.  1.
         11    1    4    4    0    0  0.59747593702E+02  0.25410339305E+02 -0.69144489798E+01  0.65293720229E+02  0.00000000000E+00 0. -1.
</event>
<event>
 8    1  0.6965441E-009  0.9350510E+02  0.7561462E-02  0.1294579E+00
          2   -1    0    0  501    0  0.00000000000E+00  0.00000000000E+00  0.25408951655E+03  0.25408951655E+03  0.00000000000E+00 0. -1.
         -2   -1    0    0    0  501 -0.00000000000E+00 -0.00000000000E+00 -0.54499857004E+02  0.54499857004E+02  0.00000000000E+00 0.  1.
         25    2    1    2    0    0  0.38930844145E+02  0.20505737461E+02  0.85519132750E+02  0.15779310712E+03  0.12509614979E+03 0.  0.
         23    2    1    2    0    0 -0.38930844145E+02 -0.20505737461E+02  0.11407052679E+03  0.15079626643E+03  0.88268527758E+02 0.  0.
          5    1    3    3  502    0 -0.31817439582E+02  0.30834932914E+02  0.72394775542E+02  0.84980106349E+02  0.41800000000E+01 0.  1.
         -5    1    3    3    0  502  0.70748283727E+02 -0.10329195452E+02  0.13124357208E+02  0.72813000770E+02  0.41800000000E+01 0.  1.
        -11    1    4    4    0    0 -0.37537816989E+02  0.11181561773E+02  0.78570817667E+01  0.39948075821E+02  0.00000000000E+00 0.  1.
         11    1    4    4    0    0 -0.13930271564E+01 -0.31687299234E+02  0.10621344503E+03  0.11084819061E+03  0.00000000000E+00 0. -1.
</event>
<event>
 8    1  0.6965441E-009  0.9500834E+02  0.7561462E-02  0.1291157E+00
          4   -1    0    0  501    0  0.00000000000E+00  0.00000000000E+00  0.38429690307E+03  0.38429690307E+03  0.00000000000E+00 0. -1.
         -4   -1    0    0    0  501 -0.00000000000E+00 -0.00000000000E+00 -0.48981545949E+02  0.48981545949E+02  0.00000000000E+00 0.  1.
         25    2    1    2    0    0 -0.30740164739E+02  0.62830555403E+02  0.25315311387E+03  0.29090616314E+03  0.12508900938E+03 0.  0.
         23    2    1    2    0    0  0.30740164739E+02 -0.62830555403E+02  0.82162243254E+02  0.14237228589E+03  0.92879476482E+02 0.  0.
          5    1    3    3  502    0  0.23931090701E+02  0.15310235700E+02  0.12292783352E+01  0.28741676091E+02  0.41800000000E+01 0.  1.
         -5    1    3    3    0  502 -0.54671255440E+02  0.47520319703E+02  0.25192383554E+03  0.26216448704E+03  0.41800000000E+01 0.  1.
        -11    1    4    4    0    0  0.17220727471E+02  0.62748526102E+01  0.68156000407E+02  0.70577387465E+02  0.00000000000E+00 0. -1.
         11    1    4    4    0    0  0.13519437268E+02 -0.69105408013E+02  0.14006242848E+02  0.71794898422E+02  0.00000000000E+00 0.  1.
</event>
<event>
 8    1  0.6965441E-009  0.8596978E+02  0.7561462E-02  0.1312916E+00
         -2   -1    0    0    0  501 -0.00000000000E+00  0.00000000000E+00  0.88446967043E+02  0.88446967043E+02  0.00000000000E+00 0.  1.
          2   -1    0    0  501    0  0.00000000000E+00 -0.00000000000E+00 -0.17406575036E+03  0.17406575036E+03  0.00000000000E+00 0. -1.
         25    2    1    2    0    0  0.16828519655E+02  0.42212372758E+02 -0.65265940784E+01  0.13325063447E+03  0.12509217269E+03 0.  0.
         23    2    1    2    0    0 -0.16828519655E+02 -0.42212372758E+02 -0.79092189241E+02  0.12926208294E+03  0.91586179078E+02 0.  0.
          5    1    3    3  502    0  0.29972039673E+02 -0.27889043862E+01  0.50726987370E+02  0.59133753453E+02  0.41800000000E+01 0. -1.
         -5    1    3    3    0  502 -0.13143520018E+02  0.45001277145E+02 -0.57253581449E+02  0.74116881018E+02  0.41800000000E+01 0. -1.
        -11    1    4    4    0    0  0.59834885972E+01  0.23851361243E+02 -0.45493689326E+02  0.51714266285E+02  0.00000000000E+00 0.  1.
         11    1    4    4    0    0 -0.22812008252E+02 -0.66063734001E+02 -0.33598499915E+02  0.77547816650E+02  0.00000000000E+00 0. -1.
</event>
<event>
 8    1  0.6965441E-009  0.1228164E+03  0.7561462E-02  0.1238522E+00
          2   -1    0    0  501    0  0.00000000000E+00  0.00000000000E+00  0.10236984907E+04  0.10236984907E+04  0.00000000000E+00 0. -1.
         -2   -1    0    0    0  501 -0.00000000000E+00 -0.00000000000E+00 -0.16150799941E+02  0.16150799941E+02  0.00000000000E+00 0.  1.
         25    2    1    2    0    0  0.54486105066E+02 -0.28099266404E+02  0.68496805875E+03  0.69899020139E+03  0.12509098978E+03 0.  0.
         23    2    1    2    0    0 -0.54486105066E+02  0.28099266404E+02  0.32257963201E+03  0.34085908924E+03  0.91482213108E+02 0.  0.
          5    1    3    3  502    0  0.35350144575E+02  0.46414574672E+02  0.21809425479E+03  0.22580195268E+03  0.41800000000E+01 0. -1.
         -5    1    3    3    0  502  0.19135960491E+02 -0.74513841076E+02  0.46687380396E+03  0.47318824871E+03  0.41800000000E+01 0. -1.
        -11    1    4    4    0    0 -0.15973907920E+02  0.58744445499E+02  0.18228193698E+03  0.19217903153E+03  0.00000000000E+00 0. -1.
         11    1    4    4    0    0 -0.38512197146E+02 -0.30645179095E+02  0.14029769503E+03  0.14868005771E+03  0.00000000000E+00 0.  1.
</event>
<event>
 8    1  0.6965441E-009  0.1740135E+03  0.7561462E-02  0.1173726E+00
         -3   -1    0    0    0  501 -0.00000000000E+00  0.00000000000E+00  0.13003778991E+04  0.13003778991E+04  0.00000000000E+00 0.  1.
          3   -1    0    0  501    0  0.00000000000E+00 -0.00000000000E+00 -0.30957071280E+02  0.30957071280E+02  0.00000000000E+00 0. -1.
         25    2    1    2    0    0 -0.12151811621E+03 -0.10012866682E+03  0.86213540843E+03  0.88527601847E+03  0.12507503319E+03 0.  0.
         23    2    1    2    0    0  0.12151811621E+03  0.10012866682E+03  0.40728541939E+03  0.44605895191E+03  0.91075645706E+02 0.  0.
          5    1    3    3  502    0 -0.32974243527E+02  0.21706783283E+02  0.86949661534E+02  0.95583477743E+02  0.41800000000E+01 0.  1.
         -5    1    3    3    0  502 -0.88543872686E+02 -0.12183545011E+03  0.77518574689E+03  0.78969254073E+03  0.41800000000E+01 0.  1.
        -11    1    4    4    0    0  0.96711160707E+02  0.75383372228E+02  0.38612257043E+03  0.40512509279E+03  0.00000000000E+00 0.  1.
         11    1    4    4    0    0  0.24806955506E+02  0.24745294596E+02  0.21162848964E+02  0.40933859119E+02  0.00000000000E+00 0. -1.
</event>
<event>
 8    1  0.6965441E-009  0.2963678E+03  0.7561462E-02  0.1087071E+00
          2   -1    0    0  501    0  0.00000000000E+00  0.00000000000E+00  0.77718677511E+02  0.77718677511E+02  0.00000000000E+00 0. -1.
         -2   -1    0    0    0  501 -0.00000000000E+00 -0.00000000000E+00 -0.13537405403E+04  0.13537405403E+04  0.00000000000E+00 0.  1.
         25    2    1    2    0    0 -0.22296147967E+02 -0.29477202434E+03 -0.81737788827E+03  0.87814680373E+03  0.12509009599E+03 0.  0.
         23    2    1    2    0    0  0.22296147967E+02  0.29477202434E+03 -0.45864397454E+03  0.55331241411E+03  0.91720595697E+02 0.  0.
          5    1    3    3  502    0 -0.14575990903E+01 -0.75452460613E+02 -0.86958623594E+02  0.11521489932E+03  0.41800000000E+01 0.  1.
         -5    1    3    3    0  502 -0.20838548877E+02 -0.21931956373E+03 -0.73041926468E+03  0.76293190441E+03  0.41800000000E+01 0.  1.
        -11    1    4    4    0    0  0.27038405801E+02  0.18856872963E+03 -0.21362896640E+03  0.28622818950E+03  0.00000000000E+00 0. -1.
         11    1    4    4    0    0 -0.47422578342E+01  0.10620329471E+03 -0.24501500815E+03  0.26708422461E+03  0.00000000000E+00 0.  1.
</event>
<event>
 8    1  0.6965441E-009  0.8135315E+02  0.7561462E-02  0.1325255E+00
         -2   -1    0    0    0  501 -0.00000000000E+00  0.00000000000E+00  0.39589347305E+02  0.39589347305E+02  0.00000000000E+00 0.  1.
          2   -1    0    0  501    0  0.00000000000E+00 -0.00000000000E+00 -0.37501267039E+03  0.37501267039E+03  0.00000000000E+00 0. -1.
         25    2    1    2    0    0 -0.21738652469E+02 -0.25257088990E+02 -0.26469320957E+03  0.29465239826E+03  0.12508817311E+03 0.  0.
         23    2    1    2    0    0  0.21738652469E+02  0.25257088990E+02 -0.70730113512E+02  0.11994961943E+03  0.90965227913E+02 0.  0.
          5    1    3    3  502    0 -0.50790802414E+02  0.18395039211E+02 -0.21695347461E+03  0.22361655937E+03  0.41800000000E+01 0.  1.
         -5    1    3    3    0  502  0.29052149946E+02 -0.43652128202E+02 -0.47739734958E+02  0.71035838890E+02  0.41800000000E+01 0.  1.
        -11    1    4    4    0    0  0.76534529167E+01  0.36877423081E+02  0.85268513443E+01  0.38616406727E+02  0.00000000000E+00 0.  1.
         11    1    4    4    0    0  0.14085199552E+02 -0.11620334091E+02 -0.79256964857E+02  0.81333212706E+02  0.00000000000E+00 0. -1.
</event>
<event>
 8    1  0.6965441E-009  0.1098234E+03  0.7561462E-02  0.1260897E+00
         -1   -1    0    0    0  501 -0.00000000000E+00  0.00000000000E+00  0.10363199281E+03  0.10363199281E+03  0.00000000000E+00 0.  1.
          1   -1    0    0  501    0  0.00000000000E+00 -0.00000000000E+00 -0.19733078597E+03  0.19733078597E+03  0.00000000000E+00 0. -1.
         25    2    1    2    0    0  0.54973533789E+02 -0.61770338005E+02 -0.95123313671E+02  0.17755900842E+03  0.12506435381E+03 0.  0.
         23    2    1    2    0    0 -0.54973533789E+02  0.61770338005E+02  0.14245205084E+01  0.12340377036E+03  0.91590377249E+02 0.  0.
          5    1    3    3  502    0  0.87946211437E+02 -0.39099851301E+02 -0.97746699751E+02  0.13724148130E+03  0.41800000000E+01 0. -1.
         -5    1    3    3    0  502 -0.32972677647E+02 -0.22670486705E+02  0.26233860803E+01  0.40317527122E+02  0.41800000000E+01 0. -1.
        -11    1    4    4    0    0 -0.30937444325E+02  0.40628963123E+02 -0.44288872245E+02  0.67596910511E+02  0.00000000000E+00 0. -1.
         11    1    4    4    0    0 -0.24036089464E+02  0.21141374882E+02  0.45713392754E+02  0.55806859844E+02  0.00000000000E+00 0.  1.
</event>
<event>
 8    1  0.6965441E-009  0.6201853E+02  0.7561462E-02  0.1389551E+00
          1   -1    0    0  501    0  0.00000000000E+00  0.00000000000E+00  0.45145424528E+02  0.45145424528E+02  0.00000000000E+00 0. -1.
         -1   -1    0    0    0  501 -0.00000000000E+00 -0.00000000000E+00 -0.14702464431E+04  0.14702464431E+04  0.00000000000E+00 0.  1.
         25    2    1    2    0    0 -0.22802589083E+02 -0.20430401390E+02 -0.14121374558E+04  0.14179974790E+04  0.12508915618E+03 0.  0.
         23    2    1    2    0    0  0.22802589083E+02  0.20430401390E+02 -0.12963562808E+02  0.97394388668E+02  0.91543725145E+02 0.  0.
          5    1    3    3  502    0 -0.29540585778E+01 -0.39817042256E+02 -0.14241269106E+03  0.14796273278E+03  0.41800000000E+01 0. -1.
         -5    1    3    3    0  502 -0.19848530506E+02  0.19386640866E+02 -0.12697247647E+04  0.12700347462E+04  0.41800000000E+01 0. -1.
        -11    1    4    4    0    0  0.20239477967E+02  0.35329348198E+02  0.30825782121E+02  0.51068857005E+02  0.00000000000E+00 0. -1.
         11    1    4    4    0    0  0.25631111167E+01 -0.14898946807E+02 -0.43789344929E+02  0.46325531663E+02  0.00000000000E+00 0.  1.
</event>
<event>
 8    1  0.6965441E-009  0.7766034E+02  0.7561462E-02  0.1335825E+00
          1   -1    0    0  501    0  0.00000000000E+00  0.00000000000E+00  0.11971542709E+03  0.11971542709E+03  0.00000000000E+00 0. -1.
         -1   -1    0    0    0  501 -0.00000000000E+00 -0.00000000000E+00 -0.10591054890E+03  0.10591054890E+03  0.00000000000E+00 0.  1.
         25    2    1    2    0    0  0.17111022445E+02 -0.17604124344E+02 -0.41928842344E+01  0.12754503642E+03  0.12508982274E+03 0.  0.
         23    2    1    2    0    0 -0.17111022445E+02  0.17604124344E+02  0.17997762419E+02  0.98080939570E+02  0.93237647824E+02 0.  0.
          5    1    3    3  502    0  0.11923225742E+02 -0.46629188789E+02  0.47587340080E+02  0.67812033557E+02  0.41800000000E+01 0.  1.
         -5    1    3    3    0  502  0.51877967028E+01  0.29025064446E+02 -0.51780224314E+02  0.59733002860E+02  0.41800000000E+01 0.  1.
        -11    1    4    4    0    0  0.33105690052E+01  0.43850284959E+02 -0.19375499153E+02  0.48054316409E+02  0.00000000000E+00 0.  1.
         11    1    4    4    0    0 -0.20421591450E+02 -0.26246160615E+02  0.37373261572E+02  0.50026623161E+02  0.00000000000E+00 0. -1.
</event>
<event>
 8    1  0.6965441E-009  0.1257836E+03  0.7561462E-02  0.1233850E+00
         -2   -1    0    0    0  501 -0.00000000000E+00  0.00000000000E+00  0.73955347422E+02  0.73955347422E+02  0.00000000000E+00 0. -1.
          2   -1    0    0  501    0  0.00000000000E+00 -0.00000000000E+00 -0.24789317361E+03  0.24789317361E+03  0.00000000000E+00 0.  1.
         25    2    1    2    0    0 -0.77961999842E+02  0.52166552097E+01 -0.12061506311E+03  0.19052728895E+03  0.12508943791E+03 0.  0.
         23    2    1    2    0    0  0.77961999842E+02 -0.52166552097E+01 -0.53322763074E+02  0.13132123208E+03  0.91086014411E+02 0.  0.
          5    1    3    3  502    0 -0.80629190132E+02 -0.44540565756E+02 -0.52752316375E+02  0.10623185766E+03  0.41800000000E+01 0.  1.
         -5    1    3    3    0  502  0.26671902900E+01  0.49757220966E+02 -0.67862746734E+02  0.84295431291E+02  0.41800000000E+01 0.  1.
        -11    1    4    4    0    0  0.27648995459E+01 -0.30039754012E+02  0.79487360995E+01  0.31196376331E+02  0.00000000000E+00 0. -1.
         11    1    4    4    0    0  0.75197100296E+02  0.24823098803E+02 -0.61271499173E+02  0.10012485575E+03  0.00000000000E+00 0.  1.
</event>
<event>
 8    1  0.6965441E-009  0.7667690E+02  0.7561462E-02  0.1338755E+00
          4   -1    0    0  501    0  0.00000000000E+00  0.00000000000E+00  0.14261731435E+03  0.14261731435E+03  0.00000000000E+00 0. -1.
         -4   -1    0    0    0  501 -0.00000000000E+00 -0.00000000000E+00 -0.11294445697E+03  0.11294445697E+03  0.00000000000E+00 0.  1.
         25    2    1    2    0    0 -0.46023908561E+02  0.30708634664E+02 -0.20772058775E+02  0.13834869055E+03  0.12509061255E+03 0.  0.
         23    2    1    2    0    0  0.46023908561E+02 -0.30708634664E+02  0.50444916156E+02  0.11721308078E+03  0.90183126677E+02 0.  0.
          5    1    3    3  502    0 -0.33916953388E+02 -0.13648796996E+02  0.44911630908E+02  0.58061832363E+02  0.41800000000E+01 0.  1.
         -5    1    3    3    0  502 -0.12106955174E+02  0.44357431660E+02 -0.65683689682E+02  0.80286858186E+02  0.41800000000E+01 0.  1.
        -11    1    4    4    0    0 -0.47498674982E+01 -0.17202724336E+02 -0.21616894124E+02  0.28031858258E+02  0.00000000000E+00 0.  1.
         11    1    4    4    0    0  0.50773776060E+02 -0.13505910328E+02  0.72061810280E+02  0.89181222519E+02  0.00000000000E+00 0. -1.
</event>
<event>
 8    1  0.6965441E-009  0.8251225E+02  0.7561462E-02  0.1322070E+00
         -2   -1    0    0    0  501 -0.00000000000E+00  0.00000000000E+00  0.11473491418E+03  0.11473491418E+03  0.00000000000E+00 0.  1.
          2   -1    0    0  501    0  0.00000000000E+00 -0.00000000000E+00 -0.17579480952E+03  0.17579480952E+03  0.00000000000E+00 0. -1.
         25    2    1    2    0    0  0.46785656737E+02 -0.61275260427E+02 -0.83701753949E+02  0.16910633475E+03  0.12508962235E+03 0.  0.
         23    2    1    2    0    0 -0.46785656737E+02  0.61275260427E+02  0.22641858612E+02  0.12142338896E+03  0.91035325056E+02 0.  0.
          5    1    3    3  502    0  0.43031728083E+02 -0.59465778880E+02 -0.11541801252E+03  0.13684552785E+03  0.41800000000E+01 0. -1.
         -5    1    3    3    0  502  0.37539286540E+01 -0.18094815468E+01  0.31716258569E+02  0.32260806893E+02  0.41800000000E+01 0. -1.
        -11    1    4    4    0    0 -0.10066966195E+02 -0.38982431282E+01 -0.28720480247E+02  0.30682341721E+02  0.00000000000E+00 0. -1.
         11    1    4    4    0    0 -0.36718690542E+02  0.65173503555E+02  0.51362338859E+02  0.90741047238E+02  0.00000000000E+00 0.  1.
</event>
<event>
 8    1  0.6965441E-009  0.1159453E+03  0.7561462E-02  0.1249940E+00
         -2   -1    0    0    0  501 -0.00000000000E+00  0.00000000000E+00  0.12671409484E+03  0.12671409484E+03  0.00000000000E+00 0.  1.
          2   -1    0    0  501    0  0.00000000000E+00 -0.00000000000E+00 -0.15948502915E+03  0.15948502915E+03  0.00000000000E+00 0. -1.
         25    2    1    2    0    0  0.35185481906E+02  0.71680499766E+02 -0.63930117516E+02  0.16158753416E+03  0.12508940437E+03 0.  0.
         23    2    1    2    0    0 -0.35185481906E+02 -0.71680499766E+02  0.31159183203E+02  0.12461158983E+03  0.90449109667E+02 0.  0.
          5    1    3    3  502    0 -0.33132493927E+02  0.62091781143E+01 -0.57334600544E+02  0.66641164953E+02  0.41800000000E+01 0. -1.
         -5    1    3    3    0  502  0.68317975833E+02  0.65471321651E+02 -0.65955169715E+01  0.94946369203E+02  0.41800000000E+01 0. -1.
        -11    1    4    4    0    0 -0.52252243896E+02 -0.35408094517E+02 -0.13555725735E+02  0.64558406499E+02  0.00000000000E+00 0. -1.
         11    1    4    4    0    0  0.17066761990E+02 -0.36272405248E+02  0.44714908938E+02  0.60053183335E+02  0.00000000000E+00 0.  1.
</event>
<event>
 8    1  0.6965441E-009  0.7476760E+02  0.7561462E-02  0.1344592E+00
          1   -1    0    0  501    0  0.00000000000E+00  0.00000000000E+00  0.35817142561E+02  0.35817142561E+02  0.00000000000E+00 0. -1.
         -1   -1    0    0    0  501 -0.00000000000E+00 -0.00000000000E+00 -0.39090761580E+03  0.39090761580E+03  0.00000000000E+00 0.  1.
         25    2    1    2    0    0 -0.66062335567E+01  0.48146747960E+02 -0.20498730859E+03  0.24500927448E+03  0.12509195112E+03 0.  0.
         23    2    1    2    0    0  0.66062335567E+01 -0.48146747960E+02 -0.15010316464E+03  0.18171548388E+03  0.90154342025E+02 0.  0.
          5    1    3    3  502    0 -0.67504431787E+01  0.58502341059E+02 -0.24084871158E+02  0.63762416918E+02  0.41800000000E+01 0.  1.
         -5    1    3    3    0  502  0.14420962198E+00 -0.10355593099E+02 -0.18090243743E+03  0.18124685756E+03  0.41800000000E+01 0.  1.
        -11    1    4    4    0    0  0.31946495971E+02 -0.42836865106E+02 -0.14603785028E+03  0.15550765040E+03  0.00000000000E+00 0.  1.
         11    1    4    4    0    0 -0.25340262414E+02 -0.53098828535E+01 -0.40653143596E+01  0.26207833485E+02  0.00000000000E+00 0. -1.
</event>
<event>
 8    1  0.6965441E-009  0.1036984E+03  0.7561462E-02  0.1272706E+00
          2   -1    0    0  501    0  0.00000000000E+00  0.00000000000E+00  0.77765648778E+03  0.77765648778E+03  0.00000000000E+00 0. -1.
         -2   -1    0    0    0  501 -0.00000000000E+00 -0.00000000000E+00 -0.22605191216E+02  0.22605191216E+02  0.00000000000E+00 0.  1.
         25    2    1    2    0    0 -0.64602119344E+02  0.45563084027E+01  0.54113430096E+03  0.55916709359E+03  0.12508922056E+03 0.  0.
         23    2    1    2    0    0  0.64602119344E+02 -0.45563084027E+01  0.21391699560E+03  0.24109458541E+03  0.90398696542E+02 0.  0.
          5    1    3    3  502    0 -0.46656893166E+02  0.53237340615E+02  0.16703750346E+03  0.18146647094E+03  0.41800000000E+01 0.  1.
         -5    1    3    3    0  502 -0.17945226179E+02 -0.48681032212E+02  0.37409679751E+03  0.37770062264E+03  0.41800000000E+01 0.  1.
        -11    1    4    4    0    0  0.28715422705E+02 -0.29157530247E+02  0.26641850270E+02  0.48831601009E+02  0.00000000000E+00 0.  1.
         11    1    4    4    0    0  0.35886696639E+02  0.24601221844E+02  0.18727514533E+03  0.19226298440E+03  0.00000000000E+00 0. -1.
</event>
<event>
 8    1  0.6965441E-009  0.2924117E+03  0.7561462E-02  0.1089097E+00
         -1   -1    0    0    0  501 -0.00000000000E+00  0.00000000000E+00  0.12624612586E+03  0.12624612586E+03  0.00000000000E+00 0.  1.
          1   -1    0    0  501    0  0.00000000000E+00 -0.00000000000E+00 -0.76378520077E+03  0.76378520077E+03  0.00000000000E+00 0. -1.
         25    2    1    2    0    0  0.28212083640E+03  0.67390373443E+02 -0.30090747500E+03  0.43626472103E+03  0.12509184444E+03 0.  0.
         23    2    1    2    0    0 -0.28212083640E+03 -0.67390373443E+02 -0.33663159991E+03  0.45376660560E+03  0.91922084045E+02 0.  0.
          5    1    3    3  502    0  0.19260767374E+03  0.40500076121E+02 -0.11461367048E+03  0.22779758122E+03  0.41800000000E+01 0. -1.
         -5    1    3    3    0  502  0.89513162656E+02  0.26890297322E+02 -0.18629380452E+03  0.20846713981E+03  0.41800000000E+01 0. -1.
        -11    1    4    4    0    0 -0.66480842695E+02  0.56655758435E+01 -0.33516543357E+02  0.74666993201E+02  0.00000000000E+00 0.  1.
         11    1    4    4    0    0 -0.21563999370E+03 -0.73055949286E+02 -0.30311505655E+03  0.37909961239E+03  0.00000000000E+00 0. -1.
</event>
<event>
 8    1  0.6965441E-009  0.1350760E+03  0.7561462E-02  0.1220112E+00
         -1   -1    0    0    0  501 -0.00000000000E+00  0.00000000000E+00  0.44838348751E+03  0.44838348751E+03  0.00000000000E+00 0.  1.
          1   -1    0    0  501    0  0.00000000000E+00 -0.00000000000E+00 -0.45034451833E+02  0.45034451833E+02  0.00000000000E+00 0. -1.
         25    2    1    2    0    0  0.25141200767E+02 -0.78521946378E+02  0.28923752596E+03  0.32573280277E+03  0.12508291785E+03 0.  0.
         23    2    1    2    0    0 -0.25141200767E+02  0.78521946378E+02  0.11411150972E+03  0.16768513657E+03  0.91099354218E+02 0.  0.
          5    1    3    3  502    0 -0.41730480097E+02 -0.69571122795E+02  0.17621498816E+03  0.19403805953E+03  0.41800000000E+01 0.  1.
         -5    1    3    3    0  502  0.66871680864E+02 -0.89508235836E+01  0.11302253780E+03  0.13169474323E+03  0.41800000000E+01 0.  1.
        -11    1    4    4    0    0 -0.11376222875E+02 -0.19370764223E+02  0.11634474447E+02  0.25298338861E+02  0.00000000000E+00 0.  1.
         11    1    4    4    0    0 -0.13764977892E+02  0.97892710601E+02  0.10247703527E+03  0.14238679771E+03  0.00000000000E+00 0. -1.
</event>
<event>
 8    1  0.6965441E-009  0.1337655E+03  0.7561462E-02  0.1221973E+00
          1   -1    0    0  501    0  0.00000000000E+00  0.00000000000E+00  0.50434019549E+03  0.50434019549E+03  0.00000000000E+00 0. -1.
         -1   -1    0    0    0  501 -0.00000000000E+00 -0.00000000000E+00 -0.44021406133E+02  0.44021406133E+02  0.00000000000E+00 0.  1.
         25    2    1    2    0    0 -0.53688332070E+01 -0.10143995265E+03  0.25624742565E+03  0.30270298344E+03  0.12508982640E+03 0.  0.
         23    2    1    2    0    0  0.53688332070E+01  0.10143995265E+03  0.20407136371E+03  0.24565861819E+03  0.91564986967E+02 0.  0.
          5    1    3    3  502    0  0.53696914874E+02 -0.31580452767E+02  0.62196061373E+02  0.88127782874E+02  0.41800000000E+01 0.  1.
         -5    1    3    3    0  502 -0.59065748081E+02 -0.69859499886E+02  0.19405136428E+03  0.21457520057E+03  0.41800000000E+01 0.  1.
        -11    1    4    4    0    0  0.27820850972E+02  0.65181852974E+02  0.18653991394E+03  0.19954902455E+03  0.00000000000E+00 0. -1.
         11    1    4    4    0    0 -0.22452017765E+02  0.36258099680E+02  0.17531449767E+02  0.46109593634E+02  0.00000000000E+00 0.  1.
</event>
<event>
 8    1  0.6965441E-009  0.1018638E+03  0.7561462E-02  0.1276425E+00
          1   -1    0    0  501    0  0.00000000000E+00  0.00000000000E+00  0.49123964981E+03  0.49123964981E+03  0.00000000000E+00 0. -1.
         -1   -1    0    0    0  501 -0.00000000000E+00 -0.00000000000E+00 -0.43538888891E+02  0.43538888891E+02  0.00000000000E+00 0.  1.
         25    2    1    2    0    0  0.88415834049E+02  0.17331372098E+02  0.17204050043E+03  0.23100696110E+03  0.12509414902E+03 0.  0.
         23    2    1    2    0    0 -0.88415834049E+02 -0.17331372098E+02  0.27566026048E+03  0.30377157759E+03  0.90392787185E+02 0.  0.
          5    1    3    3  502    0  0.29153633265E+02  0.10705275116E+02  0.16821266788E+03  0.17110672483E+03  0.41800000000E+01 0.  1.
         -5    1    3    3    0  502  0.59262200784E+02  0.66260969820E+01  0.38278325518E+01  0.59900236269E+02  0.41800000000E+01 0.  1.
        -11    1    4    4    0    0 -0.68903108671E+02  0.18911243000E+02  0.97261587535E+02  0.12068591428E+03  0.00000000000E+00 0.  1.
         11    1    4    4    0    0 -0.19512725379E+02 -0.36242615098E+02  0.17839867295E+03  0.18308566331E+03  0.00000000000E+00 0. -1.
</event>
<event>
 7    1  0.6965441E-009  0.1601060E+03  0.7561462E-02  0.1188577E+00
         -2   -1    0    0    0  501 -0.00000000000E+00  0.00000000000E+00  0.28153450592E+02  0.28153450592E+02  0.00000000000E+00 0.  1.
          2   -1    0    0  501    0  0.00000000000E+00 -0.00000000000E+00 -0.10921752510E+04  0.10921752510E+04  0.00000000000E+00 0. -1.
         23    2    1    2    0    0  0.77764053240E+02 -0.96836030707E+02 -0.31398013730E+03  0.34986277965E+03  0.91629542957E+02 0.  0.
          5    1    1    2  502    0 -0.12711919182E+01 -0.27743422541E+02 -0.16801399092E+03  0.17034519942E+03  0.41800000000E+01 0. -1.
         -5    1    1    2    0  502 -0.76492861322E+02  0.12457945325E+03 -0.58202767220E+03  0.60012072253E+03  0.41800000000E+01 0. -1.
        -11    1    3    3    0    0 -0.15014238279E+02 -0.64194742574E+01 -0.86959056627E+02  0.88478893135E+02  0.00000000000E+00 0.  1.
         11    1    3    3    0    0  0.92778291519E+02 -0.90416556449E+02 -0.22702108067E+03  0.26138388651E+03  0.00000000000E+00 0. -1.
</event>
<event>
 8    1  0.6965441E-009  0.1186916E+03  0.7561462E-02  0.1245271E+00
         -1   -1    0    0    0  501 -0.00000000000E+00  0.00000000000E+00  0.29016573784E+02  0.29016573784E+02  0.00000000000E+00 0.  1.
          1   -1    0    0  501    0  0.00000000000E+00 -0.00000000000E+00 -0.73055480065E+03  0.73055480065E+03  0.00000000000E+00 0. -1.
         25    2    1    2    0    0 -0.66204207050E+02  0.57500326646E+02 -0.27531858779E+03  0.31485778738E+03  0.12508323986E+03 0.  0.
         23    2    1    2    0    0  0.66204207050E+02 -0.57500326646E+02 -0.42621963908E+03  0.44471358706E+03  0.91748074549E+02 0.  0.
          5    1    3    3  502    0 -0.49625413366E+02  0.75747853723E+02 -0.89588552652E+02  0.12745195237E+03  0.41800000000E+01 0. -1.
         -5    1    3    3    0  502 -0.16578793684E+02 -0.18247527077E+02 -0.18573003514E+03  0.18740583501E+03  0.41800000000E+01 0. -1.
        -11    1    4    4    0    0  0.12829964401E+02  0.22295559417E+02 -0.15232756616E+03  0.15448426253E+03  0.00000000000E+00 0. -1.
         11    1    4    4    0    0  0.53374242649E+02 -0.79795886063E+02 -0.27389207292E+03  0.29022932453E+03  0.00000000000E+00 0.  1.
</event>
<event>
 8    1  0.6965441E-009  0.1468300E+03  0.7561462E-02  0.1204423E+00
         -2   -1    0    0    0  501 -0.00000000000E+00  0.00000000000E+00  0.93445219765E+02  0.93445219765E+02  0.00000000000E+00 0.  1.
          2   -1    0    0  501    0  0.00000000000E+00 -0.00000000000E+00 -0.29472798472E+03  0.29472798472E+03  0.00000000000E+00 0. -1.
         25    2    1    2    0    0 -0.44731678055E+02 -0.10495958502E+03 -0.45802595275E+02  0.17539507477E+03  0.12509243387E+03 0.  0.
         23    2    1    2    0    0  0.44731678055E+02  0.10495958502E+03 -0.15548016968E+03  0.21277812972E+03  0.89905571639E+02 0.  0.
          5    1    3    3  502    0 -0.59846461639E+02 -0.11544901081E+03 -0.67556401676E+02  0.14659949821E+03  0.41800000000E+01 0. -1.
         -5    1    3    3    0  502  0.15114783584E+02  0.10489425795E+02  0.21753806402E+02  0.28795576557E+02  0.41800000000E+01 0. -1.
        -11    1    4    4    0    0  0.66626403626E+02  0.10304581407E+03 -0.12463687640E+03  0.17490531271E+03  0.00000000000E+00 0. -1.
         11    1    4    4    0    0 -0.21894725571E+02  0.19137709522E+01 -0.30843293284E+02  0.37872817002E+02  0.00000000000E+00 0.  1.
</event>
<event>
 8    1  0.6965441E-009  0.2017064E+03  0.7561462E-02  0.1148307E+00
          2   -1    0    0  501    0  0.00000000000E+00  0.00000000000E+00  0.31081056427E+03  0.31081056427E+03  0.00000000000E+00 0.  1.
         -2   -1    0    0    0  501 -0.00000000000E+00 -0.00000000000E+00 -0.17574766850E+03  0.17574766850E+03  0.00000000000E+00 0. -1.
         25    2    1    2    0    0  0.56299598727E+00 -0.17431929579E+03 -0.46157130088E+02  0.21946240809E+03  0.12508290873E+03 0.  0.
         23    2    1    2    0    0 -0.56299598727E+00  0.17431929579E+03  0.18122002585E+03  0.26709582468E+03  0.90066353016E+02 0.  0.
          5    1    3    3  502    0 -0.61131386657E+02 -0.67935360689E+02 -0.21081015024E+02  0.93883658115E+02  0.41800000000E+01 0. -1.
         -5    1    3    3    0  502  0.61694382645E+02 -0.10638393510E+03 -0.25076115064E+02  0.12557874997E+03  0.41800000000E+01 0. -1.
        -11    1    4    4    0    0  0.34265359271E+02  0.57093906519E+02  0.31160903370E+02  0.73517555090E+02  0.00000000000E+00 0. -1.
         11    1    4    4    0    0 -0.34828355258E+02  0.11722538927E+03  0.15005912248E+03  0.19357826960E+03  0.00000000000E+00 0.  1.
</event>
<event>
 8    1  0.6965441E-009  0.1538380E+03  0.7561462E-02  0.1195835E+00
         -1   -1    0    0    0  501 -0.00000000000E+00  0.00000000000E+00  0.36761250314E+02  0.36761250314E+02  0.00000000000E+00 0.  1.
          1   -1    0    0  501    0  0.00000000000E+00 -0.00000000000E+00 -0.70044788699E+03  0.70044788699E+03  0.00000000000E+00 0. -1.
         25    2    1    2    0    0 -0.89702909070E+02 -0.72133257787E+02 -0.29709161638E+03  0.34229693238E+03  0.12511571691E+03 0.  0.
         23    2    1    2    0    0  0.89702909070E+02  0.72133257787E+02 -0.36659502030E+03  0.39491220493E+03  0.91180710243E+02 0.  0.
          5    1    3    3  502    0 -0.81527650893E+02  0.69870960494E+01 -0.20364972044E+03  0.21951368615E+03  0.41800000000E+01 0. -1.
         -5    1    3    3    0  502 -0.81752581771E+01 -0.79120353836E+02 -0.93441895941E+02  0.12278324623E+03  0.41800000000E+01 0. -1.
        -11    1    4    4    0    0  0.35225335411E+02 -0.18920392775E+02 -0.11903612802E+03  0.12557231101E+03  0.00000000000E+00 0.  1.
         11    1    4    4    0    0  0.54477573659E+02  0.91053650562E+02 -0.24755889228E+03  0.26933989392E+03  0.00000000000E+00 0. -1.
</event>
<event>
 8    1  0.6965441E-009  0.2899442E+03  0.7561462E-02  0.1090378E+00
          2   -1    0    0  501    0  0.00000000000E+00  0.00000000000E+00  0.83509017571E+03  0.83509017571E+03  0.00000000000E+00 0. -1.
         -2   -1    0    0    0  501 -0.00000000000E+00 -0.00000000000E+00 -0.10451816971E+03  0.10451816971E+03  0.00000000000E+00 0.  1.
         25    2    1    2    0    0  0.27106069663E+03 -0.44638731146E+02  0.38228989588E+03  0.48709297516E+03  0.12508990521E+03 0.  0.
         23    2    1    2    0    0 -0.27106069663E+03  0.44638731146E+02  0.34828211013E+03  0.45251537026E+03  0.89460686937E+02 0.  0.
          5    1    3    3  502    0  0.20481285559E+03  0.24123911227E+02  0.25992649577E+03  0.33182755237E+03  0.41800000000E+01 0. -1.
         -5    1    3    3    0  502  0.66247841040E+02 -0.68762642373E+02  0.12236340011E+03  0.15526542279E+03  0.41800000000E+01 0. -1.
        -11    1    4    4    0    0 -0.12147011255E+03  0.41682310788E+02  0.10053535583E+03  0.16309433175E+03  0.00000000000E+00 0.  1.
         11    1    4    4    0    0 -0.14959058408E+03  0.29564203578E+01  0.24774675430E+03  0.28942103851E+03  0.00000000000E+00 0. -1.
</event>
<event>
 8    1  0.6965441E-009  0.2136930E+03  0.7561462E-02  0.1138674E+00
         -2   -1    0    0    0  501 -0.00000000000E+00  0.00000000000E+00  0.65167646767E+02  0.65167646767E+02  0.00000000000E+00 0.  1.
          2   -1    0    0  501    0  0.00000000000E+00 -0.00000000000E+00 -0.77714518570E+03  0.77714518570E+03  0.00000000000E+00 0. -1.
         25    2    1    2    0    0 -0.15857923941E+03  0.11591159828E+03 -0.34174862518E+03  0.41354741843E+03  0.12508585329E+03 0.  0.
         23    2    1    2    0    0  0.15857923941E+03 -0.11591159828E+03 -0.37022891376E+03  0.42876541404E+03  0.90484572755E+02 0.  0.
          5    1    3    3  502    0 -0.45163978065E+01  0.39027342352E+02 -0.11605711447E+02  0.41178832407E+02  0.41800000000E+01 0.  1.
         -5    1    3    3    0  502 -0.15406284160E+03  0.76884255927E+02 -0.33014291373E+03  0.37236858602E+03  0.41800000000E+01 0.  1.
        -11    1    4    4    0    0 -0.22647183085E+01 -0.35948615545E+02 -0.50413951423E+02  0.61959651441E+02  0.00000000000E+00 0. -1.
         11    1    4    4    0    0  0.16084395772E+03 -0.79962982734E+02 -0.31981496234E+03  0.36680576260E+03  0.00000000000E+00 0.  1.
</event>
<event>
 8    1  0.6965441E-009  0.1129389E+03  0.7561462E-02  0.1255222E+00
          2   -1    0    0  501    0  0.00000000000E+00  0.00000000000E+00  0.14107259217E+04  0.14107259217E+04  0.00000000000E+00 0. -1.
         -2   -1    0    0    0  501 -0.00000000000E+00 -0.00000000000E+00 -0.16214602019E+02  0.16214602019E+02  0.00000000000E+00 0.  1.
         25    2    1    2    0    0 -0.26360426153E+01  0.42595570573E+02  0.12065770352E+04  0.12137947229E+04  0.12509258928E+03 0.  0.
         23    2    1    2    0    0  0.26360426153E+01 -0.42595570573E+02  0.18793428445E+03  0.21314580088E+03  0.91052214733E+02 0.  0.
          5    1    3    3  502    0 -0.12549498427E+02 -0.40110842977E+02  0.60374601464E+03  0.60522152327E+03  0.41800000000E+01 0.  1.
         -5    1    3    3    0  502  0.99134558112E+01  0.82706413550E+02  0.60283102060E+03  0.60857319958E+03  0.41800000000E+01 0.  1.
        -11    1    4    4    0    0  0.25913168864E+01 -0.71393724484E+02  0.14136679667E+03  0.15839302390E+03  0.00000000000E+00 0. -1.
         11    1    4    4    0    0  0.44725728859E-01  0.28798153911E+02  0.46567487785E+02  0.54752776986E+02  0.00000000000E+00 0.  1.
</event>
<event>
 8    1  0.6965441E-009  0.9981267E+02  0.7561462E-02  0.1280690E+00
          1   -1    0    0  501    0  0.00000000000E+00  0.00000000000E+00  0.17333737694E+03  0.17333737694E+03  0.00000000000E+00 0. -1.
         -1   -1    0    0    0  501 -0.00000000000E+00 -0.00000000000E+00 -0.11735740753E+03  0.11735740753E+03  0.00000000000E+00 0.  1.
         25    2    1    2    0    0  0.41576646940E+02  0.16167850483E+02 -0.52455659194E+02  0.14279119079E+03  0.12509081111E+03 0.  0.
         23    2    1    2    0    0 -0.41576646940E+02 -0.16167850483E+02  0.10843562860E+03  0.14790359369E+03  0.90150820935E+02 0.  0.
          5    1    3    3  502    0  0.74326820628E+02  0.44924507855E+02 -0.46506654675E+02  0.98605420742E+02  0.41800000000E+01 0. -1.
         -5    1    3    3    0  502 -0.32750173687E+02 -0.28756657372E+02 -0.59490045188E+01  0.44185770046E+02  0.41800000000E+01 0. -1.
        -11    1    4    4    0    0 -0.41201766333E+01 -0.29006014005E+02 -0.31833679131E+01  0.29469620548E+02  0.00000000000E+00 0.  1.
         11    1    4    4    0    0 -0.37456470307E+02  0.12838163523E+02  0.11161899652E+03  0.11843397314E+03  0.00000000000E+00 0. -1.
</event>
<event>
 8    1  0.6965441E-009  0.9584153E+02  0.7561462E-02  0.1289292E+00
         -1   -1    0    0    0  501 -0.00000000000E+00  0.00000000000E+00  0.17830511831E+03  0.17830511831E+03  0.00000000000E+00 0.  1.
          1   -1    0    0  501    0  0.00000000000E+00 -0.00000000000E+00 -0.74475864069E+02  0.74475864069E+02  0.00000000000E+00 0. -1.
         25    2    1    2    0    0  0.18082138042E+02 -0.16050246067E+02  0.92122152151E+02  0.15722285563E+03  0.12509181148E+03 0.  0.
         23    2    1    2    0    0 -0.18082138042E+02  0.16050246067E+02  0.11707102093E+02  0.95558126754E+02  0.91704554054E+02 0.  0.
          5    1    3    3  502    0  0.50744744974E+02  0.14431937141E+02  0.98581234015E+02  0.11188852511E+03  0.41800000000E+01 0. -1.
         -5    1    3    3    0  502 -0.32662606932E+02 -0.30482183208E+02 -0.64590818634E+01  0.45334330515E+02  0.41800000000E+01 0. -1.
        -11    1    4    4    0    0 -0.40586995120E+02 -0.24574576676E+02 -0.82858737832E+00  0.47454194217E+02  0.00000000000E+00 0. -1.
         11    1    4    4    0    0  0.22504857078E+02  0.40624822743E+02  0.12535689471E+02  0.48103932537E+02  0.00000000000E+00 0.  1.
</event>
<event>
 8    1  0.6965441E-009  0.6335979E+02  0.7561462E-02  0.1384250E+00
          2   -1    0    0  501    0  0.00000000000E+00  0.00000000000E+00  0.13328278101E+03  0.13328278101E+03  0.00000000000E+00 0. -1.
         -2   -1    0    0    0  501 -0.00000000000E+00 -0.00000000000E+00 -0.98119445766E+02  0.98119445766E+02  0.00000000000E+00 0.  1.
         25    2    1    2    0    0  0.86261745075E+00 -0.28175066999E+02  0.37524196395E+02  0.13358137836E+03  0.12506534620E+03 0.  0.
         23    2    1    2    0    0 -0.86261745075E+00  0.28175066999E+02 -0.23608611472E+01  0.97820848423E+02  0.93641690563E+02 0.  0.
          5    1    3    3  502    0 -0.95872900985E+01 -0.54087500044E+02 -0.28312641279E+02  0.61939097900E+02  0.41800000000E+01 0.  1.
         -5    1    3    3    0  502  0.10449907549E+02  0.25912433044E+02  0.65836837674E+02  0.71642280456E+02  0.41800000000E+01 0.  1.
        -11    1    4    4    0    0  0.15454294660E+02  0.79085992923E+01 -0.44797076754E+02  0.48043306005E+02  0.00000000000E+00 0.  1.
         11    1    4    4    0    0 -0.16316912111E+02  0.20266467707E+02  0.42436215607E+02  0.49777542418E+02  0.00000000000E+00 0. -1.
</event>
<event>
 8    1  0.6965441E-009  0.1540652E+03  0.7561462E-02  0.1195565E+00
          1   -1    0    0  501    0  0.00000000000E+00  0.00000000000E+00  0.36095658662E+03  0.36095658662E+03  0.00000000000E+00 0. -1.
         -1   -1    0    0    0  501 -0.00000000000E+00 -0.00000000000E+00 -0.99247546264E+02  0.99247546264E+02  0.00000000000E+00 0.  1.
         25    2    1    2    0    0 -0.70785883298E+02  0.95768743699E+02  0.17447816648E+02  0.17359193151E+03  0.12508972314E+03 0.  0.
         23    2    1    2    0    0  0.70785883298E+02 -0.95768743699E+02  0.24426122370E+03  0.28661220137E+03  0.91108259923E+02 0.  0.
          5    1    3    3  502    0 -0.58879079442E+02  0.12079734840E+03 -0.94032760269E+01  0.13477625672E+03  0.41800000000E+01 0. -1.
         -5    1    3    3    0  502 -0.11906803855E+02 -0.25028604698E+02  0.26851092675E+02  0.38815674785E+02  0.41800000000E+01 0. -1.
        -11    1    4    4    0    0 -0.17314173669E+02 -0.27430707718E+01  0.11645030931E+02  0.21045469643E+02  0.00000000000E+00 0.  1.
         11    1    4    4    0    0  0.88100056967E+02 -0.93025672928E+02  0.23261619277E+03  0.26556673173E+03  0.00000000000E+00 0. -1.
</event>
<event>
 8    1  0.6965441E-009  0.2100470E+03  0.7561462E-02  0.1141529E+00
         -2   -1    0    0    0  501 -0.00000000000E+00  0.00000000000E+00  0.46414796376E+02  0.46414796376E+02  0.00000000000E+00 0.  1.
          2   -1    0    0  501    0  0.00000000000E+00 -0.00000000000E+00 -0.11410900852E+04  0.11410900852E+04  0.00000000000E+00 0. -1.
         25    2    1    2    0    0 -0.66597493651E+02 -0.18932926555E+03 -0.63426839265E+03  0.67692296802E+03  0.12509002265E+03 0.  0.
         23    2    1    2    0    0  0.66597493651E+02  0.18932926555E+03 -0.46040689617E+03  0.51058191355E+03  0.91861762712E+02 0.  0.
          5    1    3    3  502    0 -0.59335600780E+02 -0.78873637122E+02 -0.14623810603E+03  0.17647895118E+03  0.41800000000E+01 0.  1.
         -5    1    3    3    0  502 -0.72618928704E+01 -0.11045562843E+03 -0.48803028661E+03  0.50044401684E+03  0.41800000000E+01 0.  1.
        -11    1    4    4    0    0 -0.10759682947E+02  0.50230727490E+02 -0.18989008389E+03  0.19671588833E+03  0.00000000000E+00 0. -1.
         11    1    4    4    0    0  0.77357176598E+02  0.13909853806E+03 -0.27051681228E+03  0.31386602522E+03  0.00000000000E+00 0.  1.
</event>
<event>
 8    1  0.6965441E-009  0.1111680E+03  0.7561462E-02  0.1258422E+00
         -1   -1    0    0    0  501 -0.00000000000E+00  0.00000000000E+00  0.24622177417E+03  0.24622177417E+03  0.00000000000E+00 0.  1.
          1   -1    0    0  501    0  0.00000000000E+00 -0.00000000000E+00 -0.81999305308E+02  0.81999305308E+02  0.00000000000E+00 0. -1.
         25    2    1    2    0    0 -0.86422362818E+02  0.10401539298E+02  0.57834534687E+02  0.16300220744E+03  0.12509144420E+03 0.  0.
         23    2    1    2    0    0  0.86422362818E+02 -0.10401539298E+02  0.10638793417E+03  0.16521887204E+03  0.91661694972E+02 0.  0.
          5    1    3    3  502    0 -0.89568272305E+02  0.75822330963E+01  0.91783760619E+02  0.12853675263E+03  0.41800000000E+01 0.  1.
         -5    1    3    3    0  502  0.31459094869E+01  0.28193062019E+01 -0.33949225932E+02  0.34465454811E+02  0.41800000000E+01 0.  1.
        -11    1    4    4    0    0 -0.17877199627E+02 -0.12953177238E+02  0.18684392854E+02  0.28922060842E+02  0.00000000000E+00 0. -1.
         11    1    4    4    0    0  0.10429956245E+03  0.25516379395E+01  0.87703541318E+02  0.13629681120E+03  0.00000000000E+00 0.  1.
</event>
<event>
 8    1  0.6965441E-009  0.9469219E+02  0.7561462E-02  0.1291871E+00
         -1   -1    0    0    0  501 -0.00000000000E+00  0.00000000000E+00  0.23271142846E+02  0.23271142846E+02  0.00000000000E+00 0.  1.
          1   -1    0    0  501    0  0.00000000000E+00 -0.00000000000E+00 -0.66128258201E+03  0.66128258201E+03  0.00000000000E+00 0. -1.
         25    2    1    2    0    0 -0.22789169856E+01  0.58383660610E+01 -0.51641914753E+03  0.53139051046E+03  0.12509140135E+03 0.  0.
         23    2    1    2    0    0  0.22789169856E+01 -0.58383660610E+01 -0.12159229163E+03  0.15316321439E+03  0.92924726946E+02 0.  0.
          5    1    3    3  502    0 -0.58475241009E+02 -0.21045739858E+02 -0.28219909311E+03  0.28899148349E+03  0.41800000000E+01 0. -1.
         -5    1    3    3    0  502  0.56196324023E+02  0.26884105919E+02 -0.23422005441E+03  0.24239902697E+03  0.41800000000E+01 0. -1.
        -11    1    4    4    0    0 -0.24422737093E+02  0.16808998562E+02 -0.11339096245E+03  0.11720291329E+03  0.00000000000E+00 0. -1.
         11    1    4    4    0    0  0.26701654079E+02 -0.22647364623E+02 -0.82013291882E+01  0.35960301102E+02  0.00000000000E+00 0.  1.
</event>
<event>
 8    1  0.6965441E-009  0.8875851E+02  0.7561462E-02  0.1305886E+00
          2   -1    0    0  501    0  0.00000000000E+00  0.00000000000E+00  0.19726333017E+02  0.19726333017E+02  0.00000000000E+00 0. -1.
         -2   -1    0    0    0  501 -0.00000000000E+00 -0.00000000000E+00 -0.62683885578E+03  0.62683885578E+03  0.00000000000E+00 0.  1.
         25    2    1    2    0    0 -0.34625365607E+00  0.20915549287E+02 -0.36653529588E+03  0.38785709886E+03  0.12508967149E+03 0.  0.
         23    2    1    2    0    0  0.34625365607E+00 -0.20915549287E+02 -0.24057722688E+03  0.25870808994E+03  0.92816451204E+02 0.  0.
          5    1    3    3  502    0  0.49110801038E+02 -0.82607280176E+01 -0.27655298989E+03  0.28103227399E+03  0.41800000000E+01 0.  1.
         -5    1    3    3    0  502 -0.49457054694E+02  0.29176277304E+02 -0.89982305991E+02  0.10682482487E+03  0.41800000000E+01 0.  1.
        -11    1    4    4    0    0 -0.28580097872E+02 -0.28186862458E+02 -0.21701920558E+03  0.22070037789E+03  0.00000000000E+00 0.  1.
         11    1    4    4    0    0  0.28926351528E+02  0.72713131717E+01 -0.23558021305E+02  0.38007712057E+02  0.00000000000E+00 0. -1.
</event>
<event>
 8    1  0.6965441E-009  0.1887762E+03  0.7561462E-02  0.1159570E+00
         -1   -1    0    0    0  501 -0.00000000000E+00  0.00000000000E+00  0.13470458968E+03  0.13470458968E+03  0.00000000000E+00 0.  1.
          1   -1    0    0  501    0  0.00000000000E+00 -0.00000000000E+00 -0.29096451485E+03  0.29096451485E+03  0.00000000000E+00 0. -1.
         25    2    1    2    0    0 -0.26594694791E+02  0.16298657238E+03 -0.76942020422E+02  0.22099592970E+03  0.12508887188E+03 0.  0.
         23    2    1    2    0    0  0.26594694791E+02 -0.16298657238E+03 -0.79317904751E+02  0.20467317484E+03  0.91257207484E+02 0.  0.
          5    1    3    3  502    0 -0.67250624537E+02  0.71081687331E+02 -0.64181397264E+01  0.98152522596E+02  0.41800000000E+01 0.  1.
         -5    1    3    3    0  502  0.40655929746E+02  0.91904885050E+02 -0.70523880696E+02  0.12284340710E+03  0.41800000000E+01 0.  1.
        -11    1    4    4    0    0 -0.14944101050E+02 -0.51350626400E+01 -0.30422403177E+02  0.34281447455E+02  0.00000000000E+00 0. -1.
         11    1    4    4    0    0  0.41538795842E+02 -0.15785150974E+03 -0.48895501574E+02  0.17039172739E+03  0.00000000000E+00 0.  1.
</event>
<event>
 8    1  0.6965441E-009  0.1051710E+03  0.7561462E-02  0.1269783E+00
         -1   -1    0    0    0  501 -0.00000000000E+00  0.00000000000E+00  0.10688278092E+03  0.10688278092E+03  0.00000000000E+00 0.  1.
          1   -1    0    0  501    0  0.00000000000E+00 -0.00000000000E+00 -0.12989923683E+03  0.12989923683E+03  0.00000000000E+00 0. -1.
         25    2    1    2    0    0  0.33450275080E+02  0.33683493538E+02 -0.24811871360E+02  0.13607695406E+03  0.12509120603E+03 0.  0.
         23    2    1    2    0    0 -0.33450275080E+02 -0.33683493538E+02  0.17954154514E+01  0.10070506369E+03  0.88796327048E+02 0.  0.
          5    1    3    3  502    0  0.77380580596E+02  0.47475531350E+01  0.29455836995E+00  0.77639247027E+02  0.41800000000E+01 0. -1.
         -5    1    3    3    0  502 -0.43930305517E+02  0.28935940403E+02 -0.25106429730E+02  0.58437707036E+02  0.41800000000E+01 0. -1.
        -11    1    4    4    0    0 -0.48110486025E+02 -0.58361645957E+01  0.31197736315E+02  0.57636606717E+02  0.00000000000E+00 0.  1.
         11    1    4    4    0    0  0.14660210945E+02 -0.27847328943E+02 -0.29402320864E+02  0.43068456977E+02  0.00000000000E+00 0. -1.
</event>
<event>
 8    1  0.6965441E-009  0.1360608E+03  0.7561462E-02  0.1218730E+00
          2   -1    0    0  501    0  0.00000000000E+00  0.00000000000E+00  0.12087366951E+04  0.12087366951E+04  0.00000000000E+00 0. -1.
         -2   -1    0    0    0  501 -0.00000000000E+00 -0.00000000000E+00 -0.19660203928E+02  0.19660203928E+02  0.00000000000E+00 0.  1.
         25    2    1    2    0    0 -0.49991012131E+02 -0.72526168720E+02  0.89952231714E+03  0.91244075175E+03  0.12509428432E+03 0.  0.
         23    2    1    2    0    0  0.49991012131E+02  0.72526168720E+02  0.28955417407E+03  0.31595614732E+03  0.90705682654E+02 0.  0.
          5    1    3    3  502    0  0.21049481441E+02 -0.72139811661E+02  0.59347812318E+03  0.59823155065E+03  0.41800000000E+01 0. -1.
         -5    1    3    3    0  502 -0.71040493572E+02 -0.38635705832E+00  0.30604419396E+03  0.31420920110E+03  0.41800000000E+01 0. -1.
        -11    1    4    4    0    0  0.71866140489E+02  0.30011824838E+02  0.16236755078E+03  0.18007963051E+03  0.00000000000E+00 0.  1.
         11    1    4    4    0    0 -0.21875128358E+02  0.42514343882E+02  0.12718662329E+03  0.13587651681E+03  0.00000000000E+00 0. -1.
</event>
<event>
 8    1  0.6965441E-009  0.1342715E+03  0.7561462E-02  0.1221252E+00
          1   -1    0    0  501    0  0.00000000000E+00  0.00000000000E+00  0.27072246598E+03  0.27072246598E+03  0.00000000000E+00 0. -1.
         -1   -1    0    0    0  501 -0.00000000000E+00 -0.00000000000E+00 -0.79969175430E+02  0.79969175430E+02  0.00000000000E+00 0.  1.
         25    2    1    2    0    0 -0.83640070306E+02  0.36016502178E+02  0.15727251858E+03  0.22062081539E+03  0.12508416883E+03 0.  0.
         23    2    1    2    0    0  0.83640070306E+02 -0.36016502178E+02  0.33480771974E+02  0.13007082602E+03  0.86629140019E+02 0.  0.
          5    1    3    3  502    0 -0.82176984516E+02 -0.28165531423E+02  0.11269391341E+03  0.14235077964E+03  0.41800000000E+01 0. -1.
         -5    1    3    3    0  502 -0.14630857898E+01  0.64182033601E+02  0.44578605168E+02  0.78270035748E+02  0.41800000000E+01 0. -1.
        -11    1    4    4    0    0 -0.12722146821E+02 -0.12949850713E+02 -0.11250705133E+02  0.21357200641E+02  0.00000000000E+00 0.  1.
         11    1    4    4    0    0  0.96362217127E+02 -0.23066651465E+02  0.44731477108E+02  0.10871362538E+03  0.00000000000E+00 0. -1.
</event>
<event>
 8    1  0.6965441E-009  0.1158741E+03  0.7561462E-02  0.1250063E+00
         -3   -1    0    0    0  501 -0.00000000000E+00  0.00000000000E+00  0.37907277452E+02  0.37907277452E+02  0.00000000000E+00 0.  1.
          3   -1    0    0  501    0  0.00000000000E+00 -0.00000000000E+00 -0.51112233471E+03  0.51112233471E+03  0.00000000000E+00 0. -1.
         25    2    1    2    0    0 -0.45395948027E+02 -0.71247675286E+02 -0.25353819874E+03  0.29506868024E+03  0.12508750739E+03 0.  0.
         23    2    1    2    0    0  0.45395948027E+02  0.71247675286E+02 -0.21967685852E+03  0.25396093193E+03  0.95400259143E+02 0.  0.
          5    1    3    3  502    0 -0.27161987520E+02 -0.10335366844E+03 -0.22165748367E+03  0.24610824207E+03  0.41800000000E+01 0.  1.
         -5    1    3    3    0  502 -0.18233960507E+02  0.32105993157E+02 -0.31880715068E+02  0.48960438168E+02  0.41800000000E+01 0.  1.
        -11    1    4    4    0    0  0.82425873403E+00  0.18792246393E+02  0.45948563383E+01  0.19363383788E+02  0.00000000000E+00 0.  1.
         11    1    4    4    0    0  0.44571689293E+02  0.52455428893E+02 -0.22427171486E+03  0.23459754814E+03  0.00000000000E+00 0. -1.
</event>
<event>
 8    1  0.6965441E-009  0.1547388E+03  0.7561462E-02  0.1194768E+00
         -2   -1    0    0    0  501 -0.00000000000E+00  0.00000000000E+00  0.35776028037E+02  0.35776028037E+02  0.00000000000E+00 0.  1.
          2   -1    0    0  501    0  0.00000000000E+00 -0.00000000000E+00 -0.76079869372E+03  0.76079869372E+03  0.00000000000E+00 0. -1.
         25    2    1    2    0    0 -0.10056624228E+03  0.73521740057E+02 -0.38096263171E+03  0.41988003584E+03  0.12509077660E+03 0.  0.
         23    2    1    2    0    0  0.10056624228E+03 -0.73521740057E+02 -0.34406003398E+03  0.37669468592E+03  0.89457051553E+02 0.  0.
          5    1    3    3  502    0 -0.52522912972E+02 -0.25079922700E+02 -0.76357578523E+02  0.96102086905E+02  0.41800000000E+01 0. -1.
         -5    1    3    3    0  502 -0.48043329310E+02  0.98601662757E+02 -0.30460505318E+03  0.32377794893E+03  0.41800000000E+01 0. -1.
        -11    1    4    4    0    0  0.72982849272E+00 -0.33966403769E+02 -0.16027153176E+03  0.16383288170E+03  0.00000000000E+00 0. -1.
         11    1    4    4    0    0  0.99836413789E+02 -0.39555336288E+02 -0.18378850222E+03  0.21286180421E+03  0.00000000000E+00 0.  1.
</event>
<event>
 8    1  0.6965441E-009  0.1231591E+03  0.7561462E-02  0.1237975E+00
          1   -1    0    0  501    0  0.00000000000E+00  0.00000000000E+00  0.64305687757E+02  0.64305687757E+02  0.00000000000E+00 0. -1.
         -1   -1    0    0    0  501 -0.00000000000E+00 -0.00000000000E+00 -0.31186110577E+03  0.31186110577E+03  0.00000000000E+00 0.  1.
         25    2    1    2    0    0  0.65830781085E+02  0.32117760685E+02 -0.63994755098E+02  0.15842949044E+03  0.12505731674E+03 0.  0.
         23    2    1    2    0    0 -0.65830781085E+02 -0.32117760685E+02 -0.18356066291E+03  0.21773730308E+03  0.91377097219E+02 0.  0.
          5    1    3    3  502    0  0.16014248303E+02  0.66694437279E+02 -0.69074018569E+02  0.97433549427E+02  0.41800000000E+01 0. -1.
         -5    1    3    3    0  502  0.49816532782E+02 -0.34576676594E+02  0.50792634703E+01  0.60995941013E+02  0.41800000000E+01 0. -1.
        -11    1    4    4    0    0  0.22437786852E+02 -0.14761320839E+02 -0.35953883404E+02  0.44877974593E+02  0.00000000000E+00 0.  1.
         11    1    4    4    0    0 -0.88268567937E+02 -0.17356439846E+02 -0.14760677951E+03  0.17285932849E+03  0.00000000000E+00 0. -1.
</event>
<event>
 8    1  0.6965441E-009  0.1064278E+03  0.7561462E-02  0.1267332E+00
          1   -1    0    0  501    0  0.00000000000E+00  0.00000000000E+00  0.20855089136E+03  0.20855089136E+03  0.00000000000E+00 0. -1.
         -1   -1    0    0    0  501 -0.00000000000E+00 -0.00000000000E+00 -0.71747028646E+02  0.71747028646E+02  0.00000000000E+00 0.  1.
         25    2    1    2    0    0 -0.38872044412E+02  0.38533018359E+02  0.91327105610E+02  0.16426770334E+03  0.12508960309E+03 0.  0.
         23    2    1    2    0    0  0.38872044412E+02 -0.38533018359E+02  0.45476757103E+02  0.11603021667E+03  0.91646311452E+02 0.  0.
          5    1    3    3  502    0 -0.58566570089E+02  0.66566447991E+02  0.94450142553E+02  0.12961264197E+03  0.41800000000E+01 0.  1.
         -5    1    3    3    0  502  0.19694525678E+02 -0.28033429632E+02 -0.31230369433E+01  0.34655061367E+02  0.41800000000E+01 0.  1.
        -11    1    4    4    0    0  0.50867961408E+02 -0.17583837120E+01  0.56266352234E+02  0.75871890743E+02  0.00000000000E+00 0. -1.
         11    1    4    4    0    0 -0.11995916997E+02 -0.36774634647E+02 -0.10789595131E+02  0.40158325925E+02  0.00000000000E+00 0.  1.
</event>
<event>
 8    1  0.6965441E-009  0.1272450E+03  0.7561462E-02  0.1231602E+00
         -1   -1    0    0    0  501 -0.00000000000E+00  0.00000000000E+00  0.23828210469E+02  0.23828210469E+02  0.00000000000E+00 0.  1.
          1   -1    0    0  501    0  0.00000000000E+00 -0.00000000000E+00 -0.79515176200E+03  0.79515176200E+03  0.00000000000E+00 0. -1.
         25    2    1    2    0    0 -0.99309238678E+01 -0.80298622255E+02 -0.50430405718E+03  0.52584876574E+03  0.12509136804E+03 0.  0.
         23    2    1    2    0    0  0.99309238678E+01  0.80298622255E+02 -0.26701949435E+03  0.29313120673E+03  0.89888831395E+02 0.  0.
          5    1    3    3  502    0 -0.38915874974E+02 -0.93917854337E+02 -0.25641030366E+03  0.27585997337E+03  0.41800000000E+01 0. -1.
         -5    1    3    3    0  502  0.28984951106E+02  0.13619232083E+02 -0.24789375353E+03  0.24998879237E+03  0.41800000000E+01 0. -1.
        -11    1    4    4    0    0  0.46330097205E+02  0.21000091052E+02 -0.99864725025E+02  0.11207339129E+03  0.00000000000E+00 0.  1.
         11    1    4    4    0    0 -0.36399173337E+02  0.59298531202E+02 -0.16715476933E+03  0.18105781544E+03  0.00000000000E+00 0. -1.
</event>
<event>
 8    1  0.6965441E-009  0.1044618E+03  0.7561462E-02  0.1271184E+00
          1   -1    0    0  501    0  0.00000000000E+00  0.00000000000E+00  0.75397802889E+02  0.75397802889E+02  0.00000000000E+00 0. -1.
         -1   -1    0    0    0  501 -0.00000000000E+00 -0.00000000000E+00 -0.21108638846E+03  0.21108638846E+03  0.00000000000E+00 0.  1.
         25    2    1    2    0    0  0.50356859509E+02  0.10170750719E+02 -0.11988327438E+03  0.18071803401E+03  0.12509097039E+03 0.  0.
         23    2    1    2    0    0 -0.50356859509E+02 -0.10170750719E+02 -0.15805311198E+02  0.10576615734E+03  0.91090146046E+02 0.  0.
          5    1    3    3  502    0 -0.41085452634E+02  0.70775087146E+01 -0.24762312576E+02  0.48669806573E+02  0.41800000000E+01 0. -1.
         -5    1    3    3    0  502  0.91442312142E+02  0.30932420048E+01 -0.95120961800E+02  0.13204822744E+03  0.41800000000E+01 0. -1.
        -11    1    4    4    0    0 -0.61941899863E+02 -0.34439121348E+01 -0.42978221932E+02  0.75470438251E+02  0.00000000000E+00 0.  1.
         11    1    4    4    0    0  0.11585040354E+02 -0.67268385845E+01  0.27172910734E+02  0.30295719089E+02  0.00000000000E+00 0. -1.
</event>
<event>
 8    1  0.6965441E-009  0.1760833E+03  0.7561462E-02  0.1171648E+00
         -1   -1    0    0    0  501 -0.00000000000E+00  0.00000000000E+00  0.11082037748E+04  0.11082037748E+04  0.00000000000E+00 0.  1.
          1   -1    0    0  501    0  0.00000000000E+00 -0.00000000000E+00 -0.34908106120E+02  0.34908106120E+02  0.00000000000E+00 0. -1.
         25    2    1    2    0    0 -0.16189557585E+03  0.27592843699E+01  0.48880184259E+03  0.52990545568E+03  0.12511898140E+03 0.  0.
         23    2    1    2    0    0  0.16189557585E+03 -0.27592843699E+01  0.58449382612E+03  0.61320642528E+03  0.90395221637E+02 0.  0.
          5    1    3    3  502    0 -0.13329889137E+03 -0.22431548177E+02  0.46615958825E+03  0.48538026629E+03  0.41800000000E+01 0. -1.
         -5    1    3    3    0  502 -0.28596684481E+02  0.25190832546E+02  0.22642254341E+02  0.44525189380E+02  0.41800000000E+01 0. -1.
        -11    1    4    4    0    0  0.68862962220E+02 -0.38540432797E+02  0.17867900696E+03  0.19532961899E+03  0.00000000000E+00 0. -1.
         11    1    4    4    0    0  0.93032613629E+02  0.35781148427E+02  0.40581481916E+03  0.41787680629E+03  0.00000000000E+00 0.  1.
</event>
<event>
 8    1  0.6965441E-009  0.1718354E+03  0.7561462E-02  0.1175947E+00
          1   -1    0    0  501    0  0.00000000000E+00  0.00000000000E+00  0.22742873167E+03  0.22742873167E+03  0.00000000000E+00 0. -1.
         -1   -1    0    0    0  501 -0.00000000000E+00 -0.00000000000E+00 -0.15773850725E+03  0.15773850725E+03  0.00000000000E+00 0.  1.
         25    2    1    2    0    0 -0.68422015154E+02  0.13818063669E+03  0.44177852405E+02  0.20340651887E+03  0.12508824390E+03 0.  0.
         23    2    1    2    0    0  0.68422015154E+02 -0.13818063669E+03  0.25512372015E+02  0.18176072004E+03  0.92793414158E+02 0.  0.
          5    1    3    3  502    0  0.25630208873E+02  0.11247281994E+02 -0.18043775424E+02  0.33562764944E+02  0.41800000000E+01 0.  1.
         -5    1    3    3    0  502 -0.94052224027E+02  0.12693335469E+03  0.62221627829E+02  0.16984375393E+03  0.41800000000E+01 0.  1.
        -11    1    4    4    0    0  0.27985050757E+02 -0.90953684310E+02  0.58169695873E+02  0.11153227907E+03  0.00000000000E+00 0. -1.
         11    1    4    4    0    0  0.40436964397E+02 -0.47226952379E+02 -0.32657323858E+02  0.70228440978E+02  0.00000000000E+00 0.  1.
</event>
<event>
 8    1  0.6965441E-009  0.1357702E+03  0.7561462E-02  0.1219137E+00
          1   -1    0    0  501    0  0.00000000000E+00  0.00000000000E+00  0.30735371444E+03  0.30735371444E+03  0.00000000000E+00 0. -1.
         -1   -1    0    0    0  501 -0.00000000000E+00 -0.00000000000E+00 -0.10487674710E+03  0.10487674710E+03  0.00000000000E+00 0.  1.
         25    2    1    2    0    0  0.51340904745E+02 -0.94274526931E+02  0.36710272806E+01  0.16487768671E+03  0.12509036816E+03 0.  0.
         23    2    1    2    0    0 -0.51340904745E+02  0.94274526931E+02  0.19880594006E+03  0.24735277483E+03  0.10067779539E+03 0.  0.
          5    1    3    3  502    0  0.81984493669E+02 -0.95044618692E+02  0.23997810478E+02  0.12786048667E+03  0.41800000000E+01 0. -1.
         -5    1    3    3    0  502 -0.30643588924E+02  0.77009176096E+00 -0.20326783198E+02  0.37017200038E+02  0.41800000000E+01 0. -1.
        -11    1    4    4    0    0 -0.49779272134E+02  0.49458830812E+02  0.36762262862E+02  0.79218784706E+02  0.00000000000E+00 0.  1.
         11    1    4    4    0    0 -0.15616326106E+01  0.44815696119E+02  0.16204367720E+03  0.16813399012E+03  0.00000000000E+00 0. -1.
</event>
<event>
 8    1  0.6965441E-009  0.1361838E+03  0.7561462E-02  0.1218558E+00
          3   -1    0    0  501    0  0.00000000000E+00  0.00000000000E+00  0.72156138936E+02  0.72156138936E+02  0.00000000000E+00 0.  1.
         -3   -1    0    0    0  501 -0.00000000000E+00 -0.00000000000E+00 -0.32948546254E+03  0.32948546254E+03  0.00000000000E+00 0. -1.
         25    2    1    2    0    0 -0.10199973436E+03 -0.31274746446E+02 -0.16991220120E+03  0.23643209920E+03  0.12509166976E+03 0.  0.
         23    2    1    2    0    0  0.10199973436E+03  0.31274746446E+02 -0.87417122396E+02  0.16520950227E+03  0.90941578926E+02 0.  0.
          5    1    3    3  502    0 -0.33043918385E+02 -0.75404684125E+02 -0.85363933950E+02  0.11866861653E+03  0.41800000000E+01 0.  1.
         -5    1    3    3    0  502 -0.68955815971E+02  0.44129937679E+02 -0.84548267253E+02  0.11776348267E+03  0.41800000000E+01 0.  1.
        -11    1    4    4    0    0  0.80012265955E+02  0.31451039081E+02 -0.10595731314E+03  0.13644809551E+03  0.00000000000E+00 0. -1.
         11    1    4    4    0    0  0.21987468401E+02 -0.17629263562E+00  0.18540190739E+02  0.28761406753E+02  0.00000000000E+00 0.  1.
</event>
<event>
 8    1  0.6965441E-009  0.1340394E+03  0.7561462E-02  0.1221582E+00
          1   -1    0    0  501    0  0.00000000000E+00  0.00000000000E+00  0.51356395274E+02  0.51356395274E+02  0.00000000000E+00 0. -1.
         -1   -1    0    0    0  501 -0.00000000000E+00 -0.00000000000E+00 -0.81842923881E+03  0.81842923881E+03  0.00000000000E+00 0.  1.
         25    2    1    2    0    0  0.18955186472E+02 -0.10187461929E+03 -0.69509000009E+03  0.71381661996E+03  0.12508525716E+03 0.  0.
         23    2    1    2    0    0 -0.18955186472E+02  0.10187461929E+03 -0.71982843449E+02  0.15596901413E+03  0.91690056530E+02 0.  0.
          5    1    3    3  502    0  0.20943881720E+02  0.25326922321E+02 -0.19426802382E+03  0.19707266846E+03  0.41800000000E+01 0.  1.
         -5    1    3    3    0  502 -0.19886952477E+01 -0.12720154161E+03 -0.50082197627E+03  0.51674395150E+03  0.41800000000E+01 0.  1.
        -11    1    4    4    0    0 -0.23722292223E+02  0.47638000715E+02  0.13239140660E+02  0.54839776676E+02  0.00000000000E+00 0. -1.
         11    1    4    4    0    0  0.47671057501E+01  0.54236618575E+02 -0.85221984109E+02  0.10112923745E+03  0.00000000000E+00 0.  1.
</event>
<event>
 8    1  0.6965441E-009  0.1564919E+03  0.7561462E-02  0.1192715E+00
         -1   -1    0    0    0  501 -0.00000000000E+00  0.00000000000E+00  0.62744289124E+03  0.62744289124E+03  0.00000000000E+00 0.  1.
          1   -1    0    0  501    0  0.00000000000E+00 -0.00000000000E+00 -0.65319859356E+02  0.65319859356E+02  0.00000000000E+00 0. -1.
         25    2    1    2    0    0  0.14099642710E+02  0.14150295961E+03  0.13381001815E+03  0.23189770627E+03  0.12509811236E+03 0.  0.
         23    2    1    2    0    0 -0.14099642710E+02 -0.14150295961E+03  0.42831301373E+03  0.46086504432E+03  0.93395202475E+02 0.  0.
          5    1    3    3  502    0 -0.13772818714E+02  0.14162650546E+03  0.62978569586E+02  0.15566480081E+03  0.41800000000E+01 0.  1.
         -5    1    3    3    0  502  0.27872461424E+02 -0.12354585441E+00  0.70831448566E+02  0.76232905463E+02  0.41800000000E+01 0.  1.
        -11    1    4    4    0    0  0.74479780393E+00 -0.23296833229E+02  0.90493581282E+01  0.25003760613E+02  0.00000000000E+00 0. -1.
         11    1    4    4    0    0 -0.14844440514E+02 -0.11820612638E+03  0.41926365560E+03  0.43586128371E+03  0.00000000000E+00 0.  1.
</event>
<event>
 8    1  0.6965441E-009  0.9756227E+02  0.7561462E-02  0.1285507E+00
          1   -1    0    0  501    0  0.00000000000E+00  0.00000000000E+00  0.13082264552E+03  0.13082264552E+03  0.00000000000E+00 0. -1.
         -1   -1    0    0    0  501 -0.00000000000E+00 -0.00000000000E+00 -0.10365648922E+03  0.10365648922E+03  0.00000000000E+00 0.  1.
         25    2    1    2    0    0 -0.14407515105E+02  0.37648928554E+02  0.26721124800E+01  0.13144834646E+03  0.12508600757E+03 0.  0.
         23    2    1    2    0    0  0.14407515105E+02 -0.37648928554E+02  0.24494043825E+02  0.10303078827E+03  0.91598945609E+02 0.  0.
          5    1    3    3  502    0 -0.55675091782E+02  0.51248170890E+02 -0.24954841668E+02  0.79789143291E+02  0.41800000000E+01 0. -1.
         -5    1    3    3    0  502  0.41267576677E+02 -0.13599242336E+02  0.27626954148E+02  0.51659203173E+02  0.41800000000E+01 0. -1.
        -11    1    4    4    0    0 -0.25551702747E+02 -0.17180567943E+02  0.44308330110E+02  0.53956367050E+02  0.00000000000E+00 0. -1.
         11    1    4    4    0    0  0.39959217852E+02 -0.20468360611E+02 -0.19814286285E+02  0.49074421223E+02  0.00000000000E+00 0.  1.
</event>
<event>
 8    1  0.6965441E-009  0.1190429E+03  0.7561462E-02  0.1244684E+00
         -1   -1    0    0    0  501 -0.00000000000E+00  0.00000000000E+00  0.31582518958E+03  0.31582518958E+03  0.00000000000E+00 0.  1.
          1   -1    0    0  501    0  0.00000000000E+00 -0.00000000000E+00 -0.66525052067E+02  0.66525052067E+02  0.00000000000E+00 0. -1.
         25    2    1    2    0    0 -0.93425067403E+02  0.82454732591E+01  0.10828338130E+03  0.19018047270E+03  0.12508833072E+03 0.  0.
         23    2    1    2    0    0  0.93425067403E+02 -0.82454732591E+01  0.14101675621E+03  0.19216976894E+03  0.90814445524E+02 0.  0.
          5    1    3    3  502    0  0.24958218555E+02  0.19475909917E+01  0.54119647030E+02  0.59775533279E+02  0.41800000000E+01 0.  1.
         -5    1    3    3    0  502 -0.11838328596E+03  0.62978822674E+01  0.54163734273E+02  0.13040493942E+03  0.41800000000E+01 0.  1.
        -11    1    4    4    0    0  0.26244256830E+02  0.10194349557E+01  0.11748739904E+03  0.12038724682E+03  0.00000000000E+00 0.  1.
         11    1    4    4    0    0  0.67180810573E+02 -0.92649082148E+01  0.23529357170E+02  0.71782522123E+02  0.00000000000E+00 0. -1.
</event>
<event>
 8    1  0.6965441E-009  0.9879148E+02  0.7561462E-02  0.1282858E+00
         -1   -1    0    0    0  501 -0.00000000000E+00  0.00000000000E+00  0.12499823861E+04  0.12499823861E+04  0.00000000000E+00 0.  1.
          1   -1    0    0  501    0  0.00000000000E+00 -0.00000000000E+00 -0.20451927805E+02  0.20451927805E+02  0.00000000000E+00 0. -1.
         25    2    1    2    0    0  0.23293489431E+02  0.64905317260E+01  0.11145714961E+04  0.11218291876E+04  0.12508554164E+03 0.  0.
         23    2    1    2    0    0 -0.23293489431E+02 -0.64905317260E+01  0.11495896224E+03  0.14860512629E+03  0.91012125055E+02 0.  0.
          5    1    3    3  502    0 -0.40461910427E+02 -0.19069443192E+02  0.21577732587E+03  0.22040448412E+03  0.41800000000E+01 0. -1.
         -5    1    3    3    0  502  0.63755399859E+02  0.25559974918E+02  0.89879417019E+03  0.90142470351E+03  0.41800000000E+01 0. -1.
        -11    1    4    4    0    0  0.25824730865E+02  0.15399079600E+02  0.77336601266E+02  0.82975889704E+02  0.00000000000E+00 0.  1.
         11    1    4    4    0    0 -0.49118220296E+02 -0.21889611326E+02  0.37622360975E+02  0.65629236582E+02  0.00000000000E+00 0. -1.
</event>
<event>
 8    1  0.6965441E-009  0.1592985E+03  0.7561462E-02  0.1189491E+00
         -2   -1    0    0    0  501 -0.00000000000E+00  0.00000000000E+00  0.31085546385E+02  0.31085546385E+02  0.00000000000E+00 0.  1.
          2   -1    0    0  501    0  0.00000000000E+00 -0.00000000000E+00 -0.10236934266E+04  0.10236934266E+04  0.00000000000E+00 0. -1.
         25    2    1    2    0    0 -0.94775812505E+01 -0.13394320155E+03 -0.65815709354E+03  0.68326339633E+03  0.12508998042E+03 0.  0.
         23    2    1    2    0    0  0.94775812505E+01  0.13394320155E+03 -0.33445078670E+03  0.37151557667E+03  0.90199164095E+02 0.  0.
          5    1    3    3  502    0 -0.46392020534E+02 -0.71408224992E+02 -0.17501776744E+03  0.19467934016E+03  0.41800000000E+01 0. -1.
         -5    1    3    3    0  502  0.36914439283E+02 -0.62534976554E+02 -0.48313932609E+03  0.48858405616E+03  0.41800000000E+01 0. -1.
        -11    1    4    4    0    0  0.47138542643E+02  0.96994876791E+02 -0.24462997073E+03  0.26734597604E+03  0.00000000000E+00 0. -1.
         11    1    4    4    0    0 -0.37660961392E+02  0.36948324755E+02 -0.89820815965E+02  0.10416960063E+03  0.00000000000E+00 0.  1.
</event>
<event>
 8    1  0.6965441E-009  0.1607645E+03  0.7561462E-02  0.1187836E+00
          3   -1    0    0  501    0  0.00000000000E+00  0.00000000000E+00  0.17821762830E+03  0.17821762830E+03  0.00000000000E+00 0. -1.
         -3   -1    0    0    0  501 -0.00000000000E+00 -0.00000000000E+00 -0.14893001502E+03  0.14893001502E+03  0.00000000000E+00 0.  1.
         25    2    1    2    0    0  0.87409546150E+02 -0.85753933835E+02  0.69234515550E+01  0.17518553563E+03  0.12509145369E+03 0.  0.
         23    2    1    2    0    0 -0.87409546150E+02  0.85753933835E+02  0.22364161725E+02  0.15196210769E+03  0.87167428086E+02 0.  0.
          5    1    3    3  502    0  0.61728258458E+02 -0.11592974019E+03  0.20700301829E+02  0.13302652912E+03  0.41800000000E+01 0. -1.
         -5    1    3    3    0  502  0.25681287692E+02  0.30175806356E+02 -0.13776850274E+02  0.42159006514E+02  0.41800000000E+01 0. -1.
        -11    1    4    4    0    0  0.97453920466E+01 -0.99325324715E+01  0.29398603504E+01  0.14222188521E+02  0.00000000000E+00 0.  1.
         11    1    4    4    0    0 -0.97154938197E+02  0.95686466306E+02  0.19424301375E+02  0.13773991917E+03  0.00000000000E+00 0. -1.
</event>
<event>
 8    1  0.6965441E-009  0.1303465E+03  0.7561462E-02  0.1226942E+00
         -2   -1    0    0    0  501 -0.00000000000E+00  0.00000000000E+00  0.39510257196E+02  0.39510257196E+02  0.00000000000E+00 0.  1.
          2   -1    0    0  501    0  0.00000000000E+00 -0.00000000000E+00 -0.46276743760E+03  0.46276743760E+03  0.00000000000E+00 0. -1.
         25    2    1    2    0    0 -0.69132907757E+02  0.37729986933E+02 -0.25589475415E+03  0.29552072168E+03  0.12508981131E+03 0.  0.
         23    2    1    2    0    0  0.69132907757E+02 -0.37729986933E+02 -0.16736242625E+03  0.20675697311E+03  0.92386976143E+02 0.  0.
          5    1    3    3  502    0 -0.94548734448E+02 -0.75443866291E+01 -0.15025030480E+03  0.17773296669E+03  0.41800000000E+01 0.  1.
         -5    1    3    3    0  502  0.25415826691E+02  0.45274373562E+02 -0.10564444935E+03  0.11778775499E+03  0.41800000000E+01 0.  1.
        -11    1    4    4    0    0 -0.41652942955E+01  0.19957126034E+02 -0.75985449587E+01  0.21757169890E+02  0.00000000000E+00 0.  1.
         11    1    4    4    0    0  0.73298202052E+02 -0.57687112967E+02 -0.15976388129E+03  0.18499980322E+03  0.00000000000E+00 0. -1.
</event>
<event>
 8    1  0.6965441E-009  0.1706929E+03  0.7561462E-02  0.1177127E+00
          1   -1    0    0  501    0  0.00000000000E+00  0.00000000000E+00  0.38011726262E+03  0.38011726262E+03  0.00000000000E+00 0. -1.
         -1   -1    0    0    0  501 -0.00000000000E+00 -0.00000000000E+00 -0.11989509755E+03  0.11989509755E+03  0.00000000000E+00 0.  1.
         25    2    1    2    0    0 -0.72437760093E+02  0.12745914051E+03  0.26010470524E+03  0.32372061082E+03  0.12509002595E+03 0.  0.
         23    2    1    2    0    0  0.72437760093E+02 -0.12745914051E+03  0.11745981941E+00  0.17629174935E+03  0.97906616255E+02 0.  0.
          5    1    3    3  502    0 -0.10066098223E+03  0.95375820678E+02  0.23787026935E+03  0.27537051032E+03  0.41800000000E+01 0.  1.
         -5    1    3    3    0  502  0.28223222135E+02  0.32083319828E+02  0.22234435898E+02  0.48350100502E+02  0.41800000000E+01 0.  1.
        -11    1    4    4    0    0  0.36216533411E+02 -0.11140408845E+02  0.32844298182E+02  0.50144729779E+02  0.00000000000E+00 0. -1.
         11    1    4    4    0    0  0.36221226682E+02 -0.11631873166E+03 -0.32726838363E+02  0.12614701957E+03  0.00000000000E+00 0.  1.
</event>
<event>
 8    1  0.6965441E-009  0.1092150E+03  0.7561462E-02  0.1262031E+00
          1   -1    0    0  501    0  0.00000000000E+00  0.00000000000E+00  0.35078645652E+03  0.35078645652E+03  0.00000000000E+00 0. -1.
         -1   -1    0    0    0  501 -0.00000000000E+00 -0.00000000000E+00 -0.64642456952E+02  0.64642456952E+02  0.00000000000E+00 0.  1.
         25    2    1    2    0    0  0.82497114385E+02  0.55143062810E+02  0.20189168728E+03  0.25739943805E+03  0.12509071131E+03 0.  0.
         23    2    1    2    0    0 -0.82497114385E+02 -0.55143062810E+02  0.84252312287E+02  0.15802947542E+03  0.89600958249E+02 0.  0.
          5    1    3    3  502    0  0.25463534208E+02  0.54739504388E+02  0.15554096744E+02  0.62483655787E+02  0.41800000000E+01 0. -1.
         -5    1    3    3    0  502  0.57033580177E+02  0.40355842145E+00  0.18633759054E+03  0.19491578226E+03  0.41800000000E+01 0. -1.
        -11    1    4    4    0    0 -0.20576671224E+02 -0.53315198149E+01 -0.18467257206E+02  0.28157842441E+02  0.00000000000E+00 0.  1.
         11    1    4    4    0    0 -0.61920443161E+02 -0.49811542995E+02  0.10271956949E+03  0.12987163298E+03  0.00000000000E+00 0. -1.
</event>
<event>
 8    1  0.6965441E-009  0.9398813E+02  0.7561462E-02  0.1293471E+00
         -2   -1    0    0    0  501 -0.00000000000E+00  0.00000000000E+00  0.52436807226E+02  0.52436807226E+02  0.00000000000E+00 0.  1.
          2   -1    0    0  501    0  0.00000000000E+00 -0.00000000000E+00 -0.34606730243E+03  0.34606730243E+03  0.00000000000E+00 0. -1.
         25    2    1    2    0    0  0.30027393411E+02  0.25700824816E+02 -0.26431585266E+03  0.29508225327E+03  0.12509392261E+03 0.  0.
         23    2    1    2    0    0 -0.30027393411E+02 -0.25700824816E+02 -0.29314642537E+02  0.10342185638E+03  0.90964582993E+02 0.  0.
          5    1    3    3  502    0 -0.13259524697E+02 -0.22581428507E+02 -0.20622127756E+03  0.20791927189E+03  0.41800000000E+01 0.  1.
         -5    1    3    3    0  502  0.43286918107E+02  0.48282253323E+02 -0.58094575108E+02  0.87162981375E+02  0.41800000000E+01 0.  1.
        -11    1    4    4    0    0  0.31286474867E+02 -0.12903925491E+02 -0.21990355667E+02  0.40360011708E+02  0.00000000000E+00 0.  1.
         11    1    4    4    0    0 -0.61313868278E+02 -0.12796899325E+02 -0.73242868698E+01  0.63061844674E+02  0.00000000000E+00 0. -1.
</event>
<event>
 8    1  0.6965441E-009  0.1592811E+03  0.7561462E-02  0.1189511E+00
         -2   -1    0    0    0  501 -0.00000000000E+00  0.00000000000E+00  0.35796059585E+02  0.35796059585E+02  0.00000000000E+00 0.  1.
          2   -1    0    0  501    0  0.00000000000E+00 -0.00000000000E+00 -0.88552621012E+03  0.88552621012E+03  0.00000000000E+00 0. -1.
         25    2    1    2    0    0  0.13576252727E+03  0.20660305963E+02 -0.53135076581E+03  0.56287892472E+03  0.12506292624E+03 0.  0.
         23    2    1    2    0    0 -0.13576252727E+03 -0.20660305963E+02 -0.31837938473E+03  0.35844334498E+03  0.90872916152E+02 0.  0.
          5    1    3    3  502    0  0.98849401478E+02 -0.41896933889E+02 -0.24678716991E+03  0.26916154420E+03  0.41800000000E+01 0.  1.
         -5    1    3    3    0  502  0.36913125789E+02  0.62557239852E+02 -0.28456359589E+03  0.29371738052E+03  0.41800000000E+01 0.  1.
        -11    1    4    4    0    0 -0.85893920784E+02 -0.21278555986E+02 -0.96092484695E+02  0.13063042596E+03  0.00000000000E+00 0.  1.
         11    1    4    4    0    0 -0.49868606483E+02  0.61825002322E+00 -0.22228690003E+03  0.22781291902E+03  0.00000000000E+00 0. -1.
</event>
<event>
 8    1  0.6965441E-009  0.1503263E+03  0.7561462E-02  0.1200073E+00
          2   -1    0    0  501    0  0.00000000000E+00  0.00000000000E+00  0.28331568805E+03  0.28331568805E+03  0.00000000000E+00 0. -1.
         -2   -1    0    0    0  501 -0.00000000000E+00 -0.00000000000E+00 -0.84413744540E+02  0.84413744540E+02  0.00000000000E+00 0.  1.
         25    2    1    2    0    0 -0.10331911448E+03  0.26718924564E+02  0.76391388904E+02  0.18130363879E+03  0.12508646926E+03 0.  0.
         23    2    1    2    0    0  0.10331911448E+03 -0.26718924564E+02  0.12251055460E+03  0.18642579380E+03  0.91416630103E+02 0.  0.
          5    1    3    3  502    0 -0.12740893017E+03  0.41618605318E+02  0.72397922014E+02  0.15239447269E+03  0.41800000000E+01 0.  1.
         -5    1    3    3    0  502  0.24089815690E+02 -0.14899680754E+02  0.39934668905E+01  0.28909166096E+02  0.41800000000E+01 0.  1.
        -11    1    4    4    0    0  0.82299576338E+02  0.21720869074E+02  0.57717539623E+02  0.10284128937E+03  0.00000000000E+00 0.  1.
         11    1    4    4    0    0  0.21019538138E+02 -0.48439793638E+02  0.64793014982E+02  0.83584504435E+02  0.00000000000E+00 0. -1.
</event>
<event>
 8    1  0.6965441E-009  0.1405815E+03  0.7561462E-02  0.1212549E+00
         -1   -1    0    0    0  501 -0.00000000000E+00  0.00000000000E+00  0.19036086735E+03  0.19036086735E+03  0.00000000000E+00 0.  1.
          1   -1    0    0  501    0  0.00000000000E+00 -0.00000000000E+00 -0.12421978525E+03  0.12421978525E+03  0.00000000000E+00 0. -1.
         25    2    1    2    0    0  0.72657290181E+02  0.78766693779E+02  0.59002786562E+02  0.17495240567E+03  0.12507494379E+03 0.  0.
         23    2    1    2    0    0 -0.72657290181E+02 -0.78766693779E+02  0.71382955395E+01  0.13962824693E+03  0.89229021131E+02 0.  0.
          5    1    3    3  502    0 -0.28460490307E+02  0.38726014716E+02 -0.53125959271E+01  0.48532461299E+02  0.41800000000E+01 0. -1.
         -5    1    3    3    0  502  0.10111778049E+03  0.40040679063E+02  0.64315382489E+02  0.12641994437E+03  0.41800000000E+01 0. -1.
        -11    1    4    4    0    0 -0.59867393111E+02 -0.18771142465E+02  0.35453092533E+02  0.72065125529E+02  0.00000000000E+00 0.  1.
         11    1    4    4    0    0 -0.12789897070E+02 -0.59995551315E+02 -0.28314796994E+02  0.67563121401E+02  0.00000000000E+00 0. -1.
</event>
<event>
 8    1  0.6965441E-009  0.8562532E+02  0.7561462E-02  0.1313805E+00
         -2   -1    0    0    0  501 -0.00000000000E+00  0.00000000000E+00  0.61823582720E+02  0.61823582720E+02  0.00000000000E+00 0.  1.
          2   -1    0    0  501    0  0.00000000000E+00 -0.00000000000E+00 -0.21995381458E+03  0.21995381458E+03  0.00000000000E+00 0. -1.
         25    2    1    2    0    0  0.15429592326E+02  0.40228634963E+02 -0.11017128213E+03  0.17216875209E+03  0.12509177590E+03 0.  0.
         23    2    1    2    0    0 -0.15429592326E+02 -0.40228634963E+02 -0.47958949726E+02  0.10960864521E+03  0.88642985375E+02 0.  0.
          5    1    3    3  502    0  0.55069074039E+02  0.33439009973E+02 -0.11455787622E+03  0.13149809773E+03  0.41800000000E+01 0.  1.
         -5    1    3    3    0  502 -0.39639481713E+02  0.67896249902E+01  0.43865940848E+01  0.40670654355E+02  0.41800000000E+01 0.  1.
        -11    1    4    4    0    0  0.18533098293E+02 -0.11858103841E+02  0.19185940907E+02  0.29192305279E+02  0.00000000000E+00 0.  1.
         11    1    4    4    0    0 -0.33962690619E+02 -0.28370531122E+02 -0.67144890633E+02  0.80416339933E+02  0.00000000000E+00 0. -1.
</event>
<event>
 8    1  0.6965441E-009  0.1279605E+03  0.7561462E-02  0.1230514E+00
         -1   -1    0    0    0  501 -0.00000000000E+00  0.00000000000E+00  0.19923776873E+03  0.19923776873E+03  0.00000000000E+00 0.  1.
          1   -1    0    0  501    0  0.00000000000E+00 -0.00000000000E+00 -0.83320536401E+02  0.83320536401E+02  0.00000000000E+00 0. -1.
         25    2    1    2    0    0  0.67873795849E+02  0.36516966302E+00  0.79077616972E+02  0.16281337384E+03  0.12509172508E+03 0.  0.
         23    2    1    2    0    0 -0.67873795849E+02 -0.36516966302E+00  0.36839615352E+02  0.11974493129E+03  0.91513418677E+02 0.  0.
          5    1    3    3  502    0  0.33304812334E+02  0.62543999274E+02  0.36854773981E+02  0.79979429449E+02  0.41800000000E+01 0. -1.
         -5    1    3    3    0  502  0.34568983514E+02 -0.62178829611E+02  0.42222842991E+02  0.82833944390E+02  0.41800000000E+01 0. -1.
        -11    1    4    4    0    0 -0.17736328472E+02  0.43550153579E+02  0.19260178066E+02  0.50814837238E+02  0.00000000000E+00 0. -1.
         11    1    4    4    0    0 -0.50137467376E+02 -0.43915323242E+02  0.17579437286E+02  0.68930094049E+02  0.00000000000E+00 0.  1.
</event>
<event>
 8    1  0.6965441E-009  0.9688972E+02  0.7561462E-02  0.1286976E+00
         -3   -1    0    0    0  501 -0.00000000000E+00  0.00000000000E+00  0.11395403885E+03  0.11395403885E+03  0.00000000000E+00 0.  1.
          3   -1    0    0  501    0  0.00000000000E+00 -0.00000000000E+00 -0.14084538476E+03  0.14084538476E+03  0.00000000000E+00 0. -1.
         25    2    1    2    0    0  0.18905056504E+02  0.59312925317E+02 -0.34944388547E+02  0.14402821519E+03  0.12509033620E+03 0.  0.
         23    2    1    2    0    0 -0.18905056504E+02 -0.59312925317E+02  0.80530426299E+01  0.11077120841E+03  0.91268750659E+02 0.  0.
          5    1    3    3  502    0 -0.21159342133E+02  0.50215672031E+02 -0.70729803833E+02  0.89384053540E+02  0.41800000000E+01 0. -1.
         -5    1    3    3    0  502  0.40064398638E+02  0.90972532863E+01  0.35785415286E+02  0.54644161653E+02  0.41800000000E+01 0. -1.
        -11    1    4    4    0    0 -0.31229526772E+02 -0.73008276435E+02 -0.15461436075E+02  0.80898379316E+02  0.00000000000E+00 0. -1.
         11    1    4    4    0    0  0.12324470268E+02  0.13695351118E+02  0.23514478704E+02  0.29872829099E+02  0.00000000000E+00 0.  1.
</event>
<event>
 8    1  0.6965441E-009  0.1251102E+03  0.7561462E-02  0.1234897E+00
         -1   -1    0    0    0  501 -0.00000000000E+00  0.00000000000E+00  0.10410797205E+03  0.10410797205E+03  0.00000000000E+00 0.  1.
          1   -1    0    0  501    0  0.00000000000E+00 -0.00000000000E+00 -0.23811148902E+03  0.23811148902E+03  0.00000000000E+00 0. -1.
         25    2    1    2    0    0  0.10678322970E+03  0.22949287183E+02 -0.40869004369E+02  0.17101943936E+03  0.12509214681E+03 0.  0.
         23    2    1    2    0    0 -0.10678322970E+03 -0.22949287183E+02 -0.93134512600E+02  0.17120002171E+03  0.93306388143E+02 0.  0.
          5    1    3    3  502    0  0.25443092067E+01 -0.21546192725E+02  0.30018315186E+02  0.37273094544E+02  0.41800000000E+01 0.  1.
         -5    1    3    3    0  502  0.10423892049E+03  0.44495479909E+02 -0.70887319555E+02  0.13374634481E+03  0.41800000000E+01 0.  1.
        -11    1    4    4    0    0 -0.47082538638E+02  0.75269826172E+01 -0.92615464878E+02  0.10416835050E+03  0.00000000000E+00 0. -1.
         11    1    4    4    0    0 -0.59700691057E+02 -0.30476269800E+02 -0.51904772204E+00  0.67031671202E+02  0.00000000000E+00 0.  1.
</event>
<event>
 8    1  0.6965441E-009  0.1732565E+03  0.7561462E-02  0.1174494E+00
         -2   -1    0    0    0  501 -0.00000000000E+00  0.00000000000E+00  0.62748500871E+02  0.62748500871E+02  0.00000000000E+00 0.  1.
          2   -1    0    0  501    0  0.00000000000E+00 -0.00000000000E+00 -0.53738086125E+03  0.53738086125E+03  0.00000000000E+00 0. -1.
         25    2    1    2    0    0 -0.77803323681E+00 -0.14761999900E+03 -0.22151154015E+03  0.29412216231E+03  0.12509282353E+03 0.  0.
         23    2    1    2    0    0  0.77803323681E+00  0.14761999900E+03 -0.25312082022E+03  0.30600719981E+03  0.88192898029E+02 0.  0.
          5    1    3    3  502    0  0.35020799583E+02 -0.13530742948E+03 -0.11512603819E+03  0.18112436044E+03  0.41800000000E+01 0. -1.
         -5    1    3    3    0  502 -0.35798832819E+02 -0.12312569522E+02 -0.10638550196E+03  0.11299780186E+03  0.41800000000E+01 0. -1.
        -11    1    4    4    0    0 -0.40286645651E+02  0.77161866398E+02 -0.16061986168E+03  0.18269019517E+03  0.00000000000E+00 0. -1.
         11    1    4    4    0    0  0.41064678888E+02  0.70458132606E+02 -0.92500958539E+02  0.12331700464E+03  0.00000000000E+00 0.  1.
</event>
<event>
 8    1  0.6965441E-009  0.1291788E+03  0.7561462E-02  0.1228679E+00
          2   -1    0    0  501    0  0.00000000000E+00  0.00000000000E+00  0.25954892759E+03  0.25954892759E+03  0.00000000000E+00 0. -1.
         -2   -1    0    0    0  501 -0.00000000000E+00 -0.00000000000E+00 -0.69525251759E+02  0.69525251759E+02  0.00000000000E+00 0.  1.
         25    2    1    2    0    0 -0.39716554274E+02 -0.63952298683E+02  0.76079044944E+02  0.16463180583E+03  0.12509320213E+03 0.  0.
         23    2    1    2    0    0  0.39716554274E+02  0.63952298683E+02  0.11394463089E+03  0.16444237352E+03  0.91600295369E+02 0.  0.
          5    1    3    3  502    0 -0.13605680888E+02 -0.98057103577E+02  0.69378507708E+02  0.12095933137E+03  0.41800000000E+01 0.  1.
         -5    1    3    3    0  502 -0.26110873385E+02  0.34104804893E+02  0.67005372358E+01  0.43672474455E+02  0.41800000000E+01 0.  1.
        -11    1    4    4    0    0  0.68282325676E+02  0.47100702423E+02  0.65313620908E+02  0.10557850749E+03  0.00000000000E+00 0.  1.
         11    1    4    4    0    0 -0.28565771402E+02  0.16851596260E+02  0.48631009981E+02  0.58863866031E+02  0.00000000000E+00 0. -1.
</event>
<event>
 8    1  0.6965441E-009  0.1141279E+03  0.7561462E-02  0.1253111E+00
          2   -1    0    0  501    0  0.00000000000E+00  0.00000000000E+00  0.92754978890E+03  0.92754978890E+03  0.00000000000E+00 0. -1.
         -2   -1    0    0    0  501 -0.00000000000E+00 -0.00000000000E+00 -0.25064388118E+02  0.25064388118E+02  0.00000000000E+00 0.  1.
         25    2    1    2    0    0 -0.55448782856E+02  0.76842646484E+02  0.64021716655E+03  0.65917062519E+03  0.12509409627E+03 0.  0.
         23    2    1    2    0    0  0.55448782856E+02 -0.76842646484E+02  0.26226823423E+03  0.29344355183E+03  0.91351691758E+02 0.  0.
          5    1    3    3  502    0 -0.72193782913E+02  0.74954856196E+02  0.63095365987E+03  0.63949211571E+03  0.41800000000E+01 0. -1.
         -5    1    3    3    0  502  0.16745000057E+02  0.18877902872E+01  0.92635066891E+01  0.19678509477E+02  0.41800000000E+01 0. -1.
        -11    1    4    4    0    0  0.21967306823E+01 -0.44256499779E+02  0.31466234377E+02  0.54346916235E+02  0.00000000000E+00 0.  1.
         11    1    4    4    0    0  0.53252052174E+02 -0.32586146704E+02  0.23080199985E+03  0.23909663560E+03  0.00000000000E+00 0. -1.
</event>
<event>
 8    1  0.6965441E-009  0.5422932E+02  0.7561462E-02  0.1423779E+00
         -1   -1    0    0    0  501 -0.00000000000E+00  0.00000000000E+00  0.22566354601E+02  0.22566354601E+02  0.00000000000E+00 0.  1.
          1   -1    0    0  501    0  0.00000000000E+00 -0.00000000000E+00 -0.66376762895E+03  0.66376762895E+03  0.00000000000E+00 0. -1.
         25    2    1    2    0    0  0.16392360642E+02 -0.23898606348E+02 -0.48536769401E+03  0.50206436799E+03  0.12508788246E+03 0.  0.
         23    2    1    2    0    0 -0.16392360642E+02  0.23898606348E+02 -0.15583358034E+03  0.18426961557E+03  0.93975175379E+02 0.  0.
          5    1    3    3  502    0 -0.11480693978E+02 -0.45492642579E+01  0.22667182573E+01  0.13233009905E+02  0.41800000000E+01 0.  1.
         -5    1    3    3    0  502  0.27873054620E+02 -0.19349342090E+02 -0.48763441227E+03  0.48883135808E+03  0.41800000000E+01 0.  1.
        -11    1    4    4    0    0 -0.23228245466E+02 -0.10979296353E+02 -0.13255949706E+01  0.25726514297E+02  0.00000000000E+00 0.  1.
         11    1    4    4    0    0  0.68358848235E+01  0.34877902701E+02 -0.15450798537E+03  0.15854310127E+03  0.00000000000E+00 0. -1.
</event>
<event>
 7    1  0.6965441E-009  0.1184114E+03  0.7561462E-02  0.1245741E+00
          4   -1    0    0  501    0  0.00000000000E+00  0.00000000000E+00  0.47224000702E+03  0.47224000702E+03  0.00000000000E+00 0.  1.
         -4   -1    0    0    0  501 -0.00000000000E+00 -0.00000000000E+00 -0.68626216876E+02  0.68626216876E+02  0.00000000000E+00 0. -1.
         23    2    1    2    0    0  0.36978458973E+02  0.38676158538E+02  0.39028094959E+03  0.40429914382E+03  0.90968821117E+02 0.  0.
          5    1    1    2  502    0 -0.44692157774E+02 -0.80402879433E+02  0.66688244769E+00  0.92086530611E+02  0.41800000000E+01 0.  1.
         -5    1    1    2    0  502  0.77136988007E+01  0.41726720895E+02  0.12665958108E+02  0.44480549464E+02  0.41800000000E+01 0.  1.
        -11    1    3    3    0    0  0.59905886643E+02  0.33678820598E+01  0.27760838267E+03  0.28401843604E+03  0.00000000000E+00 0. -1.
         11    1    3    3    0    0 -0.22927427670E+02  0.35308276478E+02  0.11267256692E+03  0.12028070778E+03  0.00000000000E+00 0.  1.
</event>
<event>
 8    1  0.6965441E-009  0.3511141E+03  0.7561462E-02  0.1062159E+00
         -2   -1    0    0    0  501 -0.00000000000E+00  0.00000000000E+00  0.39861175733E+03  0.39861175733E+03  0.00000000000E+00 0.  1.
          2   -1    0    0  501    0  0.00000000000E+00 -0.00000000000E+00 -0.34046933855E+03  0.34046933855E+03  0.00000000000E+00 0. -1.
         25    2    1    2    0    0  0.20815589579E+03 -0.26598729641E+03 -0.69062918687E+02  0.36673606613E+03  0.12509011416E+03 0.  0.
         23    2    1    2    0    0 -0.20815589579E+03  0.26598729641E+03  0.12720533747E+03  0.37234502975E+03  0.91550557075E+02 0.  0.
          5    1    3    3  502    0  0.13468265183E+03 -0.24766788949E+03 -0.71440718167E+02  0.29086087534E+03  0.41800000000E+01 0.  1.
         -5    1    3    3    0  502  0.73473243957E+02 -0.18319406912E+02  0.23777994797E+01  0.75875190791E+02  0.41800000000E+01 0.  1.
        -11    1    4    4    0    0 -0.10410888700E+03  0.79884034236E+02  0.80906241288E+02  0.15416205486E+03  0.00000000000E+00 0. -1.
         11    1    4    4    0    0 -0.10404700879E+03  0.18610326217E+03  0.46299096182E+02  0.21818297490E+03  0.00000000000E+00 0.  1.
</event>
<event>
 8    1  0.6965441E-009  0.9378610E+02  0.7561462E-02  0.1293934E+00
         -1   -1    0    0    0  501 -0.00000000000E+00  0.00000000000E+00  0.14092837883E+03  0.14092837883E+03  0.00000000000E+00 0.  1.
          1   -1    0    0  501    0  0.00000000000E+00 -0.00000000000E+00 -0.11616728859E+03  0.11616728859E+03  0.00000000000E+00 0. -1.
         25    2    1    2    0    0 -0.45289323068E+02  0.46800812707E+02 -0.24679878332E+01  0.14104984549E+03  0.12509008392E+03 0.  0.
         23    2    1    2    0    0  0.45289323068E+02 -0.46800812707E+02  0.27229078067E+02  0.11604582193E+03  0.92107389717E+02 0.  0.
          5    1    3    3  502    0 -0.52363978548E+02 -0.16629951121E+02 -0.38893437736E+02  0.67444150395E+02  0.41800000000E+01 0.  1.
         -5    1    3    3    0  502  0.70746554795E+01  0.63430763827E+02  0.36425449903E+02  0.73605695096E+02  0.41800000000E+01 0.  1.
        -11    1    4    4    0    0  0.34180558080E+02 -0.20246279335E+02  0.60295180053E+02  0.72206170894E+02  0.00000000000E+00 0.  1.
         11    1    4    4    0    0  0.11108764988E+02 -0.26554533372E+02 -0.33066101986E+02  0.43839651033E+02  0.00000000000E+00 0. -1.
</event>
<event>
 8    1  0.6965441E-009  0.1480536E+03  0.7561462E-02  0.1202885E+00
         -2   -1    0    0    0  501 -0.00000000000E+00  0.00000000000E+00  0.21170247593E+02  0.21170247593E+02  0.00000000000E+00 0. -1.
          2   -1    0    0  501    0  0.00000000000E+00 -0.00000000000E+00 -0.11342146651E+04  0.11342146651E+04  0.00000000000E+00 0.  1.
         25    2    1    2    0    0  0.10451518747E+03  0.20263992994E+01 -0.44675111554E+03  0.47556471620E+03  0.12509080442E+03 0.  0.
         23    2    1    2    0    0 -0.10451518747E+03 -0.20263992994E+01 -0.66629330201E+03  0.67982019653E+03  0.85329974869E+02 0.  0.
          5    1    3    3  502    0 -0.64620601820E+01  0.42608564559E+02 -0.93207773864E+02  0.10277358369E+03  0.41800000000E+01 0. -1.
         -5    1    3    3    0  502  0.11097724765E+03 -0.40582165260E+02 -0.35354334168E+03  0.37279113251E+03  0.41800000000E+01 0. -1.
        -11    1    4    4    0    0 -0.87546947371E+02 -0.37505695783E+02 -0.44794962260E+03  0.45796289107E+03  0.00000000000E+00 0. -1.
         11    1    4    4    0    0 -0.16968240101E+02  0.35479296483E+02 -0.21834367941E+03  0.22185730546E+03  0.00000000000E+00 0.  1.
</event>
<event>
 8    1  0.6965441E-009  0.1571502E+03  0.7561462E-02  0.1191952E+00
         -1   -1    0    0    0  501 -0.00000000000E+00  0.00000000000E+00  0.99834613815E+02  0.99834613815E+02  0.00000000000E+00 0.  1.
          1   -1    0    0  501    0  0.00000000000E+00 -0.00000000000E+00 -0.29824584609E+03  0.29824584609E+03  0.00000000000E+00 0. -1.
         25    2    1    2    0    0 -0.87383360251E+02 -0.10648798588E+03 -0.91134076836E+02  0.20719410251E+03  0.12509369836E+03 0.  0.
         23    2    1    2    0    0  0.87383360251E+02  0.10648798588E+03 -0.10727715544E+03  0.19088635739E+03  0.77160032237E+02 0.  0.
          5    1    3    3  502    0 -0.85158545611E+02 -0.22101201135E+02 -0.76747654222E+01  0.88412755904E+02  0.41800000000E+01 0.  1.
         -5    1    3    3    0  502 -0.22248146402E+01 -0.84386784744E+02 -0.83459311414E+02  0.11878134660E+03  0.41800000000E+01 0.  1.
        -11    1    4    4    0    0  0.83134508181E+02  0.81727177435E+02 -0.11583856584E+03  0.16434491571E+03  0.00000000000E+00 0. -1.
         11    1    4    4    0    0  0.42488520704E+01  0.24760808443E+02  0.85614104058E+01  0.26541441687E+02  0.00000000000E+00 0.  1.
</event>
<event>
 8    1  0.6965441E-009  0.1166401E+03  0.7561462E-02  0.1248745E+00
          1   -1    0    0  501    0  0.00000000000E+00  0.00000000000E+00  0.11452547739E+03  0.11452547739E+03  0.00000000000E+00 0. -1.
         -1   -1    0    0    0  501 -0.00000000000E+00 -0.00000000000E+00 -0.17595570703E+03  0.17595570703E+03  0.00000000000E+00 0.  1.
         25    2    1    2    0    0 -0.30787209743E+02  0.62844994746E+02  0.25580300914E+02  0.14559961868E+03  0.12509017354E+03 0.  0.
         23    2    1    2    0    0  0.30787209743E+02 -0.62844994746E+02 -0.87010530552E+02  0.14488156574E+03  0.92317333240E+02 0.  0.
          5    1    3    3  502    0 -0.19960960760E+02  0.94238755225E+02 -0.97750300453E+01  0.96914429025E+02  0.41800000000E+01 0. -1.
         -5    1    3    3    0  502 -0.10826248983E+02 -0.31393760479E+02  0.35355330960E+02  0.48685189651E+02  0.41800000000E+01 0. -1.
        -11    1    4    4    0    0  0.51957804500E+02 -0.20138623435E+02 -0.13610075923E+02  0.57362110918E+02  0.00000000000E+00 0. -1.
         11    1    4    4    0    0 -0.21170594758E+02 -0.42706371311E+02 -0.73400454629E+02  0.87519454824E+02  0.00000000000E+00 0.  1.
</event>
<event>
 8    1  0.6965441E-009  0.9788114E+02  0.7561462E-02  0.1284816E+00
          1   -1    0    0  501    0  0.00000000000E+00  0.00000000000E+00  0.66212755904E+02  0.66212755904E+02  0.00000000000E+00 0. -1.
         -1   -1    0    0    0  501 -0.00000000000E+00 -0.00000000000E+00 -0.18490978199E+03  0.18490978199E+03  0.00000000000E+00 0.  1.
         25    2    1    2    0    0  0.14028668751E+02 -0.13205019276E+02 -0.88894060703E+02  0.15466284683E+03  0.12508903262E+03 0.  0.
         23    2    1    2    0    0 -0.14028668751E+02  0.13205019276E+02 -0.29802965381E+02  0.96459691062E+02  0.89694365337E+02 0.  0.
          5    1    3    3  502    0  0.11199011154E+02  0.51883600071E+02 -0.13491799402E+02  0.54925648455E+02  0.41800000000E+01 0. -1.
         -5    1    3    3    0  502  0.28296575968E+01 -0.65088619347E+02 -0.75402261301E+02  0.99737198376E+02  0.41800000000E+01 0. -1.
        -11    1    4    4    0    0 -0.45054549396E+02  0.69992868984E+01 -0.42533865966E+02  0.62354087214E+02  0.00000000000E+00 0.  1.
         11    1    4    4    0    0  0.31025880645E+02  0.62057323781E+01  0.12730900584E+02  0.34105603848E+02  0.00000000000E+00 0. -1.
</event>
<event>
 8    1  0.6965441E-009  0.1249927E+03  0.7561462E-02  0.1235081E+00
          1   -1    0    0  501    0  0.00000000000E+00  0.00000000000E+00  0.11960554427E+04  0.11960554427E+04  0.00000000000E+00 0. -1.
         -1   -1    0    0    0  501 -0.00000000000E+00 -0.00000000000E+00 -0.13892143000E+02  0.13892143000E+02  0.00000000000E+00 0.  1.
         25    2    1    2    0    0  0.38251272757E+02  0.56286166279E+02  0.72965927453E+03  0.74342560642E+03  0.12509069903E+03 0.  0.
         23    2    1    2    0    0 -0.38251272757E+02 -0.56286166279E+02  0.45250402518E+03  0.46652197929E+03  0.90838163667E+02 0.  0.
          5    1    3    3  502    0 -0.38929610061E+02 -0.29909691523E+01  0.31715700324E+03  0.31957862497E+03  0.41800000000E+01 0. -1.
         -5    1    3    3    0  502  0.77180882819E+02  0.59277135432E+02  0.41250227129E+03  0.42384698145E+03  0.41800000000E+01 0. -1.
        -11    1    4    4    0    0 -0.62891522330E+02 -0.14095328594E+02  0.24385016297E+03  0.25222395574E+03  0.00000000000E+00 0. -1.
         11    1    4    4    0    0  0.24640249573E+02 -0.42190837685E+02  0.20865386221E+03  0.21429802355E+03  0.00000000000E+00 0.  1.
</event>
<event>
 8    1  0.6965441E-009  0.1219818E+03  0.7561462E-02  0.1239863E+00
         -1   -1    0    0    0  501 -0.00000000000E+00  0.00000000000E+00  0.22804365347E+03  0.22804365347E+03  0.00000000000E+00 0.  1.
          1   -1    0    0  501    0  0.00000000000E+00 -0.00000000000E+00 -0.99682601123E+02  0.99682601123E+02  0.00000000000E+00 0. -1.
         25    2    1    2    0    0 -0.69145022289E+02  0.22426826835E+02  0.15071670331E+03  0.20891854742E+03  0.12508972033E+03 0.  0.
         23    2    1    2    0    0  0.69145022289E+02 -0.22426826835E+02 -0.22355650967E+02  0.11880770717E+03  0.91277047952E+02 0.  0.
          5    1    3    3  502    0  0.43566818772E+00 -0.36302724333E+02  0.47810652852E+01  0.36856594879E+02  0.41800000000E+01 0. -1.
         -5    1    3    3    0  502 -0.69580690477E+02  0.58729551168E+02  0.14593563803E+03  0.17206195255E+03  0.41800000000E+01 0. -1.
        -11    1    4    4    0    0  0.83550895801E+02 -0.40752300567E+02 -0.13805861666E+02  0.93979274348E+02  0.00000000000E+00 0.  1.
         11    1    4    4    0    0 -0.14405873512E+02  0.18325473732E+02 -0.85497893005E+01  0.24828432818E+02  0.00000000000E+00 0. -1.
</event>
<event>
 8    1  0.6965441E-009  0.1735156E+03  0.7561462E-02  0.1174230E+00
         -2   -1    0    0    0  501 -0.00000000000E+00  0.00000000000E+00  0.44647692362E+02  0.44647692362E+02  0.00000000000E+00 0. -1.
          2   -1    0    0  501    0  0.00000000000E+00 -0.00000000000E+00 -0.69783680401E+03  0.69783680401E+03  0.00000000000E+00 0.  1.
         25    2    1    2    0    0 -0.39598881932E+02  0.12927943457E+03 -0.29750528794E+03  0.34990894678E+03  0.12508249691E+03 0.  0.
         23    2    1    2    0    0  0.39598881932E+02 -0.12927943457E+03 -0.35568382371E+03  0.39257554959E+03  0.96557423490E+02 0.  0.
          5    1    3    3  502    0  0.38886599933E+02  0.98069603015E+01 -0.80261948411E+02  0.89820915646E+02  0.41800000000E+01 0.  1.
         -5    1    3    3    0  502 -0.78485481866E+02  0.11947247427E+03 -0.21724333952E+03  0.26008803114E+03  0.41800000000E+01 0.  1.
        -11    1    4    4    0    0  0.69775378025E+02 -0.97304451815E+02 -0.28760468942E+03  0.31153365323E+03  0.00000000000E+00 0.  1.
         11    1    4    4    0    0 -0.30176496093E+02 -0.31974982759E+02 -0.68079134299E+02  0.81041896361E+02  0.00000000000E+00 0. -1.
</event>
<event>
 8    1  0.6965441E-009  0.1210888E+03  0.7561462E-02  0.1241312E+00
         -1   -1    0    0    0  501 -0.00000000000E+00  0.00000000000E+00  0.65456409381E+02  0.65456409381E+02  0.00000000000E+00 0. -1.
          1   -1    0    0  501    0  0.00000000000E+00 -0.00000000000E+00 -0.34567060882E+03  0.34567060882E+03  0.00000000000E+00 0.  1.
         25    2    1    2    0    0  0.10191890847E+03 -0.99905216401E+01 -0.13797396782E+03  0.21251404250E+03  0.12505250111E+03 0.  0.
         23    2    1    2    0    0 -0.10191890847E+03  0.99905216401E+01 -0.14224023162E+03  0.19861297570E+03  0.93421390485E+02 0.  0.
          5    1    3    3  502    0  0.43410250672E+02 -0.40194684182E+02  0.29602221458E+00  0.59309548381E+02  0.41800000000E+01 0. -1.
         -5    1    3    3    0  502  0.58508657801E+02  0.30204162542E+02 -0.13826999004E+03  0.15320449411E+03  0.41800000000E+01 0. -1.
        -11    1    4    4    0    0 -0.35547229753E+00  0.15190645960E+02  0.80137972715E+01  0.17178563152E+02  0.00000000000E+00 0. -1.
         11    1    4    4    0    0 -0.10156343618E+03 -0.52001243202E+01 -0.15025402889E+03  0.18143441255E+03  0.00000000000E+00 0.  1.
</event>
<event>
 8    1  0.6965441E-009  0.9434550E+02  0.7561462E-02  0.1292657E+00
         -2   -1    0    0    0  501 -0.00000000000E+00  0.00000000000E+00  0.85475692232E+03  0.85475692232E+03  0.00000000000E+00 0. -1.
          2   -1    0    0  501    0  0.00000000000E+00 -0.00000000000E+00 -0.47095731513E+02  0.47095731513E+02  0.00000000000E+00 0.  1.
         25    2    1    2    0    0 -0.71871850220E+02 -0.33488828038E+02  0.75794486833E+03  0.77227886747E+03  0.12508861363E+03 0.  0.
         23    2    1    2    0    0  0.71871850220E+02  0.33488828038E+02  0.49716322480E+02  0.12957378636E+03  0.89613553294E+02 0.  0.
          5    1    3    3  502    0 -0.32260149150E+02 -0.10154605619E+02  0.38746004514E+02  0.51599985506E+02  0.41800000000E+01 0. -1.
         -5    1    3    3    0  502 -0.39611701071E+02 -0.23334222420E+02  0.71919886382E+03  0.72067888197E+03  0.41800000000E+01 0. -1.
        -11    1    4    4    0    0  0.12078022287E+02  0.45830758869E+02  0.49482566003E+02  0.68519058802E+02  0.00000000000E+00 0. -1.
         11    1    4    4    0    0  0.59793827933E+02 -0.12341930830E+02  0.23375647731E+00  0.61054727561E+02  0.00000000000E+00 0.  1.
</event>
<event>
 8    1  0.6965441E-009  0.9900202E+02  0.7561462E-02  0.1282409E+00
          1   -1    0    0  501    0  0.00000000000E+00  0.00000000000E+00  0.82623898867E+02  0.82623898867E+02  0.00000000000E+00 0. -1.
         -1   -1    0    0    0  501 -0.00000000000E+00 -0.00000000000E+00 -0.24510292763E+03  0.24510292763E+03  0.00000000000E+00 0.  1.
         25    2    1    2    0    0 -0.57023076401E+02 -0.23452488911E+02 -0.97613913006E+01  0.13980669967E+03  0.12509587536E+03 0.  0.
         23    2    1    2    0    0  0.57023076401E+02  0.23452488911E+02 -0.15271763747E+03  0.18792012683E+03  0.90496667331E+02 0.  0.
          5    1    3    3  502    0 -0.32455275613E+02  0.33106846641E+02 -0.48211362404E+02  0.67016535828E+02  0.41800000000E+01 0. -1.
         -5    1    3    3    0  502 -0.24567800788E+02 -0.56559335552E+02  0.38449971103E+02  0.72790163837E+02  0.41800000000E+01 0. -1.
        -11    1    4    4    0    0 -0.13667634022E+02  0.11690897085E+02  0.13146063750E+01  0.18033565491E+02  0.00000000000E+00 0. -1.
         11    1    4    4    0    0  0.70690710423E+02  0.11761591827E+02 -0.15403224384E+03  0.16988656134E+03  0.00000000000E+00 0.  1.
</event>
<event>
 8    1  0.6965441E-009  0.1232792E+03  0.7561462E-02  0.1237783E+00
          2   -1    0    0  501    0  0.00000000000E+00  0.00000000000E+00  0.18155720384E+03  0.18155720384E+03  0.00000000000E+00 0. -1.
         -2   -1    0    0    0  501 -0.00000000000E+00 -0.00000000000E+00 -0.11728918266E+03  0.11728918266E+03  0.00000000000E+00 0.  1.
         25    2    1    2    0    0  0.78116046450E+02  0.41136462803E+02 -0.66975505253E+01  0.15326222048E+03  0.12510046266E+03 0.  0.
         23    2    1    2    0    0 -0.78116046450E+02 -0.41136462803E+02  0.70965571711E+02  0.14558416602E+03  0.91456611252E+02 0.  0.
          5    1    3    3  502    0  0.30127139833E+02 -0.26257964280E+02  0.41217946558E+02  0.57563154544E+02  0.41800000000E+01 0.  1.
         -5    1    3    3    0  502  0.47988906617E+02  0.67394427083E+02 -0.47915497083E+02  0.95699065935E+02  0.41800000000E+01 0.  1.
        -11    1    4    4    0    0 -0.65022304116E+02 -0.67732921097E+02  0.67713041251E+02  0.11576141235E+03  0.00000000000E+00 0. -1.
         11    1    4    4    0    0 -0.13093742334E+02  0.26596458294E+02  0.32525304604E+01  0.29822753671E+02  0.00000000000E+00 0.  1.
</event>
<event>
 8    1  0.6965441E-009  0.2363861E+03  0.7561462E-02  0.1122224E+00
          2   -1    0    0  501    0  0.00000000000E+00  0.00000000000E+00  0.39306558389E+03  0.39306558389E+03  0.00000000000E+00 0. -1.
         -2   -1    0    0    0  501 -0.00000000000E+00 -0.00000000000E+00 -0.16073335613E+03  0.16073335613E+03  0.00000000000E+00 0.  1.
         25    2    1    2    0    0 -0.17155580365E+03 -0.14918825625E+03  0.10658024415E+03  0.28052397394E+03  0.12508326005E+03 0.  0.
         23    2    1    2    0    0  0.17155580365E+03  0.14918825625E+03  0.12575198360E+03  0.27327496608E+03  0.84717861970E+02 0.  0.
          5    1    3    3  502    0 -0.15453862760E+03 -0.80193901727E+02  0.11521313785E+03  0.20881759703E+03  0.41800000000E+01 0.  1.
         -5    1    3    3    0  502 -0.17017176051E+02 -0.68994354520E+02 -0.86328937010E+01  0.71706376914E+02  0.41800000000E+01 0.  1.
        -11    1    4    4    0    0  0.64813650590E+02  0.60240157252E+02  0.40681483732E+01  0.88578979898E+02  0.00000000000E+00 0.  1.
         11    1    4    4    0    0  0.10674215306E+03  0.88948098996E+02  0.12168383523E+03  0.18469598618E+03  0.00000000000E+00 0. -1.
</event>
<event>
 8    1  0.6965441E-009  0.7125424E+02  0.7561462E-02  0.1355879E+00
          3   -1    0    0  501    0  0.00000000000E+00  0.00000000000E+00  0.11024071716E+03  0.11024071716E+03  0.00000000000E+00 0. -1.
         -3   -1    0    0    0  501 -0.00000000000E+00 -0.00000000000E+00 -0.17338623189E+03  0.17338623189E+03  0.00000000000E+00 0.  1.
         25    2    1    2    0    0  0.57633435539E+02  0.39457331897E+02 -0.86492574848E+02  0.16735420523E+03  0.12509184854E+03 0.  0.
         23    2    1    2    0    0 -0.57633435539E+02 -0.39457331897E+02  0.23347060122E+02  0.11627274382E+03  0.89976506970E+02 0.  0.
          5    1    3    3  502    0  0.32063811851E+02  0.28192330162E+02  0.26806286396E+02  0.50586014873E+02  0.41800000000E+01 0.  1.
         -5    1    3    3    0  502  0.25569623688E+02  0.11265001736E+02 -0.11329886124E+03  0.11676819036E+03  0.41800000000E+01 0.  1.
        -11    1    4    4    0    0 -0.44053713780E+02 -0.37056481955E+02 -0.27350184810E+02  0.63733391263E+02  0.00000000000E+00 0.  1.
         11    1    4    4    0    0 -0.13579721759E+02 -0.24008499424E+01  0.50697244931E+02  0.52539352557E+02  0.00000000000E+00 0. -1.
</event>
<event>
 8    1  0.6965441E-009  0.6969509E+02  0.7561462E-02  0.1361133E+00
         -1   -1    0    0    0  501 -0.00000000000E+00  0.00000000000E+00  0.62069750207E+02  0.62069750207E+02  0.00000000000E+00 0.  1.
          1   -1    0    0  501    0  0.00000000000E+00 -0.00000000000E+00 -0.22388537022E+03  0.22388537022E+03  0.00000000000E+00 0. -1.
         25    2    1    2    0    0 -0.22458505452E+02 -0.25331002155E+02 -0.97699660560E+02  0.16229142625E+03  0.12508892527E+03 0.  0.
         23    2    1    2    0    0  0.22458505452E+02  0.25331002155E+02 -0.64115959451E+02  0.12366369417E+03  0.10017888431E+03 0.  0.
          5    1    3    3  502    0 -0.17920707121E+02 -0.40682341932E+02 -0.12367849797E+03  0.13149162691E+03  0.41800000000E+01 0.  1.
         -5    1    3    3    0  502 -0.45377983312E+01  0.15351339777E+02  0.25978837405E+02  0.30799799343E+02  0.41800000000E+01 0.  1.
        -11    1    4    4    0    0 -0.23130942797E+02 -0.46993261144E+01 -0.64908142166E+02  0.69066570061E+02  0.00000000000E+00 0. -1.
         11    1    4    4    0    0  0.45589448249E+02  0.30030328270E+02  0.79218271481E+00  0.54597124110E+02  0.00000000000E+00 0.  1.
</event>
<event>
 8    1  0.6965441E-009  0.1064347E+03  0.7561462E-02  0.1267318E+00
         -1   -1    0    0    0  501 -0.00000000000E+00  0.00000000000E+00  0.17162092201E+02  0.17162092201E+02  0.00000000000E+00 0.  1.
          1   -1    0    0  501    0  0.00000000000E+00 -0.00000000000E+00 -0.98424000103E+03  0.98424000103E+03  0.00000000000E+00 0. -1.
         25    2    1    2    0    0  0.60440964173E+02  0.30883720395E+02 -0.63776109742E+03  0.65344715560E+03  0.12508818263E+03 0.  0.
         23    2    1    2    0    0 -0.60440964173E+02 -0.30883720395E+02 -0.32931681140E+03  0.34795493763E+03  0.89533021919E+02 0.  0.
          5    1    3    3  502    0  0.62429425626E+02 -0.64483658698E+01 -0.13128058128E+03  0.14557155638E+03  0.41800000000E+01 0. -1.
         -5    1    3    3    0  502 -0.19884614533E+01  0.37332086265E+02 -0.50648051615E+03  0.50787559922E+03  0.41800000000E+01 0. -1.
        -11    1    4    4    0    0 -0.17225829652E+02  0.31828366080E+02 -0.10521155688E+03  0.11126205911E+03  0.00000000000E+00 0.  1.
         11    1    4    4    0    0 -0.43215134521E+02 -0.62712086475E+02 -0.22410525452E+03  0.23669287852E+03  0.00000000000E+00 0. -1.
</event>
<event>
 8    1  0.6965441E-009  0.1152394E+03  0.7561462E-02  0.1251164E+00
          2   -1    0    0  501    0  0.00000000000E+00  0.00000000000E+00  0.50965675529E+02  0.50965675529E+02  0.00000000000E+00 0. -1.
         -2   -1    0    0    0  501 -0.00000000000E+00 -0.00000000000E+00 -0.34653519476E+03  0.34653519476E+03  0.00000000000E+00 0.  1.
         25    2    1    2    0    0 -0.73337046955E+02  0.71757984366E+01 -0.19254283048E+03  0.24114425586E+03  0.12509195029E+03 0.  0.
         23    2    1    2    0    0  0.73337046955E+02 -0.71757984366E+01 -0.10302668875E+03  0.15635661442E+03  0.91668302811E+02 0.  0.
          5    1    3    3  502    0  0.34191501563E+02  0.14361132658E+02 -0.48111407054E+02  0.60889086042E+02  0.41800000000E+01 0. -1.
         -5    1    3    3    0  502 -0.10752854852E+03 -0.71853342218E+01 -0.14443142342E+03  0.18025516982E+03  0.41800000000E+01 0. -1.
        -11    1    4    4    0    0  0.64119769515E+01  0.13764708700E+02 -0.81644343363E+02  0.83044442663E+02  0.00000000000E+00 0.  1.
         11    1    4    4    0    0  0.66925070003E+02 -0.20940507136E+02 -0.21382345386E+02  0.73312171761E+02  0.00000000000E+00 0. -1.
</event>
<event>
 8    1  0.6965441E-009  0.1026302E+03  0.7561462E-02  0.1274860E+00
          2   -1    0    0  501    0  0.00000000000E+00  0.00000000000E+00  0.26340954147E+03  0.26340954147E+03  0.00000000000E+00 0. -1.
         -2   -1    0    0    0  501 -0.00000000000E+00 -0.00000000000E+00 -0.57483108250E+02  0.57483108250E+02  0.00000000000E+00 0.  1.
         25    2    1    2    0    0 -0.12472755129E+02  0.19610202044E+02  0.18472195995E+03  0.22429852232E+03  0.12508994757E+03 0.  0.
         23    2    1    2    0    0  0.12472755129E+02 -0.19610202044E+02  0.21204473274E+02  0.96594127403E+02  0.91327247397E+02 0.  0.
          5    1    3    3  502    0 -0.46202999522E+02 -0.37058655741E+02  0.68923389371E+02  0.90972342679E+02  0.41800000000E+01 0. -1.
         -5    1    3    3    0  502  0.33730244394E+02  0.56668857786E+02  0.11579857058E+03  0.13332617964E+03  0.41800000000E+01 0. -1.
        -11    1    4    4    0    0  0.43021010721E+02  0.86365046023E+00  0.36828345653E+02  0.56638152328E+02  0.00000000000E+00 0. -1.
         11    1    4    4    0    0 -0.30548255592E+02 -0.20473852505E+02 -0.15623872379E+02  0.39955975075E+02  0.00000000000E+00 0.  1.
</event>
<event>
 8    1  0.6965441E-009  0.6780989E+02  0.7561462E-02  0.1367703E+00
         -1   -1    0    0    0  501 -0.00000000000E+00  0.00000000000E+00  0.38979420931E+03  0.38979420931E+03  0.00000000000E+00 0.  1.
          1   -1    0    0  501    0  0.00000000000E+00 -0.00000000000E+00 -0.37868530626E+02  0.37868530626E+02  0.00000000000E+00 0. -1.
         25    2    1    2    0    0 -0.44147197039E+02 -0.21322642243E+02  0.23839429992E+03  0.27364762881E+03  0.12509017724E+03 0.  0.
         23    2    1    2    0    0  0.44147197039E+02  0.21322642243E+02  0.11353137876E+03  0.15401511112E+03  0.91802235331E+02 0.  0.
          5    1    3    3  502    0  0.14910426066E+02 -0.81986602347E+01 -0.84574982028E+01  0.19456117572E+02  0.41800000000E+01 0.  1.
         -5    1    3    3    0  502 -0.59057623105E+02 -0.13123982008E+02  0.24685179812E+03  0.25419151124E+03  0.41800000000E+01 0.  1.
        -11    1    4    4    0    0  0.17087203919E+02  0.24859202786E+02  0.12181585593E+03  0.12549523998E+03  0.00000000000E+00 0.  1.
         11    1    4    4    0    0  0.27059993120E+02 -0.35365605432E+01 -0.82844771686E+01  0.28519871144E+02  0.00000000000E+00 0. -1.
</event>
<event>
 8    1  0.6965441E-009  0.1446942E+03  0.7561462E-02  0.1207149E+00
         -1   -1    0    0    0  501 -0.00000000000E+00  0.00000000000E+00  0.45275581869E+03  0.45275581869E+03  0.00000000000E+00 0.  1.
          1   -1    0    0  501    0  0.00000000000E+00 -0.00000000000E+00 -0.52480709553E+02  0.52480709553E+02  0.00000000000E+00 0. -1.
         25    2    1    2    0    0 -0.81217026194E+02  0.77891045869E+02  0.20980000955E+03  0.26893730086E+03  0.12509199580E+03 0.  0.
         23    2    1    2    0    0  0.81217026194E+02 -0.77891045869E+02  0.19047509959E+03  0.23629922739E+03  0.83026146078E+02 0.  0.
          5    1    3    3  502    0 -0.25108377208E+02 -0.33781371233E+02  0.41389730691E+02  0.59179336385E+02  0.41800000000E+01 0. -1.
         -5    1    3    3    0  502 -0.56108648986E+02  0.11167241710E+03  0.16841027886E+03  0.20975796447E+03  0.41800000000E+01 0. -1.
        -11    1    4    4    0    0  0.51954403312E+02 -0.17301530856E+02  0.30341408292E+02  0.62603546629E+02  0.00000000000E+00 0. -1.
         11    1    4    4    0    0  0.29262622882E+02 -0.60589515013E+02  0.16013369130E+03  0.17369568076E+03  0.00000000000E+00 0.  1.
</event>
<event>
 8    1  0.6965441E-009  0.1109168E+03  0.7561462E-02  0.1258881E+00
         -1   -1    0    0    0  501 -0.00000000000E+00  0.00000000000E+00  0.29673286814E+03  0.29673286814E+03  0.00000000000E+00 0.  1.
          1   -1    0    0  501    0  0.00000000000E+00 -0.00000000000E+00 -0.59886367701E+02  0.59886367701E+02  0.00000000000E+00 0. -1.
         25    2    1    2    0    0  0.51709605403E+02  0.55700948852E+02  0.12955221638E+03  0.19546812928E+03  0.12509010274E+03 0.  0.
         23    2    1    2    0    0 -0.51709605403E+02 -0.55700948852E+02  0.10729428406E+03  0.16115110656E+03  0.93172618078E+02 0.  0.
          5    1    3    3  502    0  0.21497885732E+01  0.81256177708E+02  0.42017112201E+02  0.91597478810E+02  0.41800000000E+01 0.  1.
         -5    1    3    3    0  502  0.49559816829E+02 -0.25555228856E+02  0.87535104178E+02  0.10387065047E+03  0.41800000000E+01 0.  1.
        -11    1    4    4    0    0 -0.47570216500E+02 -0.25370098581E+02  0.47343033430E+01  0.54120061234E+02  0.00000000000E+00 0. -1.
         11    1    4    4    0    0 -0.41393889027E+01 -0.30330850271E+02  0.10255998072E+03  0.10703104533E+03  0.00000000000E+00 0.  1.
</event>
<event>
 8    1  0.6965441E-009  0.1497301E+03  0.7561462E-02  0.1200805E+00
         -2   -1    0    0    0  501 -0.00000000000E+00  0.00000000000E+00  0.65973242402E+02  0.65973242402E+02  0.00000000000E+00 0.  1.
          2   -1    0    0  501    0  0.00000000000E+00 -0.00000000000E+00 -0.39995623567E+03  0.39995623567E+03  0.00000000000E+00 0. -1.
         25    2    1    2    0    0  0.94719952319E+02  0.62704013029E+02 -0.23408795960E+03  0.28870128971E+03  0.12509036428E+03 0.  0.
         23    2    1    2    0    0 -0.94719952319E+02 -0.62704013029E+02 -0.99895033673E+02  0.17722818836E+03  0.92342570790E+02 0.  0.
          5    1    3    3  502    0 -0.53407506263E+00 -0.32906589041E+02 -0.57792151810E+02  0.66637332250E+02  0.41800000000E+01 0.  1.
         -5    1    3    3    0  502  0.95254027382E+02  0.95610602070E+02 -0.17629580779E+03  0.22206395746E+03  0.41800000000E+01 0.  1.
        -11    1    4    4    0    0 -0.57299404670E+02  0.10777623236E+01 -0.58728047030E+01  0.57609662230E+02  0.00000000000E+00 0.  1.
         11    1    4    4    0    0 -0.37420547649E+02 -0.63781775352E+02 -0.94022228970E+02  0.11961852613E+03  0.00000000000E+00 0. -1.
</event>
<event>
 8    1  0.6965441E-009  0.1138418E+03  0.7561462E-02  0.1253616E+00
          2   -1    0    0  501    0  0.00000000000E+00  0.00000000000E+00  0.23763361577E+02  0.23763361577E+02  0.00000000000E+00 0. -1.
         -2   -1    0    0    0  501 -0.00000000000E+00 -0.00000000000E+00 -0.58931126500E+03  0.58931126500E+03  0.00000000000E+00 0.  1.
         25    2    1    2    0    0  0.42111531727E+02 -0.23034086011E+00 -0.36220815811E+03  0.38550632836E+03  0.12508775014E+03 0.  0.
         23    2    1    2    0    0 -0.42111531727E+02  0.23034086011E+00 -0.20333974531E+03  0.22756829822E+03  0.93095886976E+02 0.  0.
          5    1    3    3  502    0  0.41695027872E+02  0.58419104848E+02 -0.17211727094E+03  0.18652907151E+03  0.41800000000E+01 0.  1.
         -5    1    3    3    0  502  0.41650385493E+00 -0.58649445708E+02 -0.19009088717E+03  0.19897725685E+03  0.41800000000E+01 0.  1.
        -11    1    4    4    0    0 -0.54608727143E+01  0.41464027560E+02 -0.53576043764E+02  0.67966750531E+02  0.00000000000E+00 0. -1.
         11    1    4    4    0    0 -0.36650659013E+02 -0.41233686700E+02 -0.14976370154E+03  0.15960154769E+03  0.00000000000E+00 0.  1.
</event>
<event>
 8    1  0.6965441E-009  0.7196135E+02  0.7561462E-02  0.1353548E+00
         -2   -1    0    0    0  501 -0.00000000000E+00  0.00000000000E+00  0.38284598763E+02  0.38284598763E+02  0.00000000000E+00 0.  1.
          2   -1    0    0  501    0  0.00000000000E+00 -0.00000000000E+00 -0.69714860132E+03  0.69714860132E+03  0.00000000000E+00 0. -1.
         25    2    1    2    0    0 -0.50814500635E+02 -0.31779561963E+01 -0.60464045589E+03  0.61953925346E+03  0.12508634138E+03 0.  0.
         23    2    1    2    0    0  0.50814500635E+02  0.31779561963E+01 -0.54223546669E+02  0.11589394662E+03  0.88876324014E+02 0.  0.
          5    1    3    3  502    0 -0.70013701589E+02 -0.58621814448E+01 -0.59167293296E+03  0.59584445586E+03  0.41800000000E+01 0.  1.
         -5    1    3    3    0  502  0.19199200954E+02  0.26842252485E+01 -0.12967522930E+02  0.23694797602E+02  0.41800000000E+01 0.  1.
        -11    1    4    4    0    0  0.23825100970E+02 -0.70494188921E+01  0.22749385913E+02  0.33687747066E+02  0.00000000000E+00 0.  1.
         11    1    4    4    0    0  0.26989399665E+02  0.10227375088E+02 -0.76972932582E+02  0.82206199558E+02  0.00000000000E+00 0. -1.
</event>
<event>
 8    1  0.6965441E-009  0.1214930E+03  0.7561462E-02  0.1240654E+00
          1   -1    0    0  501    0  0.00000000000E+00  0.00000000000E+00  0.28484731453E+02  0.28484731453E+02  0.00000000000E+00 0. -1.
         -1   -1    0    0    0  501 -0.00000000000E+00 -0.00000000000E+00 -0.69671288112E+03  0.69671288112E+03  0.00000000000E+00 0.  1.
         25    2    1    2    0    0  0.62328022965E+02 -0.55528245621E+02 -0.44490029519E+03  0.46962954910E+03  0.12508985657E+03 0.  0.
         23    2    1    2    0    0 -0.62328022965E+02  0.55528245621E+02 -0.22332785448E+03  0.25556806348E+03  0.92040947274E+02 0.  0.
          5    1    3    3  502    0 -0.18610555240E+02  0.27934014977E+01 -0.24904915129E+03  0.24979413127E+03  0.41800000000E+01 0. -1.
         -5    1    3    3    0  502  0.80938578206E+02 -0.58321647119E+02 -0.19585114390E+03  0.21983541783E+03  0.41800000000E+01 0. -1.
        -11    1    4    4    0    0 -0.82543138302E+02  0.23219039038E+02 -0.14489791934E+03  0.16836834763E+03  0.00000000000E+00 0.  1.
         11    1    4    4    0    0  0.20215115336E+02  0.32309206583E+02 -0.78429935144E+02  0.87199715852E+02  0.00000000000E+00 0. -1.
</event>
<event>
 8    1  0.6965441E-009  0.1572560E+03  0.7561462E-02  0.1191830E+00
          2   -1    0    0  501    0  0.00000000000E+00  0.00000000000E+00  0.94248091865E+02  0.94248091865E+02  0.00000000000E+00 0. -1.
         -2   -1    0    0    0  501 -0.00000000000E+00 -0.00000000000E+00 -0.38641432307E+03  0.38641432307E+03  0.00000000000E+00 0.  1.
         25    2    1    2    0    0 -0.13713570459E+03  0.45935443723E+02 -0.22937426189E+03  0.29862352946E+03  0.12508874398E+03 0.  0.
         23    2    1    2    0    0  0.13713570459E+03 -0.45935443723E+02 -0.62791969322E+02  0.18203888548E+03  0.90989328772E+02 0.  0.
          5    1    3    3  502    0 -0.63850848672E+02  0.10886951301E+02 -0.20298177131E+03  0.21310684754E+03  0.41800000000E+01 0. -1.
         -5    1    3    3    0  502 -0.73284855918E+02  0.35048492422E+02 -0.26392490576E+02  0.85516681921E+02  0.41800000000E+01 0. -1.
        -11    1    4    4    0    0  0.65446641650E+02 -0.66882353698E+02 -0.50545467405E+02  0.10635486079E+03  0.00000000000E+00 0.  1.
         11    1    4    4    0    0  0.71689062940E+02  0.20946909975E+02 -0.12246501918E+02  0.75684024681E+02  0.00000000000E+00 0. -1.
</event>
<event>
 8    1  0.6965441E-009  0.8833047E+02  0.7561462E-02  0.1306946E+00
          1   -1    0    0  501    0  0.00000000000E+00  0.00000000000E+00  0.31883606730E+03  0.31883606730E+03  0.00000000000E+00 0. -1.
         -1   -1    0    0    0  501 -0.00000000000E+00 -0.00000000000E+00 -0.20667860234E+03  0.20667860234E+03  0.00000000000E+00 0.  1.
         25    2    1    2    0    0  0.58788419216E+02  0.62382874629E+02  0.27956749885E+03  0.31804408333E+03  0.12508537583E+03 0.  0.
         23    2    1    2    0    0 -0.58788419216E+02 -0.62382874629E+02 -0.16741003390E+03  0.20747058630E+03  0.87579811881E+02 0.  0.
          5    1    3    3  502    0  0.48575792497E+02  0.31261543944E+02  0.27907413982E+03  0.28502059516E+03  0.41800000000E+01 0.  1.
         -5    1    3    3    0  502  0.10212626719E+02  0.31121330686E+02  0.49335903121E+00  0.33023488175E+02  0.41800000000E+01 0.  1.
        -11    1    4    4    0    0 -0.35566629431E+02 -0.37045726912E+02 -0.16523633729E+03  0.17303299736E+03  0.00000000000E+00 0.  1.
         11    1    4    4    0    0 -0.23221789785E+02 -0.25337147718E+02 -0.21736966014E+01  0.34437588943E+02  0.00000000000E+00 0. -1.
</event>
<event>
 8    1  0.6965441E-009  0.9321232E+02  0.7561462E-02  0.1295254E+00
         -3   -1    0    0    0  501 -0.00000000000E+00  0.00000000000E+00  0.16652617210E+03  0.16652617210E+03  0.00000000000E+00 0.  1.
          3   -1    0    0  501    0  0.00000000000E+00 -0.00000000000E+00 -0.74933628173E+02  0.74933628173E+02  0.00000000000E+00 0. -1.
         25    2    1    2    0    0 -0.14035902873E+02 -0.22224476632E+02  0.45916323186E+02  0.13582054061E+03  0.12509187258E+03 0.  0.
         23    2    1    2    0    0  0.14035902873E+02  0.22224476632E+02  0.45676220746E+02  0.10563925967E+03  0.91555459206E+02 0.  0.
          5    1    3    3  502    0 -0.52470197511E+02 -0.27035538264E+02  0.68713897651E+02  0.90681387762E+02  0.41800000000E+01 0. -1.
         -5    1    3    3    0  502  0.38434294638E+02  0.48110616319E+01 -0.22797574466E+02  0.45139152848E+02  0.41800000000E+01 0. -1.
        -11    1    4    4    0    0  0.16643001556E+02  0.53950351298E+02  0.91624814945E+01  0.57197735734E+02  0.00000000000E+00 0.  1.
         11    1    4    4    0    0 -0.26070986828E+01 -0.31725874666E+02  0.36513739251E+02  0.48441523933E+02  0.00000000000E+00 0. -1.
</event>
<event>
 8    1  0.6965441E-009  0.7793179E+02  0.7561462E-02  0.1335025E+00
         -1   -1    0    0    0  501 -0.00000000000E+00  0.00000000000E+00  0.40216285430E+03  0.40216285430E+03  0.00000000000E+00 0.  1.
          1   -1    0    0  501    0  0.00000000000E+00 -0.00000000000E+00 -0.48429015190E+02  0.48429015190E+02  0.00000000000E+00 0. -1.
         25    2    1    2    0    0  0.51063524157E+02 -0.27917710163E+02  0.24643934386E+03  0.28241958177E+03  0.12506633410E+03 0.  0.
         23    2    1    2    0    0 -0.51063524157E+02  0.27917710163E+02  0.10729449525E+03  0.16817228771E+03  0.11568460401E+03 0.  0.
          5    1    3    3  502    0  0.55963026633E+02 -0.34671352255E+02  0.42948213098E+02  0.78714575686E+02  0.41800000000E+01 0. -1.
         -5    1    3    3    0  502 -0.48995024756E+01  0.67536420921E+01  0.20349113076E+03  0.20370500609E+03  0.41800000000E+01 0. -1.
        -11    1    4    4    0    0 -0.49002027048E+02 -0.34568357047E+01 -0.70106531296E+01  0.49621543962E+02  0.00000000000E+00 0. -1.
         11    1    4    4    0    0 -0.20614971093E+01  0.31374545868E+02  0.11430514838E+03  0.11855074375E+03  0.00000000000E+00 0.  1.
</event>
<event>
 8    1  0.6965441E-009  0.1153666E+03  0.7561462E-02  0.1250943E+00
          1   -1    0    0  501    0  0.00000000000E+00  0.00000000000E+00  0.38431217284E+03  0.38431217284E+03  0.00000000000E+00 0. -1.
         -1   -1    0    0    0  501 -0.00000000000E+00 -0.00000000000E+00 -0.46656580282E+02  0.46656580282E+02  0.00000000000E+00 0.  1.
         25    2    1    2    0    0 -0.35910245213E+02 -0.50601540462E+02  0.26009442131E+03  0.29520508366E+03  0.12508745667E+03 0.  0.
         23    2    1    2    0    0  0.35910245213E+02  0.50601540462E+02  0.77561171248E+02  0.13576366946E+03  0.92552563720E+02 0.  0.
          5    1    3    3  502    0 -0.70968212282E+02 -0.50898492628E+02  0.10743970054E+03  0.13852041495E+03  0.41800000000E+01 0. -1.
         -5    1    3    3    0  502  0.35057967070E+02  0.29695216616E+00  0.15265472077E+03  0.15668466871E+03  0.41800000000E+01 0. -1.
        -11    1    4    4    0    0  0.65641891369E+02  0.33573080613E+02  0.67733923397E+02  0.10011939884E+03  0.00000000000E+00 0. -1.
         11    1    4    4    0    0 -0.29731646156E+02  0.17028459849E+02  0.98272478510E+01  0.35644270624E+02  0.00000000000E+00 0.  1.
</event>
<event>
 8    1  0.6965441E-009  0.1057840E+03  0.7561462E-02  0.1268583E+00
         -1   -1    0    0    0  501 -0.00000000000E+00  0.00000000000E+00  0.24578208206E+03  0.24578208206E+03  0.00000000000E+00 0.  1.
          1   -1    0    0  501    0  0.00000000000E+00 -0.00000000000E+00 -0.14593629520E+03  0.14593629520E+03  0.00000000000E+00 0. -1.
         25    2    1    2    0    0  0.59638767330E+02 -0.18982190592E+02 -0.95548299587E+02  0.16939443172E+03  0.12509152576E+03 0.  0.
         23    2    1    2    0    0 -0.59638767330E+02  0.18982190592E+02  0.19539408644E+03  0.22232394553E+03  0.85626991137E+02 0.  0.
          5    1    3    3  502    0  0.80619073778E+02 -0.49336789496E+02 -0.92204522059E+02  0.13210866793E+03  0.41800000000E+01 0.  1.
         -5    1    3    3    0  502 -0.20980306448E+02  0.30354598905E+02 -0.33437775281E+01  0.37285763791E+02  0.41800000000E+01 0.  1.
        -11    1    4    4    0    0 -0.36407434033E+02  0.35864145085E+02  0.18476502733E+03  0.19170251298E+03  0.00000000000E+00 0.  1.
         11    1    4    4    0    0 -0.23231333296E+02 -0.16881954493E+02  0.10629059111E+02  0.30621432557E+02  0.00000000000E+00 0. -1.
</event>
<event>
 8    1  0.6965441E-009  0.9661105E+02  0.7561462E-02  0.1287588E+00
          2   -1    0    0  501    0  0.00000000000E+00  0.00000000000E+00  0.27419228202E+02  0.27419228202E+02  0.00000000000E+00 0. -1.
         -2   -1    0    0    0  501 -0.00000000000E+00 -0.00000000000E+00 -0.59907470833E+03  0.59907470833E+03  0.00000000000E+00 0.  1.
         25    2    1    2    0    0  0.55085598100E+02 -0.20721471187E+02 -0.40918143355E+03  0.43190909527E+03  0.12510882675E+03 0.  0.
         23    2    1    2    0    0 -0.55085598100E+02  0.20721471187E+02 -0.16247404657E+03  0.19458484125E+03  0.89451898529E+02 0.  0.
          5    1    3    3  502    0  0.77831396028E+02 -0.34918058930E+02 -0.38853461634E+03  0.39781103246E+03  0.41800000000E+01 0. -1.
         -5    1    3    3    0  502 -0.22745797929E+02  0.14196587743E+02 -0.20646817207E+02  0.34098062815E+02  0.41800000000E+01 0. -1.
        -11    1    4    4    0    0 -0.40566895062E+02 -0.14102824048E+02 -0.14811348576E+03  0.15421467921E+03  0.00000000000E+00 0.  1.
         11    1    4    4    0    0 -0.14518703037E+02  0.34824295235E+02 -0.14360560814E+02  0.40370162043E+02  0.00000000000E+00 0. -1.
</event>
<event>
 8    1  0.6965441E-009  0.1141124E+03  0.7561462E-02  0.1253138E+00
         -2   -1    0    0    0  501 -0.00000000000E+00  0.00000000000E+00  0.64707502992E+02  0.64707502992E+02  0.00000000000E+00 0.  1.
          2   -1    0    0  501    0  0.00000000000E+00 -0.00000000000E+00 -0.30554760978E+03  0.30554760978E+03  0.00000000000E+00 0. -1.
         25    2    1    2    0    0  0.38093934394E+02 -0.79070091591E+02 -0.99831268101E+02  0.18252628621E+03  0.12508531427E+03 0.  0.
         23    2    1    2    0    0 -0.38093934394E+02  0.79070091591E+02 -0.14100883869E+03  0.18772882656E+03  0.87495099936E+02 0.  0.
          5    1    3    3  502    0  0.32704477316E+02 -0.92487039748E+02 -0.12145502859E+03  0.15618012590E+03  0.41800000000E+01 0.  1.
         -5    1    3    3    0  502  0.53894570780E+01  0.13416948157E+02  0.21623760485E+02  0.26346160308E+02  0.41800000000E+01 0.  1.
        -11    1    4    4    0    0 -0.57614918933E+02  0.75771073953E+02 -0.82510243893E+02  0.12597092871E+03  0.00000000000E+00 0.  1.
         11    1    4    4    0    0  0.19520984540E+02  0.32990176383E+01 -0.58498594796E+02  0.61757897859E+02  0.00000000000E+00 0. -1.
</event>
<event>
 8    1  0.6965441E-009  0.8341252E+02  0.7561462E-02  0.1319637E+00
         -3   -1    0    0    0  501 -0.00000000000E+00  0.00000000000E+00  0.64753967837E+02  0.64753967837E+02  0.00000000000E+00 0.  1.
          3   -1    0    0  501    0  0.00000000000E+00 -0.00000000000E+00 -0.17484191298E+03  0.17484191298E+03  0.00000000000E+00 0. -1.
         25    2    1    2    0    0 -0.12291618458E+02 -0.38685717494E+02 -0.40926298339E+02  0.13772587785E+03  0.12508312001E+03 0.  0.
         23    2    1    2    0    0  0.12291618458E+02  0.38685717494E+02 -0.69161646808E+02  0.10187000297E+03  0.62821138911E+02 0.  0.
          5    1    3    3  502    0  0.35849666941E+02 -0.16704928991E+02  0.29510799223E+02  0.49523862361E+02  0.41800000000E+01 0.  1.
         -5    1    3    3    0  502 -0.48141285399E+02 -0.21980788502E+02 -0.70437097561E+02  0.88202015487E+02  0.41800000000E+01 0.  1.
        -11    1    4    4    0    0 -0.23161496061E+02  0.24797313401E+01 -0.15033367359E+02  0.27723746165E+02  0.00000000000E+00 0.  1.
         11    1    4    4    0    0  0.35453114519E+02  0.36205986153E+02 -0.54128279448E+02  0.74146256807E+02  0.00000000000E+00 0. -1.
</event>
<event>
 8    1  0.6965441E-009  0.1154402E+03  0.7561462E-02  0.1250815E+00
          2   -1    0    0  501    0  0.00000000000E+00  0.00000000000E+00  0.52136700043E+03  0.52136700043E+03  0.00000000000E+00 0. -1.
         -2   -1    0    0    0  501 -0.00000000000E+00 -0.00000000000E+00 -0.51440638864E+02  0.51440638864E+02  0.00000000000E+00 0.  1.
         25    2    1    2    0    0 -0.20356118594E+02 -0.66833160391E+02  0.42659050909E+03  0.45000747786E+03  0.12508487035E+03 0.  0.
         23    2    1    2    0    0  0.20356118594E+02  0.66833160391E+02  0.43335852476E+02  0.12280016144E+03  0.91218641990E+02 0.  0.
          5    1    3    3  502    0 -0.68099451248E+02 -0.66241053229E+02  0.27084992676E+03  0.28705847422E+03  0.41800000000E+01 0. -1.
         -5    1    3    3    0  502  0.47743332654E+02 -0.59210716263E+00  0.15574058233E+03  0.16294900364E+03  0.41800000000E+01 0. -1.
        -11    1    4    4    0    0  0.23892826184E+02  0.31778584269E+01 -0.21188542398E+02  0.32092370685E+02  0.00000000000E+00 0.  1.
         11    1    4    4    0    0 -0.35367075900E+01  0.63655301965E+02  0.64524394875E+02  0.90707790750E+02  0.00000000000E+00 0. -1.
</event>
<event>
 8    1  0.6965441E-009  0.9031039E+02  0.7561462E-02  0.1302102E+00
          2   -1    0    0  501    0  0.00000000000E+00  0.00000000000E+00  0.14036513282E+03  0.14036513282E+03  0.00000000000E+00 0.  1.
         -2   -1    0    0    0  501 -0.00000000000E+00 -0.00000000000E+00 -0.84900630261E+02  0.84900630261E+02  0.00000000000E+00 0. -1.
         25    2    1    2    0    0  0.10794280928E+02 -0.97160396451E+01  0.24462633849E+02  0.12828189820E+03  0.12508759740E+03 0.  0.
         23    2    1    2    0    0 -0.10794280928E+02  0.97160396451E+01  0.31001868715E+02  0.96983864886E+02  0.90740488522E+02 0.  0.
          5    1    3    3  502    0  0.30438982589E+02  0.40873003413E+02 -0.22996923658E+02  0.56066611871E+02  0.41800000000E+01 0.  1.
         -5    1    3    3    0  502 -0.19644701661E+02 -0.50589043058E+02  0.47459557506E+02  0.72215286329E+02  0.41800000000E+01 0.  1.
        -11    1    4    4    0    0  0.95485478329E+01  0.38580591176E+02  0.44056985340E+02  0.59335105448E+02  0.00000000000E+00 0.  1.
         11    1    4    4    0    0 -0.20342828761E+02 -0.28864551531E+02 -0.13055116626E+02  0.37648759438E+02  0.00000000000E+00 0. -1.
</event>
<event>
 8    1  0.6965441E-009  0.1602389E+03  0.7561462E-02  0.1188427E+00
         -1   -1    0    0    0  501 -0.00000000000E+00  0.00000000000E+00  0.14720012492E+03  0.14720012492E+03  0.00000000000E+00 0.  1.
          1   -1    0    0  501    0  0.00000000000E+00 -0.00000000000E+00 -0.22839922254E+03  0.22839922254E+03  0.00000000000E+00 0. -1.
         25    2    1    2    0    0  0.40599501966E+02 -0.13898927978E+03 -0.71888941259E+02  0.20440772764E+03  0.12509260485E+03 0.  0.
         23    2    1    2    0    0 -0.40599501966E+02  0.13898927978E+03 -0.93101563594E+01  0.17119161982E+03  0.90849062915E+02 0.  0.
          5    1    3    3  502    0  0.51594580060E+02 -0.97863708071E+02 -0.10323699583E+03  0.15137587574E+03  0.41800000000E+01 0. -1.
         -5    1    3    3    0  502 -0.10995078095E+02 -0.41125571705E+02  0.31348054566E+02  0.53031851896E+02  0.41800000000E+01 0. -1.
        -11    1    4    4    0    0 -0.37954335646E+02  0.15048453460E+03  0.14816020757E+01  0.15520412976E+03  0.00000000000E+00 0.  1.
         11    1    4    4    0    0 -0.26451663197E+01 -0.11495254827E+02 -0.10791758435E+02  0.15987490063E+02  0.00000000000E+00 0. -1.
</event>
<event>
 8    1  0.6965441E-009  0.2111633E+03  0.7561462E-02  0.1140648E+00
          1   -1    0    0  501    0  0.00000000000E+00  0.00000000000E+00  0.29410843541E+03  0.29410843541E+03  0.00000000000E+00 0. -1.
         -1   -1    0    0    0  501 -0.00000000000E+00 -0.00000000000E+00 -0.18326623239E+03  0.18326623239E+03  0.00000000000E+00 0.  1.
         25    2    1    2    0    0  0.62098404868E+02  0.17244047781E+03  0.15174926824E+03  0.26882730696E+03  0.12509336625E+03 0.  0.
         23    2    1    2    0    0 -0.62098404868E+02 -0.17244047781E+03 -0.40907065220E+02  0.20854736085E+03  0.90701066460E+02 0.  0.
          5    1    3    3  502    0  0.22624138529E+01 -0.17849468526E+02  0.29585937311E+02  0.34878677292E+02  0.41800000000E+01 0. -1.
         -5    1    3    3    0  502  0.59835991015E+02  0.19028994634E+03  0.12216333093E+03  0.23394862966E+03  0.41800000000E+01 0. -1.
        -11    1    4    4    0    0 -0.40771502271E+02 -0.12023922385E+02 -0.51746292344E+01  0.42821336909E+02  0.00000000000E+00 0. -1.
         11    1    4    4    0    0 -0.21326902596E+02 -0.16041655543E+03 -0.35732435986E+02  0.16572602394E+03  0.00000000000E+00 0.  1.
</event>
<event>
 8    1  0.6965441E-009  0.1247747E+03  0.7561462E-02  0.1235422E+00
         -1   -1    0    0    0  501 -0.00000000000E+00  0.00000000000E+00  0.82431680987E+02  0.82431680987E+02  0.00000000000E+00 0.  1.
          1   -1    0    0  501    0  0.00000000000E+00 -0.00000000000E+00 -0.26987159465E+03  0.26987159465E+03  0.00000000000E+00 0. -1.
         25    2    1    2    0    0  0.32733975487E+02 -0.92504977949E+02 -0.97545290814E+02  0.18652280104E+03  0.12508791889E+03 0.  0.
         23    2    1    2    0    0 -0.32733975487E+02  0.92504977949E+02 -0.89894622846E+02  0.16578047459E+03  0.98860702215E+02 0.  0.
          5    1    3    3  502    0 -0.19150425017E+02 -0.66476721337E+02 -0.10707763453E+03  0.12754993326E+03  0.41800000000E+01 0. -1.
         -5    1    3    3    0  502  0.51884400504E+02 -0.26028256611E+02  0.95323437161E+01  0.58972867783E+02  0.41800000000E+01 0. -1.
        -11    1    4    4    0    0  0.20786605832E+02  0.48466475188E+02 -0.59479045545E+00  0.52739320956E+02  0.00000000000E+00 0.  1.
         11    1    4    4    0    0 -0.53520581319E+02  0.44038502761E+02 -0.89299832391E+02  0.11304115364E+03  0.00000000000E+00 0. -1.
</event>
<event>
 8    1  0.6965441E-009  0.2613396E+03  0.7561462E-02  0.1106341E+00
          1   -1    0    0  501    0  0.00000000000E+00  0.00000000000E+00  0.62601489026E+03  0.62601489026E+03  0.00000000000E+00 0. -1.
         -1   -1    0    0    0  501 -0.00000000000E+00 -0.00000000000E+00 -0.11734220858E+03  0.11734220858E+03  0.00000000000E+00 0.  1.
         25    2    1    2    0    0 -0.23226427044E+03  0.81747898556E+02  0.21738023790E+03  0.35147042055E+03  0.12509148033E+03 0.  0.
         23    2    1    2    0    0  0.23226427044E+03 -0.81747898556E+02  0.29129244378E+03  0.39188667828E+03  0.89969275719E+02 0.  0.
          5    1    3    3  502    0 -0.21257062034E+03  0.11162764032E+03  0.18758924991E+03  0.30471986774E+03  0.41800000000E+01 0. -1.
         -5    1    3    3    0  502 -0.19693650101E+02 -0.29879741766E+02  0.29790987996E+02  0.46750552810E+02  0.41800000000E+01 0. -1.
        -11    1    4    4    0    0  0.12281228665E+03 -0.49491264456E+02  0.88710777389E+02  0.15937956279E+03  0.00000000000E+00 0.  1.
         11    1    4    4    0    0  0.10945198379E+03 -0.32256634100E+02  0.20258166639E+03  0.23250711549E+03  0.00000000000E+00 0. -1.
</event>
<event>
 8    1  0.6965441E-009  0.1267696E+03  0.7561462E-02  0.1232329E+00
          2   -1    0    0  501    0  0.00000000000E+00  0.00000000000E+00  0.18641558113E+03  0.18641558113E+03  0.00000000000E+00 0. -1.
         -2   -1    0    0    0  501 -0.00000000000E+00 -0.00000000000E+00 -0.10664483734E+03  0.10664483734E+03  0.00000000000E+00 0.  1.
         25    2    1    2    0    0 -0.24373498232E+02 -0.64504837555E+02 -0.15679084857E+02  0.14369903471E+03  0.12509451383E+03 0.  0.
         23    2    1    2    0    0  0.24373498232E+02  0.64504837555E+02  0.95449828649E+02  0.14936138376E+03  0.91886950570E+02 0.  0.
          5    1    3    3  502    0 -0.18247429653E+02  0.36761472414E+02 -0.28064875357E+01  0.41348800651E+02  0.41800000000E+01 0.  1.
         -5    1    3    3    0  502 -0.61260685787E+01 -0.10126630997E+03 -0.12872597321E+02  0.10235023406E+03  0.41800000000E+01 0.  1.
        -11    1    4    4    0    0 -0.32094830705E+02  0.33225988093E+02  0.59974066824E+02  0.75702926853E+02  0.00000000000E+00 0.  1.
         11    1    4    4    0    0  0.56468328937E+02  0.31278849462E+02  0.35475761826E+02  0.73658456905E+02  0.00000000000E+00 0. -1.
</event>
<event>
 8    1  0.6965441E-009  0.8433145E+02  0.7561462E-02  0.1317190E+00
         -4   -1    0    0    0  501 -0.00000000000E+00  0.00000000000E+00  0.89718189963E+02  0.89718189963E+02  0.00000000000E+00 0. -1.
          4   -1    0    0  501    0  0.00000000000E+00 -0.00000000000E+00 -0.15888791446E+03  0.15888791446E+03  0.00000000000E+00 0.  1.
         25    2    1    2    0    0 -0.32966689551E+02  0.13501148687E+02 -0.74776973594E+02  0.15002788645E+03  0.12509071626E+03 0.  0.
         23    2    1    2    0    0  0.32966689551E+02 -0.13501148687E+02  0.56072490947E+01  0.98578217980E+02  0.91744973606E+02 0.  0.
          5    1    3    3  502    0 -0.14732496325E+02 -0.24442201376E+02 -0.97730291021E+02  0.10189774207E+03  0.41800000000E+01 0.  1.
         -5    1    3    3    0  502 -0.18234193226E+02  0.37943350063E+02  0.22953317427E+02  0.48130144374E+02  0.41800000000E+01 0.  1.
        -11    1    4    4    0    0 -0.21097604250E+02  0.23820388382E+02  0.81033864931E+01  0.32835722627E+02  0.00000000000E+00 0. -1.
         11    1    4    4    0    0  0.54064293801E+02 -0.37321537069E+02 -0.24961373984E+01  0.65742495353E+02  0.00000000000E+00 0.  1.
</event>
<event>
 8    1  0.6965441E-009  0.7992820E+02  0.7561462E-02  0.1329255E+00
          2   -1    0    0  501    0  0.00000000000E+00  0.00000000000E+00  0.20427025113E+03  0.20427025113E+03  0.00000000000E+00 0.  1.
         -2   -1    0    0    0  501 -0.00000000000E+00 -0.00000000000E+00 -0.79598021730E+02  0.79598021730E+02  0.00000000000E+00 0. -1.
         25    2    1    2    0    0 -0.21257428434E+02  0.26740086364E+02  0.64764417403E+01  0.12982784594E+03  0.12508562988E+03 0.  0.
         23    2    1    2    0    0  0.21257428434E+02 -0.26740086364E+02  0.11819578766E+03  0.15404042692E+03  0.92689257320E+02 0.  0.
          5    1    3    3  502    0 -0.41375838085E+01  0.56630758599E+02 -0.41616845455E+02  0.70523731076E+02  0.41800000000E+01 0. -1.
         -5    1    3    3    0  502 -0.17119844625E+02 -0.29890672235E+02  0.48093287195E+02  0.59304114865E+02  0.41800000000E+01 0. -1.
        -11    1    4    4    0    0 -0.82254227883E+01 -0.36306105969E+02  0.60806890155E+01  0.37719566403E+02  0.00000000000E+00 0. -1.
         11    1    4    4    0    0  0.29482851222E+02  0.95660196052E+01  0.11211509864E+03  0.11632086052E+03  0.00000000000E+00 0.  1.
</event>
<event>
 8    1  0.6965441E-009  0.9945232E+02  0.7561462E-02  0.1281452E+00
          3   -1    0    0  501    0  0.00000000000E+00  0.00000000000E+00  0.35680783432E+02  0.35680783432E+02  0.00000000000E+00 0. -1.
         -3   -1    0    0    0  501 -0.00000000000E+00 -0.00000000000E+00 -0.36128247509E+03  0.36128247509E+03  0.00000000000E+00 0.  1.
         25    2    1    2    0    0  0.31478927260E+02 -0.49098133836E+01 -0.17852436426E+03  0.22030268771E+03  0.12508915400E+03 0.  0.
         23    2    1    2    0    0 -0.31478927260E+02  0.49098133836E+01 -0.14707732739E+03  0.17666057081E+03  0.92532091273E+02 0.  0.
          5    1    3    3  502    0  0.26477335708E+01 -0.50048588079E+02 -0.15255603073E+03  0.16063214677E+03  0.41800000000E+01 0.  1.
         -5    1    3    3    0  502  0.28831193689E+02  0.45138774696E+02 -0.25968333528E+02  0.59670540946E+02  0.41800000000E+01 0.  1.
        -11    1    4    4    0    0  0.20208878628E+02  0.30987460963E+02 -0.79426155811E+02  0.87619265800E+02  0.00000000000E+00 0.  1.
         11    1    4    4    0    0 -0.51687805888E+02 -0.26077647579E+02 -0.67651171582E+02  0.89041305006E+02  0.00000000000E+00 0. -1.
</event>
<event>
 8    1  0.6965441E-009  0.2896199E+03  0.7561462E-02  0.1090548E+00
          1   -1    0    0  501    0  0.00000000000E+00  0.00000000000E+00  0.87735262493E+03  0.87735262493E+03  0.00000000000E+00 0. -1.
         -1   -1    0    0    0  501 -0.00000000000E+00 -0.00000000000E+00 -0.11642413729E+03  0.11642413729E+03  0.00000000000E+00 0.  1.
         25    2    1    2    0    0  0.17319603719E+03  0.21656898069E+03  0.20620930436E+03  0.36751683254E+03  0.12508938523E+03 0.  0.
         23    2    1    2    0    0 -0.17319603719E+03 -0.21656898069E+03  0.55471918328E+03  0.62625992969E+03  0.87115650393E+02 0.  0.
          5    1    3    3  502    0  0.10212098521E+03  0.20485224149E+03  0.17820859252E+03  0.29011878828E+03  0.41800000000E+01 0. -1.
         -5    1    3    3    0  502  0.71075051977E+02  0.11716739194E+02  0.28000711843E+02  0.77398044256E+02  0.41800000000E+01 0. -1.
        -11    1    4    4    0    0 -0.23055956142E+02 -0.41879094449E+02  0.39938415790E+02  0.62293761496E+02  0.00000000000E+00 0.  1.
         11    1    4    4    0    0 -0.15014008105E+03 -0.17468988624E+03  0.51478076748E+03  0.56396616819E+03  0.00000000000E+00 0. -1.
</event>
<event>
 8    1  0.6965441E-009  0.8906386E+02  0.7561462E-02  0.1305135E+00
         -1   -1    0    0    0  501 -0.00000000000E+00  0.00000000000E+00  0.24114327253E+03  0.24114327253E+03  0.00000000000E+00 0.  1.
          1   -1    0    0  501    0  0.00000000000E+00 -0.00000000000E+00 -0.55795286880E+02  0.55795286880E+02  0.00000000000E+00 0. -1.
         25    2    1    2    0    0 -0.56725319384E+01  0.17425693080E+02  0.57638083835E+02  0.13894861721E+03  0.12509491244E+03 0.  0.
         23    2    1    2    0    0  0.56725319384E+01 -0.17425693080E+02  0.12770990182E+03  0.15798994220E+03  0.91187556262E+02 0.  0.
          5    1    3    3  502    0 -0.57734316993E+02  0.67212505297E+01  0.62451073266E+02  0.85416833934E+02  0.41800000000E+01 0. -1.
         -5    1    3    3    0  502  0.52061785054E+02  0.10704442551E+02 -0.48129894314E+01  0.53531783275E+02  0.41800000000E+01 0. -1.
        -11    1    4    4    0    0 -0.27829730765E+02  0.18421013558E+01  0.37458528580E+01  0.28141049473E+02  0.00000000000E+00 0. -1.
         11    1    4    4    0    0  0.33502262703E+02 -0.19267794436E+02  0.12396404896E+03  0.12984889273E+03  0.00000000000E+00 0.  1.
</event>
<event>
 8    1  0.6965441E-009  0.5509842E+02  0.7561462E-02  0.1419634E+00
          1   -1    0    0  501    0  0.00000000000E+00  0.00000000000E+00  0.67458478163E+02  0.67458478163E+02  0.00000000000E+00 0. -1.
         -1   -1    0    0    0  501 -0.00000000000E+00 -0.00000000000E+00 -0.21646224424E+03  0.21646224424E+03  0.00000000000E+00 0.  1.
         25    2    1    2    0    0 -0.48312443495E+02 -0.19938559144E+02 -0.95587358275E+02  0.16588586212E+03  0.12509811291E+03 0.  0.
         23    2    1    2    0    0  0.48312443495E+02  0.19938559144E+02 -0.53416407805E+02  0.11803486028E+03  0.91363435148E+02 0.  0.
          5    1    3    3  502    0 -0.12408352896E+02  0.13235722633E+01  0.30387155143E+02  0.33114508343E+02  0.41800000000E+01 0. -1.
         -5    1    3    3    0  502 -0.35904090599E+02 -0.21262131408E+02 -0.12597451342E+03  0.13277135378E+03  0.41800000000E+01 0. -1.
        -11    1    4    4    0    0  0.23708271098E+02  0.19162082052E+02  0.22719079246E+02  0.38018733130E+02  0.00000000000E+00 0. -1.
         11    1    4    4    0    0  0.24604172397E+02  0.77647709289E+00 -0.76135487051E+02  0.80016127153E+02  0.00000000000E+00 0.  1.
</event>
<event>
 8    1  0.6965441E-009  0.1531977E+03  0.7561462E-02  0.1196598E+00
          1   -1    0    0  501    0  0.00000000000E+00  0.00000000000E+00  0.37891369925E+03  0.37891369925E+03  0.00000000000E+00 0. -1.
         -1   -1    0    0    0  501 -0.00000000000E+00 -0.00000000000E+00 -0.81329412070E+02  0.81329412070E+02  0.00000000000E+00 0.  1.
         25    2    1    2    0    0  0.12005614239E+03 -0.55437071204E+02  0.10583898886E+03  0.21056182586E+03  0.12509054623E+03 0.  0.
         23    2    1    2    0    0 -0.12005614239E+03  0.55437071204E+02  0.19174529832E+03  0.24968128546E+03  0.89931855820E+02 0.  0.
          5    1    3    3  502    0  0.91581095853E+02  0.14071023232E+02  0.97987157288E+02  0.13492237103E+03  0.41800000000E+01 0. -1.
         -5    1    3    3    0  502  0.28475046539E+02 -0.69508094435E+02  0.78518315736E+01  0.75639454826E+02  0.41800000000E+01 0. -1.
        -11    1    4    4    0    0 -0.73906263265E+02  0.55231725705E+02  0.17967333721E+03  0.20197818540E+03  0.00000000000E+00 0. -1.
         11    1    4    4    0    0 -0.46149879126E+02  0.20534549862E+00  0.12071961112E+02  0.47703100059E+02  0.00000000000E+00 0.  1.
</event>
<event>
 8    1  0.6965441E-009  0.1067871E+03  0.7561462E-02  0.1266638E+00
          1   -1    0    0  501    0  0.00000000000E+00  0.00000000000E+00  0.26940854577E+03  0.26940854577E+03  0.00000000000E+00 0. -1.
         -1   -1    0    0    0  501 -0.00000000000E+00 -0.00000000000E+00 -0.46502091350E+02  0.46502091350E+02  0.00000000000E+00 0.  1.
         25    2    1    2    0    0  0.36629963787E+01  0.22006480688E+02  0.12290322841E+03  0.17677558497E+03  0.12508677449E+03 0.  0.
         23    2    1    2    0    0 -0.36629963787E+01 -0.22006480688E+02  0.10000322601E+03  0.13913505215E+03  0.94128713954E+02 0.  0.
          5    1    3    3  502    0  0.57121329008E+02  0.26416949658E+02  0.10015738484E+03  0.11836247545E+03  0.41800000000E+01 0.  1.
         -5    1    3    3    0  502 -0.53458332630E+02 -0.44104689709E+01  0.22745843579E+02  0.58413109523E+02  0.41800000000E+01 0.  1.
        -11    1    4    4    0    0 -0.12849035850E+02 -0.58074728456E+02  0.59617488146E+02  0.84214112239E+02  0.00000000000E+00 0.  1.
         11    1    4    4    0    0  0.91860394715E+01  0.36068247768E+02  0.40385737862E+02  0.54920939912E+02  0.00000000000E+00 0. -1.
</event>
<event>
 8    1  0.6965441E-009  0.1452862E+03  0.7561462E-02  0.1206388E+00
         -1   -1    0    0    0  501 -0.00000000000E+00  0.00000000000E+00  0.46365670611E+02  0.46365670611E+02  0.00000000000E+00 0.  1.
          1   -1    0    0  501    0  0.00000000000E+00 -0.00000000000E+00 -0.55177998458E+03  0.55177998458E+03  0.00000000000E+00 0. -1.
         25    2    1    2    0    0  0.28779500455E+02  0.10945191768E+03 -0.20975314311E+03  0.26917032371E+03  0.12509316606E+03 0.  0.
         23    2    1    2    0    0 -0.28779500455E+02 -0.10945191768E+03 -0.29566117086E+03  0.32897533148E+03  0.89449755919E+02 0.  0.
          5    1    3    3  502    0 -0.27147094528E+02  0.77470964421E+02 -0.18041447529E+03  0.19825632490E+03  0.41800000000E+01 0. -1.
         -5    1    3    3    0  502  0.55926594983E+02  0.31980953262E+02 -0.29338667815E+02  0.70913998810E+02  0.41800000000E+01 0. -1.
        -11    1    4    4    0    0 -0.60751287720E+02 -0.79044796785E+02 -0.21642809629E+03  0.23828537454E+03  0.00000000000E+00 0. -1.
         11    1    4    4    0    0  0.31971787264E+02 -0.30407120899E+02 -0.79233074574E+02  0.90689956933E+02  0.00000000000E+00 0.  1.
</event>
<event>
 8    1  0.6965441E-009  0.1267841E+03  0.7561462E-02  0.1232307E+00
          2   -1    0    0  501    0  0.00000000000E+00  0.00000000000E+00  0.23001900446E+04  0.23001900446E+04  0.00000000000E+00 0. -1.
         -2   -1    0    0    0  501 -0.00000000000E+00 -0.00000000000E+00 -0.15217813737E+02  0.15217813737E+02  0.00000000000E+00 0.  1.
         25    2    1    2    0    0 -0.11151984015E+03  0.23505782108E+02  0.18252625037E+04  0.18330899006E+04  0.12508468966E+03 0.  0.
         23    2    1    2    0    0  0.11151984015E+03 -0.23505782108E+02  0.45970972713E+03  0.48231795775E+03  0.91150329690E+02 0.  0.
          5    1    3    3  502    0  0.58345358359E+01  0.15866307110E+02  0.92560987238E+03  0.92577367092E+03  0.41800000000E+01 0.  1.
         -5    1    3    3    0  502 -0.11735437599E+03  0.76394749982E+01  0.89965263132E+03  0.90731622965E+03  0.41800000000E+01 0.  1.
        -11    1    4    4    0    0  0.48099951038E+02  0.61035967163E+01  0.63084753987E+02  0.79564724397E+02  0.00000000000E+00 0.  1.
         11    1    4    4    0    0  0.63419889115E+02 -0.29609378825E+02  0.39662497315E+03  0.40275323335E+03  0.00000000000E+00 0. -1.
</event>
<event>
 8    1  0.6965441E-009  0.1667565E+03  0.7561462E-02  0.1181273E+00
         -2   -1    0    0    0  501 -0.00000000000E+00  0.00000000000E+00  0.39135649015E+02  0.39135649015E+02  0.00000000000E+00 0.  1.
          2   -1    0    0  501    0  0.00000000000E+00 -0.00000000000E+00 -0.82900566840E+03  0.82900566840E+03  0.00000000000E+00 0. -1.
         25    2    1    2    0    0  0.18443753402E+02  0.14112985488E+03 -0.37925480277E+03  0.42395825901E+03  0.12509433235E+03 0.  0.
         23    2    1    2    0    0 -0.18443753402E+02 -0.14112985488E+03 -0.41061521662E+03  0.44418305840E+03  0.91847293248E+02 0.  0.
          5    1    3    3  502    0  0.55203839686E+02  0.77267403669E+02 -0.11299465584E+03  0.14765832260E+03  0.41800000000E+01 0.  1.
         -5    1    3    3    0  502 -0.36760086283E+02  0.63862451207E+02 -0.26626014693E+03  0.27629993641E+03  0.41800000000E+01 0.  1.
        -11    1    4    4    0    0 -0.16428138887E+02  0.60157994192E+01 -0.18983526038E+02  0.25815651276E+02  0.00000000000E+00 0.  1.
         11    1    4    4    0    0 -0.20156145150E+01 -0.14714565430E+03 -0.39163169058E+03  0.41836740712E+03  0.00000000000E+00 0. -1.
</event>
<event>
 8    1  0.6965441E-009  0.1037749E+03  0.7561462E-02  0.1272552E+00
         -2   -1    0    0    0  501 -0.00000000000E+00  0.00000000000E+00  0.17020536347E+03  0.17020536347E+03  0.00000000000E+00 0.  1.
          2   -1    0    0  501    0  0.00000000000E+00 -0.00000000000E+00 -0.78814987880E+02  0.78814987880E+02  0.00000000000E+00 0. -1.
         25    2    1    2    0    0 -0.17032157697E+02  0.63845434997E+01  0.14760423895E+02  0.12726418650E+03  0.12508975282E+03 0.  0.
         23    2    1    2    0    0  0.17032157697E+02 -0.63845434997E+01  0.76629951693E+02  0.12175616484E+03  0.92852341865E+02 0.  0.
          5    1    3    3  502    0  0.25517754845E+02 -0.43776726459E+02 -0.17645990175E+02  0.53818314365E+02  0.41800000000E+01 0.  1.
         -5    1    3    3    0  502 -0.42549912542E+02  0.50161269959E+02  0.32406414070E+02  0.73445872138E+02  0.41800000000E+01 0.  1.
        -11    1    4    4    0    0  0.98747571958E+01 -0.47778626146E+02  0.58030300038E+02  0.75814402779E+02  0.00000000000E+00 0. -1.
         11    1    4    4    0    0  0.71574005009E+01  0.41394082647E+02  0.18599651655E+02  0.45941762066E+02  0.00000000000E+00 0.  1.
</event>
<event>
 7    1  0.6965441E-009  0.1608526E+03  0.7561462E-02  0.1187738E+00
         -2   -1    0    0    0  501 -0.00000000000E+00  0.00000000000E+00  0.22985845815E+03  0.22985845815E+03  0.00000000000E+00 0. -1.
          2   -1    0    0  501    0  0.00000000000E+00 -0.00000000000E+00 -0.16694638082E+03  0.16694638082E+03  0.00000000000E+00 0.  1.
         25    2    1    2    0    0 -0.94956410537E+02 -0.10278982280E+02  0.12154669680E+03  0.19885578679E+03  0.12509055543E+03 0.  0.
          5    1    3    3  502    0 -0.53753038586E+02  0.44319170837E+02  0.10863362536E+03  0.12912131900E+03  0.41800000000E+01 0. -1.
         -5    1    3    3    0  502 -0.41203371951E+02 -0.54598153117E+02  0.12913071436E+02  0.69734467789E+02  0.41800000000E+01 0. -1.
        -11    1    1    2    0    0  0.79826064005E+02  0.79421356010E+02 -0.59093320368E+02  0.12716907170E+03  0.00000000000E+00 0.  1.
         11    1    1    2    0    0  0.15130346532E+02 -0.69142373730E+02  0.45870089876E+00  0.70779980486E+02  0.00000000000E+00 0. -1.
</event>
<event>
 8    1  0.6965441E-009  0.1697854E+03  0.7561462E-02  0.1178072E+00
          1   -1    0    0  501    0  0.00000000000E+00  0.00000000000E+00  0.41228121825E+02  0.41228121825E+02  0.00000000000E+00 0.  1.
         -1   -1    0    0    0  501 -0.00000000000E+00 -0.00000000000E+00 -0.81493553838E+03  0.81493553838E+03  0.00000000000E+00 0. -1.
         25    2    1    2    0    0  0.14371641939E+03  0.25818462304E+02 -0.40324801838E+03  0.44674136924E+03  0.12509150438E+03 0.  0.
         23    2    1    2    0    0 -0.14371641939E+03 -0.25818462304E+02 -0.37045939817E+03  0.40942229096E+03  0.95212627542E+02 0.  0.
          5    1    3    3  502    0  0.61371503450E+02  0.74094898928E+02 -0.18754133744E+03  0.21082158602E+03  0.41800000000E+01 0.  1.
         -5    1    3    3    0  502  0.82344915938E+02 -0.48276436624E+02 -0.21570668094E+03  0.23591978322E+03  0.41800000000E+01 0.  1.
        -11    1    4    4    0    0 -0.12502372009E+03 -0.14473943453E+02 -0.36609482234E+03  0.38712510196E+03  0.00000000000E+00 0. -1.
         11    1    4    4    0    0 -0.18692699298E+02 -0.11344518851E+02 -0.43645758303E+01  0.22297188997E+02  0.00000000000E+00 0.  1.
</event>
<event>
 8    1  0.6965441E-009  0.1139633E+03  0.7561462E-02  0.1253402E+00
         -2   -1    0    0    0  501 -0.00000000000E+00  0.00000000000E+00  0.10796944260E+03  0.10796944260E+03  0.00000000000E+00 0.  1.
          2   -1    0    0  501    0  0.00000000000E+00 -0.00000000000E+00 -0.20284937702E+03  0.20284937702E+03  0.00000000000E+00 0. -1.
         25    2    1    2    0    0 -0.44672525337E+02 -0.88637579902E+02 -0.42197940497E+02  0.16516999225E+03  0.12509278582E+03 0.  0.
         23    2    1    2    0    0  0.44672525337E+02  0.88637579902E+02 -0.52681993927E+02  0.14564882737E+03  0.92660311564E+02 0.  0.
          5    1    3    3  502    0 -0.57093756141E+02 -0.69941340765E+02 -0.80201199441E+02  0.12083539602E+03  0.41800000000E+01 0.  1.
         -5    1    3    3    0  502  0.12421230804E+02 -0.18696239137E+02  0.38003258944E+02  0.44334596230E+02  0.41800000000E+01 0.  1.
        -11    1    4    4    0    0  0.39139136520E+02  0.16685187126E+02 -0.59516953097E+02  0.73161022293E+02  0.00000000000E+00 0. -1.
         11    1    4    4    0    0  0.55333888175E+01  0.71952392776E+02  0.68349591704E+01  0.72487805077E+02  0.00000000000E+00 0.  1.
</event>
<event>
 8    1  0.6965441E-009  0.1194229E+03  0.7561462E-02  0.1244052E+00
         -2   -1    0    0    0  501 -0.00000000000E+00  0.00000000000E+00  0.39852175562E+03  0.39852175562E+03  0.00000000000E+00 0.  1.
          2   -1    0    0  501    0  0.00000000000E+00 -0.00000000000E+00 -0.57742358733E+02  0.57742358733E+02  0.00000000000E+00 0. -1.
         25    2    1    2    0    0  0.94796663401E+02  0.36667018688E+02  0.22260692809E+03  0.27483092219E+03  0.12508922298E+03 0.  0.
         23    2    1    2    0    0 -0.94796663401E+02 -0.36667018688E+02  0.11817246880E+03  0.18143319217E+03  0.92856842429E+02 0.  0.
          5    1    3    3  502    0  0.42512482601E+02  0.53352019891E+02  0.20644779661E+03  0.21746704194E+03  0.41800000000E+01 0. -1.
         -5    1    3    3    0  502  0.52284180801E+02 -0.16685001203E+02  0.16159131475E+02  0.57363880249E+02  0.41800000000E+01 0. -1.
        -11    1    4    4    0    0 -0.42800026684E+02 -0.45778273566E+02  0.13360393752E+02  0.64078020694E+02  0.00000000000E+00 0.  1.
         11    1    4    4    0    0 -0.51996636717E+02  0.91112548774E+01  0.10481207505E+03  0.11735517147E+03  0.00000000000E+00 0. -1.
</event>
<event>
 8    1  0.6965441E-009  0.1046928E+03  0.7561462E-02  0.1270726E+00
          2   -1    0    0  501    0  0.00000000000E+00  0.00000000000E+00  0.11414667057E+03  0.11414667057E+03  0.00000000000E+00 0. -1.
         -2   -1    0    0    0  501 -0.00000000000E+00 -0.00000000000E+00 -0.13354791137E+03  0.13354791137E+03  0.00000000000E+00 0.  1.
         25    2    1    2    0    0 -0.50052593576E+02  0.44400455553E+01  0.87574494212E+01  0.13509239868E+03  0.12509311385E+03 0.  0.
         23    2    1    2    0    0  0.50052593576E+02 -0.44400455553E+01 -0.28158690215E+02  0.11260218326E+03  0.96754140547E+02 0.  0.
          5    1    3    3  502    0  0.29803297991E+02 -0.21242967801E+02  0.31070314256E+02  0.48190632701E+02  0.41800000000E+01 0. -1.
         -5    1    3    3    0  502 -0.79855891567E+02  0.25683013357E+02 -0.22312864834E+02  0.86901765978E+02  0.41800000000E+01 0. -1.
        -11    1    4    4    0    0 -0.12094576099E+02 -0.21009492611E+02 -0.40413774459E+02  0.47126963798E+02  0.00000000000E+00 0.  1.
         11    1    4    4    0    0  0.62147169675E+02  0.16569447055E+02  0.12255084244E+02  0.65475219466E+02  0.00000000000E+00 0. -1.
</event>
<event>
 8    1  0.6965441E-009  0.8015471E+02  0.7561462E-02  0.1328613E+00
         -2   -1    0    0    0  501 -0.00000000000E+00  0.00000000000E+00  0.10780586676E+03  0.10780586676E+03  0.00000000000E+00 0. -1.
          2   -1    0    0  501    0  0.00000000000E+00 -0.00000000000E+00 -0.10893253987E+03  0.10893253987E+03  0.00000000000E+00 0.  1.
         25    2    1    2    0    0  0.22597960178E+01  0.83957341340E+00  0.87000587080E+01  0.12541494750E+03  0.12508959378E+03 0.  0.
         23    2    1    2    0    0 -0.22597960178E+01 -0.83957341340E+00 -0.98267318209E+01  0.91323459136E+02  0.90761214011E+02 0.  0.
          5    1    3    3  502    0  0.42433728727E+02  0.46855043107E+02  0.10204506401E+02  0.64168689788E+02  0.41800000000E+01 0. -1.
         -5    1    3    3    0  502 -0.40173932710E+02 -0.46015469693E+02 -0.15044476933E+01  0.61246257709E+02  0.41800000000E+01 0. -1.
        -11    1    4    4    0    0  0.12186464984E+02  0.11481058251E+02 -0.46830197869E+02  0.49733208823E+02  0.00000000000E+00 0.  1.
         11    1    4    4    0    0 -0.14446261002E+02 -0.12320631664E+02  0.37003466048E+02  0.41590250313E+02  0.00000000000E+00 0. -1.
</event>
<event>
 8    1  0.6965441E-009  0.7793860E+02  0.7561462E-02  0.1335005E+00
          1   -1    0    0  501    0  0.00000000000E+00  0.00000000000E+00  0.57793014689E+03  0.57793014689E+03  0.00000000000E+00 0. -1.
         -1   -1    0    0    0  501 -0.00000000000E+00 -0.00000000000E+00 -0.26599975497E+02  0.26599975497E+02  0.00000000000E+00 0.  1.
         25    2    1    2    0    0  0.72343228480E+01  0.16761822402E+02  0.44246848077E+03  0.46017344934E+03  0.12509177785E+03 0.  0.
         23    2    1    2    0    0 -0.72343228480E+01 -0.16761822402E+02  0.10886169062E+03  0.14435667304E+03  0.93030571587E+02 0.  0.
          5    1    3    3  502    0  0.27209585775E+02  0.30478403381E+02  0.41274793578E+02  0.58226932047E+02  0.41800000000E+01 0. -1.
         -5    1    3    3    0  502 -0.19975262927E+02 -0.13716580978E+02  0.40119368719E+03  0.40194651729E+03  0.41800000000E+01 0. -1.
        -11    1    4    4    0    0 -0.19034523936E+02  0.33532157875E+02  0.25305361565E+02  0.46120277938E+02  0.00000000000E+00 0.  1.
         11    1    4    4    0    0  0.11800201088E+02 -0.50293980277E+02  0.83556329058E+02  0.98236395106E+02  0.00000000000E+00 0. -1.
</event>
<event>
 8    1  0.6965441E-009  0.1040656E+03  0.7561462E-02  0.1271972E+00
          1   -1    0    0  501    0  0.00000000000E+00  0.00000000000E+00  0.40728196424E+02  0.40728196424E+02  0.00000000000E+00 0. -1.
         -1   -1    0    0    0  501 -0.00000000000E+00 -0.00000000000E+00 -0.33664663259E+03  0.33664663259E+03  0.00000000000E+00 0.  1.
         25    2    1    2    0    0 -0.25182010901E+02  0.34538311217E+01 -0.11083893153E+03  0.16905147838E+03  0.12508825275E+03 0.  0.
         23    2    1    2    0    0  0.25182010901E+02 -0.34538311217E+01 -0.18507950464E+03  0.20832335064E+03  0.92185317498E+02 0.  0.
          5    1    3    3  502    0  0.46393397662E+02 -0.69140317997E+01 -0.16054397794E+02  0.49753062930E+02  0.41800000000E+01 0. -1.
         -5    1    3    3    0  502 -0.71575408563E+02  0.10367862921E+02 -0.94784533735E+02  0.11929841545E+03  0.41800000000E+01 0. -1.
        -11    1    4    4    0    0 -0.23874483439E+02 -0.25396144993E+02 -0.11403323598E+03  0.11924149466E+03  0.00000000000E+00 0.  1.
         11    1    4    4    0    0  0.49056494341E+02  0.21942313871E+02 -0.71046268657E+02  0.89081855981E+02  0.00000000000E+00 0. -1.
</event>
<event>
 8    1  0.6965441E-009  0.9256487E+02  0.7561462E-02  0.1296757E+00
          2   -1    0    0  501    0  0.00000000000E+00  0.00000000000E+00  0.62742675114E+03  0.62742675114E+03  0.00000000000E+00 0. -1.
         -2   -1    0    0    0  501 -0.00000000000E+00 -0.00000000000E+00 -0.23148975714E+02  0.23148975714E+02  0.00000000000E+00 0.  1.
         25    2    1    2    0    0  0.39594695587E+02  0.65942470207E+01  0.43129985635E+03  0.45086588182E+03  0.12509697554E+03 0.  0.
         23    2    1    2    0    0 -0.39594695587E+02 -0.65942470207E+01  0.17297791908E+03  0.19970984504E+03  0.91386200835E+02 0.  0.
          5    1    3    3  502    0 -0.22044024107E+00  0.44826894381E+02  0.34767835326E+03  0.35058124420E+03  0.41800000000E+01 0.  1.
         -5    1    3    3    0  502  0.39815135828E+02 -0.38232647360E+02  0.83621503087E+02  0.10028463763E+03  0.41800000000E+01 0.  1.
        -11    1    4    4    0    0 -0.41746671261E+02 -0.36085275124E+02  0.15631456624E+03  0.16576843868E+03  0.00000000000E+00 0.  1.
         11    1    4    4    0    0  0.21519756741E+01  0.29491028103E+02  0.16663352839E+02  0.33941406360E+02  0.00000000000E+00 0. -1.
</event>
<event>
 8    1  0.6965441E-009  0.8105816E+02  0.7561462E-02  0.1326075E+00
          1   -1    0    0  501    0  0.00000000000E+00  0.00000000000E+00  0.45483086301E+03  0.45483086301E+03  0.00000000000E+00 0. -1.
         -1   -1    0    0    0  501 -0.00000000000E+00 -0.00000000000E+00 -0.37098726578E+02  0.37098726578E+02  0.00000000000E+00 0.  1.
         25    2    1    2    0    0 -0.50813461386E+02  0.18269474408E+02  0.32205297269E+03  0.34968745044E+03  0.12508962474E+03 0.  0.
         23    2    1    2    0    0  0.50813461386E+02 -0.18269474408E+02  0.95679163737E+02  0.14224213915E+03  0.90346788672E+02 0.  0.
          5    1    3    3  502    0 -0.27575997979E+02  0.18387373388E+02  0.32425770214E+03  0.32597401885E+03  0.41800000000E+01 0. -1.
         -5    1    3    3    0  502 -0.23237463407E+02 -0.11789897952E+00 -0.22047294490E+01  0.23713431588E+02  0.41800000000E+01 0. -1.
        -11    1    4    4    0    0  0.71182806338E+02 -0.34453959035E+02  0.68595326114E+02  0.10468708600E+03  0.00000000000E+00 0.  1.
         11    1    4    4    0    0 -0.20369344952E+02  0.16184484626E+02  0.27083837623E+02  0.37555053146E+02  0.00000000000E+00 0. -1.
</event>
<event>
 8    1  0.6965441E-009  0.9615646E+02  0.7561462E-02  0.1288592E+00
          4   -1    0    0  501    0  0.00000000000E+00  0.00000000000E+00  0.53007345021E+02  0.53007345021E+02  0.00000000000E+00 0. -1.
         -4   -1    0    0    0  501 -0.00000000000E+00 -0.00000000000E+00 -0.24764721843E+03  0.24764721843E+03  0.00000000000E+00 0.  1.
         25    2    1    2    0    0  0.16274897216E+02  0.93245669260E+01 -0.68045021413E+02  0.14363001087E+03  0.12509050825E+03 0.  0.
         23    2    1    2    0    0 -0.16274897216E+02 -0.93245669260E+01 -0.12659485199E+03  0.15702455258E+03  0.90986997613E+02 0.  0.
          5    1    3    3  502    0 -0.11791783542E+02 -0.45064821136E+02  0.63559504997E+01  0.47199097130E+02  0.41800000000E+01 0. -1.
         -5    1    3    3    0  502  0.28066680757E+02  0.54389388062E+02 -0.74400971913E+02  0.96430913737E+02  0.41800000000E+01 0. -1.
        -11    1    4    4    0    0 -0.47486136486E+02  0.85204351060E+01 -0.10377541773E+03  0.11444154970E+03  0.00000000000E+00 0.  1.
         11    1    4    4    0    0  0.31211239271E+02 -0.17845002032E+02 -0.22819434264E+02  0.42583002882E+02  0.00000000000E+00 0. -1.
</event>
<event>
 8    1  0.6965441E-009  0.1206766E+03  0.7561462E-02  0.1241985E+00
          2   -1    0    0  501    0  0.00000000000E+00  0.00000000000E+00  0.16670379487E+03  0.16670379487E+03  0.00000000000E+00 0. -1.
         -2   -1    0    0    0  501 -0.00000000000E+00 -0.00000000000E+00 -0.18438857894E+03  0.18438857894E+03  0.00000000000E+00 0.  1.
         25    2    1    2    0    0  0.70959989355E+02  0.53147213682E+02 -0.11461754397E+03  0.19142992137E+03  0.12509311331E+03 0.  0.
         23    2    1    2    0    0 -0.70959989355E+02 -0.53147213682E+02  0.96932759898E+02  0.15966245244E+03  0.90753470273E+02 0.  0.
          5    1    3    3  502    0  0.20520276222E+02  0.73999488034E+02 -0.11297317986E+03  0.13666534943E+03  0.41800000000E+01 0. -1.
         -5    1    3    3    0  502  0.50439713132E+02 -0.20852274352E+02 -0.16443641097E+01  0.54764571941E+02  0.41800000000E+01 0. -1.
        -11    1    4    4    0    0 -0.75038776331E+02 -0.21863217600E+02  0.26571918206E+02  0.82552317195E+02  0.00000000000E+00 0. -1.
         11    1    4    4    0    0  0.40787869764E+01 -0.31283996081E+02  0.70360841692E+02  0.77110135246E+02  0.00000000000E+00 0.  1.
</event>
<event>
 8    1  0.6965441E-009  0.1086752E+03  0.7561462E-02  0.1263043E+00
         -1   -1    0    0    0  501 -0.00000000000E+00  0.00000000000E+00  0.44268534691E+02  0.44268534691E+02  0.00000000000E+00 0.  1.
          1   -1    0    0  501    0  0.00000000000E+00 -0.00000000000E+00 -0.58810007182E+03  0.58810007182E+03  0.00000000000E+00 0. -1.
         25    2    1    2    0    0  0.55223386699E+02 -0.18502514199E+02 -0.49277351446E+03  0.51172789409E+03  0.12509090920E+03 0.  0.
         23    2    1    2    0    0 -0.55223386699E+02  0.18502514199E+02 -0.51058022665E+02  0.12064071242E+03  0.92494834150E+02 0.  0.
          5    1    3    3  502    0  0.87659319513E+02  0.17034531368E+02 -0.30373697407E+03  0.31661957200E+03  0.41800000000E+01 0.  1.
         -5    1    3    3    0  502 -0.32435932814E+02 -0.35537045567E+02 -0.18903654039E+03  0.19510832209E+03  0.41800000000E+01 0.  1.
        -11    1    4    4    0    0 -0.35420413717E+02  0.37943876226E+02  0.10642276373E+02  0.52986804936E+02  0.00000000000E+00 0.  1.
         11    1    4    4    0    0 -0.19802972983E+02 -0.19441362027E+02 -0.61700299038E+02  0.67653907484E+02  0.00000000000E+00 0. -1.
</event>
<event>
 8    1  0.6965441E-009  0.1613375E+03  0.7561462E-02  0.1187195E+00
          1   -1    0    0  501    0  0.00000000000E+00  0.00000000000E+00  0.15277570792E+03  0.15277570792E+03  0.00000000000E+00 0. -1.
         -1   -1    0    0    0  501 -0.00000000000E+00 -0.00000000000E+00 -0.27192234093E+03  0.27192234093E+03  0.00000000000E+00 0.  1.
         25    2    1    2    0    0 -0.50311210542E+01 -0.14679159505E+03 -0.15757784366E+03  0.24909994595E+03  0.12508765609E+03 0.  0.
         23    2    1    2    0    0  0.50311210542E+01  0.14679159505E+03  0.38431210655E+02  0.17559810290E+03  0.88230670607E+02 0.  0.
          5    1    3    3  502    0 -0.30885036596E+02 -0.52178329026E+02  0.30428683919E+01  0.60853881992E+02  0.41800000000E+01 0. -1.
         -5    1    3    3    0  502  0.25853915542E+02 -0.94613266019E+02 -0.16062071206E+03  0.18824606396E+03  0.41800000000E+01 0. -1.
        -11    1    4    4    0    0 -0.25377341224E+02  0.12165386967E+03  0.58154439724E+01  0.12440857222E+03  0.00000000000E+00 0.  1.
         11    1    4    4    0    0  0.30408462278E+02  0.25137725374E+02  0.32615766683E+02  0.51189530682E+02  0.00000000000E+00 0. -1.
</event>
<event>
 8    1  0.6965441E-009  0.1934337E+03  0.7561462E-02  0.1155400E+00
         -1   -1    0    0    0  501 -0.00000000000E+00  0.00000000000E+00  0.92699196327E+02  0.92699196327E+02  0.00000000000E+00 0.  1.
          1   -1    0    0  501    0  0.00000000000E+00 -0.00000000000E+00 -0.48663839849E+03  0.48663839849E+03  0.00000000000E+00 0. -1.
         25    2    1    2    0    0 -0.52318338259E+02 -0.17274942263E+03 -0.21632547762E+03  0.30825882840E+03  0.12508885434E+03 0.  0.
         23    2    1    2    0    0  0.52318338259E+02  0.17274942263E+03 -0.17761372455E+03  0.27107876642E+03  0.96734124894E+02 0.  0.
          5    1    3    3  502    0 -0.25113412010E+02 -0.39801637019E+02  0.61323747988E+01  0.47643805398E+02  0.41800000000E+01 0. -1.
         -5    1    3    3    0  502 -0.27204926249E+02 -0.13294778561E+03 -0.22245785242E+03  0.26061502300E+03  0.41800000000E+01 0. -1.
        -11    1    4    4    0    0 -0.26375882011E+02  0.24438491946E+02 -0.41732779811E+02  0.55086767479E+02  0.00000000000E+00 0. -1.
         11    1    4    4    0    0  0.78694220270E+02  0.14831093069E+03 -0.13588094474E+03  0.21599199894E+03  0.00000000000E+00 0.  1.
</event>
<event>
 8    1  0.6965441E-009  0.1192695E+03  0.7561462E-02  0.1244307E+00
          2   -1    0    0  501    0  0.00000000000E+00  0.00000000000E+00  0.29882928909E+03  0.29882928909E+03  0.00000000000E+00 0. -1.
         -2   -1    0    0    0  501 -0.00000000000E+00 -0.00000000000E+00 -0.70027223187E+02  0.70027223187E+02  0.00000000000E+00 0.  1.
         25    2    1    2    0    0 -0.66704925399E+02 -0.40674137963E+02  0.19459556500E+03  0.24416863712E+03  0.12508779662E+03 0.  0.
         23    2    1    2    0    0  0.66704925399E+02  0.40674137963E+02  0.34206500895E+02  0.12468787515E+03  0.90956302336E+02 0.  0.
          5    1    3    3  502    0  0.30792852799E+01  0.33597578717E+02  0.97846531468E+02  0.10358424308E+03  0.41800000000E+01 0.  1.
         -5    1    3    3    0  502 -0.69784210679E+02 -0.74271716680E+02  0.96749033537E+02  0.14058439404E+03  0.41800000000E+01 0.  1.
        -11    1    4    4    0    0  0.72758470064E+02  0.12620112115E+02  0.52543338896E+02  0.90630373817E+02  0.00000000000E+00 0.  1.
         11    1    4    4    0    0 -0.60535446644E+01  0.28054025848E+02 -0.18336838001E+02  0.34057501335E+02  0.00000000000E+00 0. -1.
</event>
<event>
 8    1  0.6965441E-009  0.1640552E+03  0.7561462E-02  0.1184193E+00
          1   -1    0    0  501    0  0.00000000000E+00  0.00000000000E+00  0.33019390316E+03  0.33019390316E+03  0.00000000000E+00 0. -1.
         -1   -1    0    0    0  501 -0.00000000000E+00 -0.00000000000E+00 -0.92194986506E+02  0.92194986506E+02  0.00000000000E+00 0.  1.
         25    2    1    2    0    0 -0.30876603056E+02 -0.13363720293E+03  0.11394659134E+03  0.21781574597E+03  0.12509039488E+03 0.  0.
         23    2    1    2    0    0  0.30876603056E+02  0.13363720293E+03  0.12405232531E+03  0.20457314369E+03  0.87458133308E+02 0.  0.
          5    1    3    3  502    0 -0.71339664736E+02 -0.86020690863E+02  0.10705162414E+03  0.15481094810E+03  0.41800000000E+01 0.  1.
         -5    1    3    3    0  502  0.40463061680E+02 -0.47616512070E+02  0.68949672065E+01  0.63004797873E+02  0.41800000000E+01 0.  1.
        -11    1    4    4    0    0  0.51268240864E+01  0.12694285954E+03  0.71785752145E+02  0.14592452887E+03  0.00000000000E+00 0.  1.
         11    1    4    4    0    0  0.25749778970E+02  0.66943433882E+01  0.52266573166E+02  0.58648614825E+02  0.00000000000E+00 0. -1.
</event>
<event>
 8    1  0.6965441E-009  0.2881316E+03  0.7561462E-02  0.1091329E+00
         -2   -1    0    0    0  501 -0.00000000000E+00  0.00000000000E+00  0.41543982075E+03  0.41543982075E+03  0.00000000000E+00 0.  1.
          2   -1    0    0  501    0  0.00000000000E+00 -0.00000000000E+00 -0.24041577374E+03  0.24041577374E+03  0.00000000000E+00 0. -1.
         25    2    1    2    0    0  0.18380078741E+03  0.21849037093E+03  0.39591906382E+01  0.31174789167E+03  0.12510116356E+03 0.  0.
         23    2    1    2    0    0 -0.18380078741E+03 -0.21849037093E+03  0.17106485637E+03  0.34410770282E+03  0.87327855887E+02 0.  0.
          5    1    3    3  502    0  0.15339453859E+03  0.19526380636E+03 -0.41923391247E+02  0.25185885269E+03  0.41800000000E+01 0. -1.
         -5    1    3    3    0  502  0.30406248826E+02  0.23226564573E+02  0.45882581885E+02  0.59889038980E+02  0.41800000000E+01 0. -1.
        -11    1    4    4    0    0 -0.13288176972E+03 -0.12232007125E+03  0.14648917982E+03  0.23254858494E+03  0.00000000000E+00 0.  1.
         11    1    4    4    0    0 -0.50919017693E+02 -0.96170299688E+02  0.24575676546E+02  0.11155911788E+03  0.00000000000E+00 0. -1.
</event>
<event>
 8    1  0.6965441E-009  0.1049107E+03  0.7561462E-02  0.1270296E+00
         -2   -1    0    0    0  501 -0.00000000000E+00  0.00000000000E+00  0.65178004482E+02  0.65178004482E+02  0.00000000000E+00 0.  1.
          2   -1    0    0  501    0  0.00000000000E+00 -0.00000000000E+00 -0.35136808070E+03  0.35136808070E+03  0.00000000000E+00 0. -1.
         25    2    1    2    0    0 -0.79002691870E+02  0.98175141373E+01 -0.24891811967E+03  0.28974630855E+03  0.12511947935E+03 0.  0.
         23    2    1    2    0    0  0.79002691870E+02 -0.98175141373E+01 -0.37271956544E+02  0.12679977663E+03  0.91384767339E+02 0.  0.
          5    1    3    3  502    0 -0.45288741485E+02 -0.40678743095E+02 -0.20710411112E+03  0.21590603393E+03  0.41800000000E+01 0. -1.
         -5    1    3    3    0  502 -0.33713950384E+02  0.50496257233E+02 -0.41814008553E+02  0.73840274623E+02  0.41800000000E+01 0. -1.
        -11    1    4    4    0    0  0.50625079254E+02  0.12141402439E+02  0.22794480091E+02  0.56832214678E+02  0.00000000000E+00 0.  1.
         11    1    4    4    0    0  0.28377612616E+02 -0.21958916577E+02 -0.60066436635E+02  0.69967561949E+02  0.00000000000E+00 0. -1.
</event>
<event>
 8    1  0.6965441E-009  0.8000310E+02  0.7561462E-02  0.1329043E+00
         -1   -1    0    0    0  501 -0.00000000000E+00  0.00000000000E+00  0.11173679730E+03  0.11173679730E+03  0.00000000000E+00 0.  1.
          1   -1    0    0  501    0  0.00000000000E+00 -0.00000000000E+00 -0.13068451427E+03  0.13068451427E+03  0.00000000000E+00 0. -1.
         25    2    1    2    0    0 -0.16675969782E+02  0.52329212996E+02 -0.18917153760E+02  0.13792094366E+03  0.12509154045E+03 0.  0.
         23    2    1    2    0    0  0.16675969782E+02 -0.52329212996E+02 -0.30563206687E-01  0.10450036790E+03  0.88903832633E+02 0.  0.
          5    1    3    3  502    0 -0.48538935400E+01 -0.21394210890E+01 -0.65079740684E+02  0.65429217117E+02  0.41800000000E+01 0.  1.
         -5    1    3    3    0  502 -0.11822076242E+02  0.54468634085E+02  0.46162586924E+02  0.72491726543E+02  0.41800000000E+01 0.  1.
        -11    1    4    4    0    0  0.23077375071E+02 -0.72559218783E+02 -0.16172955991E+02  0.77839385764E+02  0.00000000000E+00 0. -1.
         11    1    4    4    0    0 -0.64014052893E+01  0.20230005787E+02  0.16142392784E+02  0.26660982139E+02  0.00000000000E+00 0.  1.
</event>
<event>
 8    1  0.6965441E-009  0.1015505E+03  0.7561462E-02  0.1277069E+00
         -2   -1    0    0    0  501 -0.00000000000E+00  0.00000000000E+00  0.30560057384E+03  0.30560057384E+03  0.00000000000E+00 0.  1.
          2   -1    0    0  501    0  0.00000000000E+00 -0.00000000000E+00 -0.99932667841E+02  0.99932667841E+02  0.00000000000E+00 0. -1.
         25    2    1    2    0    0  0.23966169759E+02 -0.17604941958E+02 -0.45707988066E+02  0.13645537621E+03  0.12508612333E+03 0.  0.
         23    2    1    2    0    0 -0.23966169759E+02  0.17604941958E+02  0.25137589406E+03  0.26907786547E+03  0.91261965210E+02 0.  0.
          5    1    3    3  502    0 -0.22678860720E+02 -0.47772635163E+02  0.13930597789E+02  0.54846051350E+02  0.41800000000E+01 0.  1.
         -5    1    3    3    0  502  0.46645030479E+02  0.30167693204E+02 -0.59638585855E+02  0.81609324862E+02  0.41800000000E+01 0.  1.
        -11    1    4    4    0    0 -0.48299656265E+02  0.38895170061E+02  0.14035099851E+03  0.15344084799E+03  0.00000000000E+00 0. -1.
         11    1    4    4    0    0  0.24333486505E+02 -0.21290228103E+02  0.11102489556E+03  0.11563701748E+03  0.00000000000E+00 0.  1.
</event>
<event>
 8    1  0.6965441E-009  0.1051228E+03  0.7561462E-02  0.1269878E+00
         -2   -1    0    0    0  501 -0.00000000000E+00  0.00000000000E+00  0.25809632489E+02  0.25809632489E+02  0.00000000000E+00 0.  1.
          2   -1    0    0  501    0  0.00000000000E+00 -0.00000000000E+00 -0.53124525966E+03  0.53124525966E+03  0.00000000000E+00 0. -1.
         25    2    1    2    0    0  0.28815176934E+02  0.33291802719E+02 -0.28681960148E+03  0.31599380756E+03  0.12509174262E+03 0.  0.
         23    2    1    2    0    0 -0.28815176934E+02 -0.33291802719E+02 -0.21861602568E+03  0.24106108459E+03  0.91535901515E+02 0.  0.
          5    1    3    3  502    0 -0.27803707577E+02  0.59999834474E+02 -0.11050002173E+03  0.12884391136E+03  0.41800000000E+01 0. -1.
         -5    1    3    3    0  502  0.56618884511E+02 -0.26708031755E+02 -0.17631957975E+03  0.18714989620E+03  0.41800000000E+01 0. -1.
        -11    1    4    4    0    0 -0.32312014709E+02  0.12993133813E+02 -0.17120399941E+03  0.17471032378E+03  0.00000000000E+00 0. -1.
         11    1    4    4    0    0  0.34968377750E+01 -0.46284936533E+02 -0.47412026270E+02  0.66350760804E+02  0.00000000000E+00 0.  1.
</event>
<event>
 8    1  0.6965441E-009  0.8687466E+02  0.7561462E-02  0.1310602E+00
         -1   -1    0    0    0  501 -0.00000000000E+00  0.00000000000E+00  0.10883294033E+03  0.10883294033E+03  0.00000000000E+00 0.  1.
          1   -1    0    0  501    0  0.00000000000E+00 -0.00000000000E+00 -0.13280657575E+03  0.13280657575E+03  0.00000000000E+00 0. -1.
         25    2    1    2    0    0  0.41321501664E+02 -0.34093890248E+02 -0.48786609109E+02  0.14456045722E+03  0.12509089780E+03 0.  0.
         23    2    1    2    0    0 -0.41321501664E+02  0.34093890248E+02  0.24812973684E+02  0.97079058860E+02  0.77063611089E+02 0.  0.
          5    1    3    3  502    0 -0.24499333140E+02 -0.44771391943E+01 -0.65634660589E+02  0.70325266941E+02  0.41800000000E+01 0.  1.
         -5    1    3    3    0  502  0.65820834803E+02 -0.29616751054E+02  0.16848051481E+02  0.74235190280E+02  0.41800000000E+01 0.  1.
        -11    1    4    4    0    0  0.13349314100E+02  0.48967942696E+01  0.31676398664E+02  0.34721420095E+02  0.00000000000E+00 0.  1.
         11    1    4    4    0    0 -0.54670815764E+02  0.29197095978E+02 -0.68634249801E+01  0.62357638765E+02  0.00000000000E+00 0. -1.
</event>
<event>
 8    1  0.6965441E-009  0.1259305E+03  0.7561462E-02  0.1233622E+00
         -2   -1    0    0    0  501 -0.00000000000E+00  0.00000000000E+00  0.34120833185E+02  0.34120833185E+02  0.00000000000E+00 0.  1.
          2   -1    0    0  501    0  0.00000000000E+00 -0.00000000000E+00 -0.70745938290E+03  0.70745938290E+03  0.00000000000E+00 0. -1.
         25    2    1    2    0    0  0.63153039619E+02 -0.41543871157E+02 -0.16627378400E+03  0.22137731383E+03  0.12508694652E+03 0.  0.
         23    2    1    2    0    0 -0.63153039619E+02  0.41543871157E+02 -0.50706476571E+03  0.52020290225E+03  0.88216683465E+02 0.  0.
          5    1    3    3  502    0  0.76290827807E+01 -0.72155309618E+02 -0.12801608313E+03  0.14720795342E+03  0.41800000000E+01 0.  1.
         -5    1    3    3    0  502  0.55523956838E+02  0.30611438461E+02 -0.38257700868E+02  0.74169360408E+02  0.41800000000E+01 0.  1.
        -11    1    4    4    0    0 -0.66171131619E+02 -0.74196332997E+01 -0.31618429028E+03  0.32311944392E+03  0.00000000000E+00 0. -1.
         11    1    4    4    0    0  0.30180919997E+01  0.48963504456E+02 -0.19088047543E+03  0.19708345833E+03  0.00000000000E+00 0.  1.
</event>
<event>
 8    1  0.6965441E-009  0.1072980E+03  0.7561462E-02  0.1265657E+00
         -3   -1    0    0    0  501 -0.00000000000E+00  0.00000000000E+00  0.38139082559E+02  0.38139082559E+02  0.00000000000E+00 0.  1.
          3   -1    0    0  501    0  0.00000000000E+00 -0.00000000000E+00 -0.30734469598E+03  0.30734469598E+03  0.00000000000E+00 0. -1.
         25    2    1    2    0    0  0.14762156056E+02 -0.57365660918E+01 -0.14300175500E+03  0.19065228379E+03  0.12509181403E+03 0.  0.
         23    2    1    2    0    0 -0.14762156056E+02  0.57365660918E+01 -0.12620385843E+03  0.15483149476E+03  0.88286739916E+02 0.  0.
          5    1    3    3  502    0  0.25277127633E+02  0.56495182260E+02 -0.60058968505E+02  0.86343447336E+02  0.41800000000E+01 0. -1.
         -5    1    3    3    0  502 -0.10514971578E+02 -0.62231748352E+02 -0.82942786495E+02  0.10430883645E+03  0.41800000000E+01 0. -1.
        -11    1    4    4    0    0  0.19316985241E+02  0.37844059595E+02 -0.52908246129E+02  0.67857212394E+02  0.00000000000E+00 0.  1.
         11    1    4    4    0    0 -0.34079141296E+02 -0.32107493503E+02 -0.73295612297E+02  0.86974282363E+02  0.00000000000E+00 0. -1.
</event>
<event>
 8    1  0.6965441E-009  0.1097263E+03  0.7561462E-02  0.1261078E+00
          2   -1    0    0  501    0  0.00000000000E+00  0.00000000000E+00  0.94254212360E+02  0.94254212360E+02  0.00000000000E+00 0.  1.
         -2   -1    0    0    0  501 -0.00000000000E+00 -0.00000000000E+00 -0.13675834027E+03  0.13675834027E+03  0.00000000000E+00 0. -1.
         25    2    1    2    0    0 -0.10237553281E+02 -0.29008887668E+02 -0.40028555160E+02  0.13489567409E+03  0.12509290387E+03 0.  0.
         23    2    1    2    0    0  0.10237553281E+02  0.29008887668E+02 -0.24755727551E+01  0.96116878548E+02  0.91027483874E+02 0.  0.
          5    1    3    3  502    0 -0.65388126979E+02 -0.82057760329E+01 -0.37076442758E+02  0.75730290622E+02  0.41800000000E+01 0. -1.
         -5    1    3    3    0  502  0.55150573698E+02 -0.20803111635E+02 -0.29521124018E+01  0.59165383465E+02  0.41800000000E+01 0. -1.
        -11    1    4    4    0    0 -0.34794349519E+02 -0.83890987809E+01 -0.98397142230E+01  0.37119317245E+02  0.00000000000E+00 0. -1.
         11    1    4    4    0    0  0.45031902799E+02  0.37397986448E+02  0.73641414678E+01  0.58997561303E+02  0.00000000000E+00 0.  1.
</event>
<event>
 8    1  0.6965441E-009  0.8934098E+02  0.7561462E-02  0.1304456E+00
          1   -1    0    0  501    0  0.00000000000E+00  0.00000000000E+00  0.85934001242E+02  0.85934001242E+02  0.00000000000E+00 0. -1.
         -1   -1    0    0    0  501 -0.00000000000E+00 -0.00000000000E+00 -0.14707943535E+03  0.14707943535E+03  0.00000000000E+00 0.  1.
         25    2    1    2    0    0  0.34277996758E+02  0.34101011974E+02 -0.13495499760E+02  0.13478690712E+03  0.12509005452E+03 0.  0.
         23    2    1    2    0    0 -0.34277996758E+02 -0.34101011974E+02 -0.47649934351E+02  0.98226529470E+02  0.70993483988E+02 0.  0.
          5    1    3    3  502    0  0.39692147500E+01  0.59410223875E+02 -0.52231237171E+02  0.79315218609E+02  0.41800000000E+01 0. -1.
         -5    1    3    3    0  502  0.30308782008E+02 -0.25309211901E+02  0.38735737412E+02  0.55471688515E+02  0.41800000000E+01 0. -1.
        -11    1    4    4    0    0 -0.21194065100E+02 -0.52552956145E+02 -0.49886664414E+02  0.75496230908E+02  0.00000000000E+00 0.  1.
         11    1    4    4    0    0 -0.13083931659E+02  0.18451944171E+02  0.22367300632E+01  0.22730298562E+02  0.00000000000E+00 0. -1.
</event>
<event>
 8    1  0.6965441E-009  0.1055158E+03  0.7561462E-02  0.1269107E+00
         -1   -1    0    0    0  501 -0.00000000000E+00  0.00000000000E+00  0.13754603846E+03  0.13754603846E+03  0.00000000000E+00 0. -1.
          1   -1    0    0  501    0  0.00000000000E+00 -0.00000000000E+00 -0.13144171879E+03  0.13144171879E+03  0.00000000000E+00 0.  1.
         25    2    1    2    0    0 -0.71836852701E+02  0.20469835658E+02  0.18353558630E+02  0.14681062394E+03  0.12504782529E+03 0.  0.
         23    2    1    2    0    0  0.71836852701E+02 -0.20469835658E+02 -0.12249238954E+02  0.12217713330E+03  0.95904434045E+02 0.  0.
          5    1    3    3  502    0 -0.10201784348E+03  0.57502630724E+01  0.36288967346E+02  0.10851298293E+03  0.41800000000E+01 0.  1.
         -5    1    3    3    0  502  0.30180990776E+02  0.14719572586E+02 -0.17935408717E+02  0.38297641013E+02  0.41800000000E+01 0.  1.
        -11    1    4    4    0    0  0.58979194545E+02 -0.19114065171E+02  0.36362296920E+02  0.71875653137E+02  0.00000000000E+00 0. -1.
         11    1    4    4    0    0  0.12857658156E+02 -0.13557704878E+01 -0.48611535874E+02  0.50301480166E+02  0.00000000000E+00 0.  1.
</event>
<event>
 8    1  0.6965441E-009  0.1336551E+03  0.7561462E-02  0.1222131E+00
          2   -1    0    0  501    0  0.00000000000E+00  0.00000000000E+00  0.10934270337E+03  0.10934270337E+03  0.00000000000E+00 0. -1.
         -2   -1    0    0    0  501 -0.00000000000E+00 -0.00000000000E+00 -0.21039496544E+03  0.21039496544E+03  0.00000000000E+00 0.  1.
         25    2    1    2    0    0 -0.39921037750E+02 -0.92142226923E+02 -0.13959627360E+02  0.16101404675E+03  0.12508706095E+03 0.  0.
         23    2    1    2    0    0  0.39921037750E+02  0.92142226923E+02 -0.87092634710E+02  0.15872362207E+03  0.86742042542E+02 0.  0.
          5    1    3    3  502    0 -0.70175027799E+02 -0.51611950133E+02  0.31654447280E+02  0.92778253679E+02  0.41800000000E+01 0.  1.
         -5    1    3    3    0  502  0.30253990050E+02 -0.40530276790E+02 -0.45614074640E+02  0.68235793070E+02  0.41800000000E+01 0.  1.
        -11    1    4    4    0    0  0.27064188588E+02 -0.81281589761E+01 -0.54447779853E+01  0.28778166717E+02  0.00000000000E+00 0. -1.
         11    1    4    4    0    0  0.12856849161E+02  0.10027038590E+03 -0.81647856725E+02  0.12994545535E+03  0.00000000000E+00 0.  1.
</event>
<event>
 8    1  0.6965441E-009  0.1705356E+03  0.7561462E-02  0.1177290E+00
          1   -1    0    0  501    0  0.00000000000E+00  0.00000000000E+00  0.62916545160E+03  0.62916545160E+03  0.00000000000E+00 0. -1.
         -1   -1    0    0    0  501 -0.00000000000E+00 -0.00000000000E+00 -0.70451125531E+02  0.70451125531E+02  0.00000000000E+00 0.  1.
         25    2    1    2    0    0 -0.10708113754E+03 -0.11040646557E+03  0.13582580697E+03  0.24031770367E+03  0.12509193099E+03 0.  0.
         23    2    1    2    0    0  0.10708113754E+03  0.11040646557E+03  0.42288851910E+03  0.45929887347E+03  0.92004336442E+02 0.  0.
          5    1    3    3  502    0 -0.88512782295E+02 -0.11322146262E+03  0.15619922608E+03  0.21229527281E+03  0.41800000000E+01 0. -1.
         -5    1    3    3    0  502 -0.18568355247E+02  0.28149970506E+01 -0.20373419109E+02  0.28022430857E+02  0.41800000000E+01 0. -1.
        -11    1    4    4    0    0  0.12136828134E+03  0.10994450161E+03  0.40106722918E+03  0.43321239072E+03  0.00000000000E+00 0. -1.
         11    1    4    4    0    0 -0.14287143795E+02  0.46196396547E+00  0.21821289918E+02  0.26086482749E+02  0.00000000000E+00 0.  1.
</event>
<event>
 8    1  0.6965441E-009  0.1173029E+03  0.7561462E-02  0.1247614E+00
         -2   -1    0    0    0  501 -0.00000000000E+00  0.00000000000E+00  0.20571884677E+02  0.20571884677E+02  0.00000000000E+00 0.  1.
          2   -1    0    0  501    0  0.00000000000E+00 -0.00000000000E+00 -0.96478134511E+03  0.96478134511E+03  0.00000000000E+00 0. -1.
         25    2    1    2    0    0  0.85553498672E+02  0.15484648476E+01 -0.60708981904E+03  0.62572213495E+03  0.12509333676E+03 0.  0.
         23    2    1    2    0    0 -0.85553498672E+02 -0.15484648476E+01 -0.33711964140E+03  0.35963109484E+03  0.91449838073E+02 0.  0.
          5    1    3    3  502    0  0.21809878678E+02 -0.44624425845E+02 -0.41657023334E+03  0.41954170460E+03  0.41800000000E+01 0. -1.
         -5    1    3    3    0  502  0.63743619995E+02  0.46172890692E+02 -0.19051958570E+03  0.20618043035E+03  0.41800000000E+01 0. -1.
        -11    1    4    4    0    0  0.86087475739E+01 -0.77381474354E+01 -0.23445334514E+01  0.11810431729E+02  0.00000000000E+00 0.  1.
         11    1    4    4    0    0 -0.94162246246E+02  0.61896825879E+01 -0.33477510795E+03  0.34782066311E+03  0.00000000000E+00 0. -1.
</event>
<event>
 8    1  0.6965441E-009  0.1731428E+03  0.7561462E-02  0.1174609E+00
         -2   -1    0    0    0  501 -0.00000000000E+00  0.00000000000E+00  0.34568849339E+02  0.34568849339E+02  0.00000000000E+00 0. -1.
          2   -1    0    0  501    0  0.00000000000E+00 -0.00000000000E+00 -0.98191897908E+03  0.98191897908E+03  0.00000000000E+00 0.  1.
         25    2    1    2    0    0 -0.33497849781E+02 -0.13510386930E+03 -0.37595384313E+03  0.41995828118E+03  0.12509398197E+03 0.  0.
         23    2    1    2    0    0  0.33497849781E+02  0.13510386930E+03 -0.57139628661E+03  0.59652954724E+03  0.99893057523E+02 0.  0.
          5    1    3    3  502    0 -0.62354957594E+02 -0.35447106830E+02 -0.86519892749E+02  0.11246244867E+03  0.41800000000E+01 0. -1.
         -5    1    3    3    0  502  0.28857107813E+02 -0.99656762466E+02 -0.28943395038E+03  0.30749583251E+03  0.41800000000E+01 0. -1.
        -11    1    4    4    0    0 -0.86533340582E+00  0.13621888314E+03 -0.43273474436E+03  0.45366914365E+03  0.00000000000E+00 0.  1.
         11    1    4    4    0    0  0.34363183187E+02 -0.11150138414E+01 -0.13866154226E+03  0.14286040359E+03  0.00000000000E+00 0. -1.
</event>
<event>
 8    1  0.6965441E-009  0.1312759E+03  0.7561462E-02  0.1225575E+00
          2   -1    0    0  501    0  0.00000000000E+00  0.00000000000E+00  0.11462837494E+03  0.11462837494E+03  0.00000000000E+00 0. -1.
         -2   -1    0    0    0  501 -0.00000000000E+00 -0.00000000000E+00 -0.19497463414E+03  0.19497463414E+03  0.00000000000E+00 0.  1.
         25    2    1    2    0    0 -0.95075443353E+02  0.20418766566E+02 -0.76787466004E+02  0.17606931320E+03  0.12509125532E+03 0.  0.
         23    2    1    2    0    0  0.95075443353E+02 -0.20418766566E+02 -0.35587931973E+01  0.13353369587E+03  0.91445705027E+02 0.  0.
          5    1    3    3  502    0  0.30118509521E+01  0.45318496802E+02  0.50027595989E+01  0.45883955825E+02  0.41800000000E+01 0.  1.
         -5    1    3    3    0  502 -0.98087294305E+02 -0.24899730236E+02 -0.81790225603E+02  0.13018535737E+03  0.41800000000E+01 0.  1.
        -11    1    4    4    0    0  0.68486766529E+02  0.16225392728E+02 -0.34810757103E+02  0.78520630212E+02  0.00000000000E+00 0.  1.
         11    1    4    4    0    0  0.26588676824E+02 -0.36644159294E+02  0.31251963905E+02  0.55013065663E+02  0.00000000000E+00 0. -1.
</event>
<event>
 8    1  0.6965441E-009  0.1173918E+03  0.7561462E-02  0.1247463E+00
          1   -1    0    0  501    0  0.00000000000E+00  0.00000000000E+00  0.15130276417E+03  0.15130276417E+03  0.00000000000E+00 0. -1.
         -1   -1    0    0    0  501 -0.00000000000E+00 -0.00000000000E+00 -0.12395947288E+03  0.12395947288E+03  0.00000000000E+00 0.  1.
         25    2    1    2    0    0  0.68486786187E+02  0.37188528919E+02  0.45866724344E+02  0.15435291323E+03  0.12509052265E+03 0.  0.
         23    2    1    2    0    0 -0.68486786187E+02 -0.37188528919E+02 -0.18523433054E+02  0.12090932382E+03  0.90567767164E+02 0.  0.
          5    1    3    3  502    0  0.42831548042E+02  0.83001917021E+02  0.38723146592E+02  0.10119690815E+03  0.41800000000E+01 0. -1.
         -5    1    3    3    0  502  0.25655238145E+02 -0.45813388101E+02  0.71435777514E+01  0.53156005086E+02  0.41800000000E+01 0. -1.
        -11    1    4    4    0    0 -0.72104765858E+02 -0.25664257658E+02  0.21177300570E+02  0.79411771419E+02  0.00000000000E+00 0. -1.
         11    1    4    4    0    0  0.36179796703E+01 -0.11524271261E+02 -0.39700733623E+02  0.41497552401E+02  0.00000000000E+00 0.  1.
</event>
<event>
 8    1  0.6965441E-009  0.1457103E+03  0.7561462E-02  0.1205845E+00
          1   -1    0    0  501    0  0.00000000000E+00  0.00000000000E+00  0.24037231865E+03  0.24037231865E+03  0.00000000000E+00 0. -1.
         -1   -1    0    0    0  501 -0.00000000000E+00 -0.00000000000E+00 -0.28748517179E+03  0.28748517179E+03  0.00000000000E+00 0.  1.
         25    2    1    2    0    0  0.12465641693E+03 -0.19975478264E+01  0.18092732608E+03  0.25283172309E+03  0.12508385348E+03 0.  0.
         23    2    1    2    0    0 -0.12465641693E+03  0.19975478264E+01 -0.22804017922E+03  0.27502576734E+03  0.89964642406E+02 0.  0.
          5    1    3    3  502    0 -0.15870214950E+02 -0.13050517728E+02 -0.28732177189E+01  0.21163825637E+02  0.41800000000E+01 0. -1.
         -5    1    3    3    0  502  0.14052663188E+03  0.11052969902E+02  0.18380054380E+03  0.23166789746E+03  0.41800000000E+01 0. -1.
        -11    1    4    4    0    0 -0.45769172961E+02  0.17560669289E+02 -0.16707662772E+03  0.17412005580E+03  0.00000000000E+00 0.  1.
         11    1    4    4    0    0 -0.78887243974E+02 -0.15563121463E+02 -0.60963551499E+02  0.10090571155E+03  0.00000000000E+00 0. -1.
</event>
<event>
 8    1  0.6965441E-009  0.9936080E+02  0.7561462E-02  0.1281646E+00
         -2   -1    0    0    0  501 -0.00000000000E+00  0.00000000000E+00  0.38572189181E+03  0.38572189181E+03  0.00000000000E+00 0.  1.
          2   -1    0    0  501    0  0.00000000000E+00 -0.00000000000E+00 -0.43933271827E+02  0.43933271827E+02  0.00000000000E+00 0. -1.
         25    2    1    2    0    0  0.58130685864E+02  0.40844158626E+02  0.21061383357E+03  0.25505375932E+03  0.12508721486E+03 0.  0.
         23    2    1    2    0    0 -0.58130685864E+02 -0.40844158626E+02  0.13117478642E+03  0.17460140432E+03  0.90727084521E+02 0.  0.
          5    1    3    3  502    0 -0.15326002860E+02 -0.20779962013E+02  0.29970755908E+01  0.26327704933E+02  0.41800000000E+01 0.  1.
         -5    1    3    3    0  502  0.73456688724E+02  0.61624120640E+02  0.20761675798E+03  0.22872605439E+03  0.41800000000E+01 0.  1.
        -11    1    4    4    0    0 -0.26895089493E+02 -0.36070129922E+02  0.13543874209E+03  0.14271668778E+03  0.00000000000E+00 0.  1.
         11    1    4    4    0    0 -0.31235596371E+02 -0.47740287041E+01 -0.42639556752E+01  0.31884716539E+02  0.00000000000E+00 0. -1.
</event>
<event>
 8    1  0.6965441E-009  0.1108094E+03  0.7561462E-02  0.1259078E+00
          1   -1    0    0  501    0  0.00000000000E+00  0.00000000000E+00  0.29442166936E+02  0.29442166936E+02  0.00000000000E+00 0.  1.
         -1   -1    0    0    0  501 -0.00000000000E+00 -0.00000000000E+00 -0.42027872749E+03  0.42027872749E+03  0.00000000000E+00 0. -1.
         25    2    1    2    0    0 -0.39421300579E+02  0.34712812144E+00 -0.24537433611E+03  0.27822677513E+03  0.12508962445E+03 0.  0.
         23    2    1    2    0    0  0.39421300579E+02 -0.34712812144E+00 -0.14546222444E+03  0.17149411929E+03  0.81834068534E+02 0.  0.
          5    1    3    3  502    0 -0.29723415940E+02  0.61850122827E+02 -0.12768791121E+03  0.14501928913E+03  0.41800000000E+01 0. -1.
         -5    1    3    3    0  502 -0.96978846391E+01 -0.61502994706E+02 -0.11768642489E+03  0.13320748601E+03  0.41800000000E+01 0. -1.
        -11    1    4    4    0    0 -0.25165571346E+02 -0.52033115750E+01 -0.48532822101E+02  0.54916438829E+02  0.00000000000E+00 0.  1.
         11    1    4    4    0    0  0.64586871925E+02  0.48561834536E+01 -0.96929402344E+02  0.11657768046E+03  0.00000000000E+00 0. -1.
</event>
<event>
 8    1  0.6965441E-009  0.2066521E+03  0.7561462E-02  0.1144245E+00
          2   -1    0    0  501    0  0.00000000000E+00  0.00000000000E+00  0.16492132322E+04  0.16492132322E+04  0.00000000000E+00 0.  1.
         -2   -1    0    0    0  501 -0.00000000000E+00 -0.00000000000E+00 -0.28167639465E+02  0.28167639465E+02  0.00000000000E+00 0. -1.
         25    2    1    2    0    0 -0.17495626888E+03  0.27294126221E+02  0.10568201462E+04  0.10788284585E+04  0.12508939258E+03 0.  0.
         23    2    1    2    0    0  0.17495626888E+03 -0.27294126221E+02  0.56422544650E+03  0.59855241312E+03  0.92520113610E+02 0.  0.
          5    1    3    3  502    0 -0.67688673007E+01 -0.36084889942E+02  0.19045143495E+03  0.19400298534E+03  0.41800000000E+01 0. -1.
         -5    1    3    3    0  502 -0.16818740158E+03  0.63379016163E+02  0.86636871126E+03  0.88482547318E+03  0.41800000000E+01 0. -1.
        -11    1    4    4    0    0  0.16124879242E+03 -0.51056453741E+02  0.51668738867E+03  0.54366698643E+03  0.00000000000E+00 0.  1.
         11    1    4    4    0    0  0.13707476460E+02  0.23762327519E+02  0.47538057830E+02  0.54885426684E+02  0.00000000000E+00 0. -1.
</event>
<event>
 8    1  0.6965441E-009  0.1549274E+03  0.7561462E-02  0.1194546E+00
          3   -1    0    0  501    0  0.00000000000E+00  0.00000000000E+00  0.49816521169E+02  0.49816521169E+02  0.00000000000E+00 0. -1.
         -3   -1    0    0    0  501 -0.00000000000E+00 -0.00000000000E+00 -0.53025771203E+03  0.53025771203E+03  0.00000000000E+00 0.  1.
         25    2    1    2    0    0 -0.97740178691E+02 -0.68426490327E+02 -0.23442224898E+03  0.29126765399E+03  0.12509088030E+03 0.  0.
         23    2    1    2    0    0  0.97740178691E+02  0.68426490327E+02 -0.24601894188E+03  0.28880657921E+03  0.92997813535E+02 0.  0.
          5    1    3    3  502    0 -0.40009374975E+02  0.31634922606E+02 -0.39503441471E+02  0.64649150823E+02  0.41800000000E+01 0. -1.
         -5    1    3    3    0  502 -0.57730803716E+02 -0.10006141293E+03 -0.19491880751E+03  0.22661850317E+03  0.41800000000E+01 0. -1.
        -11    1    4    4    0    0  0.10591419625E+03  0.39528453615E+02 -0.14767347503E+03  0.18597787729E+03  0.00000000000E+00 0. -1.
         11    1    4    4    0    0 -0.81740175636E+01  0.28898036712E+02 -0.98345466846E+02  0.10282870192E+03  0.00000000000E+00 0.  1.
</event>
<event>
 8    1  0.6965441E-009  0.9924732E+02  0.7561462E-02  0.1281887E+00
         -2   -1    0    0    0  501 -0.00000000000E+00  0.00000000000E+00  0.33110712677E+02  0.33110712677E+02  0.00000000000E+00 0.  1.
          2   -1    0    0  501    0  0.00000000000E+00 -0.00000000000E+00 -0.39820222777E+03  0.39820222777E+03  0.00000000000E+00 0. -1.
         25    2    1    2    0    0 -0.20171013754E+02  0.20553876284E+02 -0.21138695006E+03  0.24730855523E+03  0.12509095573E+03 0.  0.
         23    2    1    2    0    0  0.20171013754E+02 -0.20553876284E+02 -0.15370456503E+03  0.18400438522E+03  0.96970040958E+02 0.  0.
          5    1    3    3  502    0 -0.19826772840E+02  0.57801496105E+02 -0.19839999967E+03  0.20763946191E+03  0.41800000000E+01 0.  1.
         -5    1    3    3    0  502 -0.34424091397E+00 -0.37247619821E+02 -0.12986950394E+02  0.39669093318E+02  0.41800000000E+01 0.  1.
        -11    1    4    4    0    0  0.42215208954E+02 -0.48414441225E+02 -0.11295986020E+03  0.12994618887E+03  0.00000000000E+00 0.  1.
         11    1    4    4    0    0 -0.22044195200E+02  0.27860564940E+02 -0.40744704836E+02  0.54058196354E+02  0.00000000000E+00 0. -1.
</event>
<event>
 8    1  0.6965441E-009  0.2730461E+03  0.7561462E-02  0.1099549E+00
         -2   -1    0    0    0  501 -0.00000000000E+00  0.00000000000E+00  0.13642510962E+03  0.13642510962E+03  0.00000000000E+00 0.  1.
          2   -1    0    0  501    0  0.00000000000E+00 -0.00000000000E+00 -0.67788443531E+03  0.67788443531E+03  0.00000000000E+00 0. -1.
         25    2    1    2    0    0  0.25813132916E+03  0.19633356679E+02 -0.12006623763E+03  0.31157749652E+03  0.12508950048E+03 0.  0.
         23    2    1    2    0    0 -0.25813132916E+03 -0.19633356679E+02 -0.42139308807E+03  0.50273204841E+03  0.90278048459E+02 0.  0.
          5    1    3    3  502    0  0.15752708186E+03  0.59364003142E+02 -0.30614343207E+02  0.17115366429E+03  0.41800000000E+01 0.  1.
         -5    1    3    3    0  502  0.10060424730E+03 -0.39730646462E+02 -0.89451894422E+02  0.14042383224E+03  0.41800000000E+01 0.  1.
        -11    1    4    4    0    0 -0.92529764337E+02 -0.43315470425E+02 -0.11642881875E+03  0.15489886088E+03  0.00000000000E+00 0.  1.
         11    1    4    4    0    0 -0.16560156483E+03  0.23682113746E+02 -0.30496426932E+03  0.34783318753E+03  0.00000000000E+00 0. -1.
</event>
<event>
 8    1  0.6965441E-009  0.1010885E+03  0.7561462E-02  0.1278023E+00
         -2   -1    0    0    0  501 -0.00000000000E+00  0.00000000000E+00  0.41685629056E+02  0.41685629056E+02  0.00000000000E+00 0.  1.
          2   -1    0    0  501    0  0.00000000000E+00 -0.00000000000E+00 -0.36930097220E+03  0.36930097220E+03  0.00000000000E+00 0. -1.
         25    2    1    2    0    0 -0.41428670313E+02 -0.38544599221E+02 -0.21304738037E+03  0.25345340155E+03  0.12508964634E+03 0.  0.
         23    2    1    2    0    0  0.41428670313E+02  0.38544599221E+02 -0.11456796277E+03  0.15753319970E+03  0.92135064238E+02 0.  0.
          5    1    3    3  502    0 -0.43252081106E+02  0.11866780777E+02 -0.19433643854E+03  0.19948856296E+03  0.41800000000E+01 0. -1.
         -5    1    3    3    0  502  0.18234107933E+01 -0.50411379999E+02 -0.18710941830E+02  0.53964838594E+02  0.41800000000E+01 0. -1.
        -11    1    4    4    0    0 -0.28163697347E+02  0.19848070174E+02 -0.24962993270E+02  0.42547511923E+02  0.00000000000E+00 0.  1.
         11    1    4    4    0    0  0.69592367659E+02  0.18696529047E+02 -0.89604969500E+02  0.11498568778E+03  0.00000000000E+00 0. -1.
</event>
<event>
 8    1  0.6965441E-009  0.1015932E+03  0.7561462E-02  0.1276981E+00
         -4   -1    0    0    0  501 -0.00000000000E+00  0.00000000000E+00  0.35889514903E+02  0.35889514903E+02  0.00000000000E+00 0. -1.
          4   -1    0    0  501    0  0.00000000000E+00 -0.00000000000E+00 -0.59732797583E+03  0.59732797583E+03  0.00000000000E+00 0.  1.
         25    2    1    2    0    0 -0.79713216105E+02  0.24792451998E+02 -0.41540218239E+03  0.44178698431E+03  0.12509158197E+03 0.  0.
         23    2    1    2    0    0  0.79713216105E+02 -0.24792451998E+02 -0.14603627855E+03  0.19143050642E+03  0.91379328296E+02 0.  0.
          5    1    3    3  502    0 -0.31229511276E+02  0.63219098266E+01 -0.37373135270E+03  0.37511044414E+03  0.41800000000E+01 0.  1.
         -5    1    3    3    0  502 -0.48483704828E+02  0.18470542172E+02 -0.41670829690E+02  0.66676540170E+02  0.41800000000E+01 0.  1.
        -11    1    4    4    0    0  0.88212480523E+02 -0.43571509882E+02 -0.13760527115E+03  0.16916006870E+03  0.00000000000E+00 0.  1.
         11    1    4    4    0    0 -0.84992644185E+01  0.18779057884E+02 -0.84310073907E+01  0.22270437721E+02  0.00000000000E+00 0. -1.
</event>
<event>
 8    1  0.6965441E-009  0.1072931E+03  0.7561462E-02  0.1265666E+00
          2   -1    0    0  501    0  0.00000000000E+00  0.00000000000E+00  0.35328583539E+03  0.35328583539E+03  0.00000000000E+00 0.  1.
         -2   -1    0    0    0  501 -0.00000000000E+00 -0.00000000000E+00 -0.52013457222E+02  0.52013457222E+02  0.00000000000E+00 0. -1.
         25    2    1    2    0    0  0.30286157308E+02  0.48413747196E+02  0.24678011329E+03  0.28250476651E+03  0.12508947415E+03 0.  0.
         23    2    1    2    0    0 -0.30286157308E+02 -0.48413747196E+02  0.54492264878E+02  0.12279452610E+03  0.94063523571E+02 0.  0.
          5    1    3    3  502    0  0.54110171404E+02  0.22610206233E+01  0.21436091728E+03  0.22113592680E+03  0.41800000000E+01 0. -1.
         -5    1    3    3    0  502 -0.23824014096E+02  0.46152726573E+02  0.32419196009E+02  0.61368839712E+02  0.41800000000E+01 0. -1.
        -11    1    4    4    0    0 -0.20962675872E+02 -0.76106492033E+02  0.49429142785E+02  0.93138993261E+02  0.00000000000E+00 0.  1.
         11    1    4    4    0    0 -0.93234814366E+01  0.27692744836E+02  0.50631220934E+01  0.29655532840E+02  0.00000000000E+00 0. -1.
</event>
<event>
 8    1  0.6965441E-009  0.1265055E+03  0.7561462E-02  0.1232735E+00
          2   -1    0    0  501    0  0.00000000000E+00  0.00000000000E+00  0.30010234464E+03  0.30010234464E+03  0.00000000000E+00 0. -1.
         -2   -1    0    0    0  501 -0.00000000000E+00 -0.00000000000E+00 -0.66555803813E+02  0.66555803813E+02  0.00000000000E+00 0.  1.
         25    2    1    2    0    0  0.79738162566E+02 -0.27443671074E+02  0.17003498038E+03  0.22730772535E+03  0.12508228412E+03 0.  0.
         23    2    1    2    0    0 -0.79738162566E+02  0.27443671074E+02  0.63511560448E+02  0.13935042310E+03  0.90958740405E+02 0.  0.
          5    1    3    3  502    0 -0.64540615340E+01 -0.54488718811E+02  0.36501800593E+02  0.66034303468E+02  0.41800000000E+01 0.  1.
         -5    1    3    3    0  502  0.86192224100E+02  0.27045047737E+02  0.13353317978E+03  0.16127342188E+03  0.41800000000E+01 0.  1.
        -11    1    4    4    0    0  0.19617662188E+01 -0.15244431417E+02 -0.12548405328E+02  0.19841967952E+02  0.00000000000E+00 0.  1.
         11    1    4    4    0    0 -0.81699928785E+02  0.42688102491E+02  0.76059965776E+02  0.11950845515E+03  0.00000000000E+00 0. -1.
</event>
<event>
 8    1  0.6965441E-009  0.1184855E+03  0.7561462E-02  0.1245617E+00
         -2   -1    0    0    0  501 -0.00000000000E+00  0.00000000000E+00  0.22205473407E+02  0.22205473407E+02  0.00000000000E+00 0.  1.
          2   -1    0    0  501    0  0.00000000000E+00 -0.00000000000E+00 -0.78323526094E+03  0.78323526094E+03  0.00000000000E+00 0. -1.
         25    2    1    2    0    0 -0.51268435897E+02 -0.25683111595E+02 -0.26803803568E+03  0.30129533611E+03  0.12508563567E+03 0.  0.
         23    2    1    2    0    0  0.51268435897E+02  0.25683111595E+02 -0.49299175186E+03  0.50414539824E+03  0.88507855167E+02 0.  0.
          5    1    3    3  502    0 -0.75695112456E+02 -0.55791717266E+02 -0.22089917814E+03  0.24011744016E+03  0.41800000000E+01 0.  1.
         -5    1    3    3    0  502  0.24426676559E+02  0.30108605671E+02 -0.47138857541E+02  0.61177895954E+02  0.41800000000E+01 0.  1.
        -11    1    4    4    0    0  0.58216292092E+02 -0.16964916264E+02 -0.32990192911E+03  0.33542842437E+03  0.00000000000E+00 0.  1.
         11    1    4    4    0    0 -0.69478561946E+01  0.42648027859E+02 -0.16308982275E+03  0.16871697387E+03  0.00000000000E+00 0. -1.
</event>
<event>
 8    1  0.6965441E-009  0.1840442E+03  0.7561462E-02  0.1163945E+00
          2   -1    0    0  501    0  0.00000000000E+00  0.00000000000E+00  0.84007935519E+03  0.84007935519E+03  0.00000000000E+00 0. -1.
         -2   -1    0    0    0  501 -0.00000000000E+00 -0.00000000000E+00 -0.47092981150E+02  0.47092981150E+02  0.00000000000E+00 0.  1.
         25    2    1    2    0    0 -0.16470658283E+03  0.23457725543E+02  0.41239800224E+03  0.46195997719E+03  0.12512547684E+03 0.  0.
         23    2    1    2    0    0  0.16470658283E+03 -0.23457725543E+02  0.38058837180E+03  0.42521235915E+03  0.90991858515E+02 0.  0.
          5    1    3    3  502    0 -0.83918480288E+02  0.57271553178E+02  0.12309658304E+03  0.15966396993E+03  0.41800000000E+01 0.  1.
         -5    1    3    3    0  502 -0.80788102537E+02 -0.33813827635E+02  0.28930141921E+03  0.30229600726E+03  0.41800000000E+01 0.  1.
        -11    1    4    4    0    0  0.12399981769E+03  0.12213819120E+02  0.19099335852E+03  0.22804296780E+03  0.00000000000E+00 0.  1.
         11    1    4    4    0    0  0.40706765132E+02 -0.35671544663E+02  0.18959501328E+03  0.19716939135E+03  0.00000000000E+00 0. -1.
</event>
<event>
 8    1  0.6965441E-009  0.1100952E+03  0.7561462E-02  0.1260394E+00
         -2   -1    0    0    0  501 -0.00000000000E+00  0.00000000000E+00  0.15177655213E+03  0.15177655213E+03  0.00000000000E+00 0.  1.
          2   -1    0    0  501    0  0.00000000000E+00 -0.00000000000E+00 -0.11446718750E+03  0.11446718750E+03  0.00000000000E+00 0. -1.
         25    2    1    2    0    0  0.46330757611E+02  0.15822201911E+02 -0.38524342455E+02  0.13975145276E+03  0.12509781139E+03 0.  0.
         23    2    1    2    0    0 -0.46330757611E+02 -0.15822201911E+02  0.75833707082E+02  0.12649228687E+03  0.88615271452E+02 0.  0.
          5    1    3    3  502    0  0.34660942938E+02 -0.51270877248E+02 -0.13291949101E+01  0.62042912393E+02  0.41800000000E+01 0. -1.
         -5    1    3    3    0  502  0.11669814672E+02  0.67093079159E+02 -0.37195147545E+02  0.77708540370E+02  0.41800000000E+01 0. -1.
        -11    1    4    4    0    0 -0.65485656365E+02 -0.63611134927E+00  0.78122871319E+02  0.10194095767E+03  0.00000000000E+00 0.  1.
         11    1    4    4    0    0  0.19154898754E+02 -0.15186090562E+02 -0.22891642371E+01  0.24551329205E+02  0.00000000000E+00 0. -1.
</event>
<event>
 8    1  0.6965441E-009  0.1150753E+03  0.7561462E-02  0.1251450E+00
          3   -1    0    0  501    0  0.00000000000E+00  0.00000000000E+00  0.25595498225E+03  0.25595498225E+03  0.00000000000E+00 0. -1.
         -3   -1    0    0    0  501 -0.00000000000E+00 -0.00000000000E+00 -0.72170627973E+02  0.72170627973E+02  0.00000000000E+00 0.  1.
         25    2    1    2    0    0 -0.74415249517E+02  0.34201506093E+02  0.10647504987E+03  0.18355339014E+03  0.12509012115E+03 0.  0.
         23    2    1    2    0    0  0.74415249517E+02 -0.34201506093E+02  0.77309304408E+02  0.14457222008E+03  0.90647812394E+02 0.  0.
          5    1    3    3  502    0  0.84019423548E+01  0.40361822688E+02 -0.78621218328E+01  0.42177656712E+02  0.41800000000E+01 0.  1.
         -5    1    3    3    0  502 -0.82817191871E+02 -0.61603165947E+01  0.11433717170E+03  0.14137573343E+03  0.41800000000E+01 0.  1.
        -11    1    4    4    0    0  0.60521545296E+02  0.80771321819E+01  0.79230394475E+02  0.10002776074E+03  0.00000000000E+00 0. -1.
         11    1    4    4    0    0  0.13893704221E+02 -0.42278638275E+02 -0.19210900669E+01  0.44544459346E+02  0.00000000000E+00 0.  1.
</event>
<event>
 8    1  0.6965441E-009  0.1009529E+03  0.7561462E-02  0.1278305E+00
         -2   -1    0    0    0  501 -0.00000000000E+00  0.00000000000E+00  0.10869304685E+03  0.10869304685E+03  0.00000000000E+00 0. -1.
          2   -1    0    0  501    0  0.00000000000E+00 -0.00000000000E+00 -0.15125329784E+03  0.15125329784E+03  0.00000000000E+00 0.  1.
         25    2    1    2    0    0  0.31147316482E+02 -0.61945198438E+02 -0.17671074252E+02  0.14410856769E+03  0.12509056512E+03 0.  0.
         23    2    1    2    0    0 -0.31147316482E+02  0.61945198438E+02 -0.24889176739E+02  0.11583777700E+03  0.89395506196E+02 0.  0.
          5    1    3    3  502    0  0.50508843452E+02 -0.31624501837E+02  0.42892230921E+02  0.73542288900E+02  0.41800000000E+01 0. -1.
         -5    1    3    3    0  502 -0.19361526970E+02 -0.30320696601E+02 -0.60563305173E+02  0.70566278791E+02  0.41800000000E+01 0. -1.
        -11    1    4    4    0    0  0.27170557950E+02  0.24943445326E+02  0.10340146980E+02  0.38305787078E+02  0.00000000000E+00 0.  1.
         11    1    4    4    0    0 -0.58317874432E+02  0.37001753112E+02 -0.35229323718E+02  0.77531989922E+02  0.00000000000E+00 0. -1.
</event>
<event>
 8    1  0.6965441E-009  0.8977421E+02  0.7561462E-02  0.1303399E+00
          2   -1    0    0  501    0  0.00000000000E+00  0.00000000000E+00  0.68897243258E+03  0.68897243258E+03  0.00000000000E+00 0. -1.
         -2   -1    0    0    0  501 -0.00000000000E+00 -0.00000000000E+00 -0.20168789639E+02  0.20168789639E+02  0.00000000000E+00 0.  1.
         25    2    1    2    0    0 -0.34967268137E+02 -0.14073587194E+02  0.47770739499E+03  0.49525134590E+03  0.12509502263E+03 0.  0.
         23    2    1    2    0    0  0.34967268137E+02  0.14073587194E+02  0.19109624794E+03  0.21388987632E+03  0.88376057362E+02 0.  0.
          5    1    3    3  502    0 -0.63470589562E+02 -0.20660398275E+02  0.12911075646E+03  0.14540435904E+03  0.41800000000E+01 0. -1.
         -5    1    3    3    0  502  0.28503321425E+02  0.65868110808E+01  0.34859663854E+03  0.34984698685E+03  0.41800000000E+01 0. -1.
        -11    1    4    4    0    0  0.23924213243E+02 -0.29605652697E+02  0.36033173861E+02  0.52414237278E+02  0.00000000000E+00 0.  1.
         11    1    4    4    0    0  0.11043054894E+02  0.43679239891E+02  0.15506307408E+03  0.16147563904E+03  0.00000000000E+00 0. -1.
</event>
<event>
 8    1  0.6965441E-009  0.9640823E+02  0.7561462E-02  0.1288036E+00
         -1   -1    0    0    0  501 -0.00000000000E+00  0.00000000000E+00  0.53947883385E+03  0.53947883385E+03  0.00000000000E+00 0.  1.
          1   -1    0    0  501    0  0.00000000000E+00 -0.00000000000E+00 -0.22807990242E+02  0.22807990242E+02  0.00000000000E+00 0. -1.
         25    2    1    2    0    0 -0.77862421066E+01 -0.81401038897E+00  0.34313356306E+03  0.36530756057E+03  0.12509070123E+03 0.  0.
         23    2    1    2    0    0  0.77862421066E+01  0.81401038897E+00  0.17353728055E+03  0.19697926352E+03  0.92867401911E+02 0.  0.
          5    1    3    3  502    0 -0.64102397388E+02 -0.62139967794E-02  0.23084046747E+03  0.23961200139E+03  0.41800000000E+01 0. -1.
         -5    1    3    3    0  502  0.56316155282E+02 -0.80779639219E+00  0.11229309559E+03  0.12569555918E+03  0.41800000000E+01 0. -1.
        -11    1    4    4    0    0 -0.32152822027E+02  0.76747855471E+00  0.18979448743E+02  0.37344510469E+02  0.00000000000E+00 0. -1.
         11    1    4    4    0    0  0.39939064133E+02  0.46531834255E-01  0.15455783181E+03  0.15963475306E+03  0.00000000000E+00 0.  1.
</event>
<event>
 8    1  0.6965441E-009  0.1185573E+03  0.7561462E-02  0.1245496E+00
         -2   -1    0    0    0  501 -0.00000000000E+00  0.00000000000E+00  0.35945045822E+02  0.35945045822E+02  0.00000000000E+00 0.  1.
          2   -1    0    0  501    0  0.00000000000E+00 -0.00000000000E+00 -0.61180872568E+03  0.61180872568E+03  0.00000000000E+00 0. -1.
         25    2    1    2    0    0 -0.90824389705E+02 -0.12434753810E+02 -0.40642842857E+03  0.43501216038E+03  0.12509124377E+03 0.  0.
         23    2    1    2    0    0  0.90824389705E+02  0.12434753810E+02 -0.16943525129E+03  0.21274161112E+03  0.90260710464E+02 0.  0.
          5    1    3    3  502    0  0.21498644255E+02  0.64479244470E+00 -0.18550177891E+03  0.18679130023E+03  0.41800000000E+01 0. -1.
         -5    1    3    3    0  502 -0.11232303396E+03 -0.13079546255E+02 -0.22092664965E+03  0.24822086015E+03  0.41800000000E+01 0. -1.
        -11    1    4    4    0    0  0.39196731757E+02 -0.16877740069E+02 -0.14022670646E+03  0.14657684365E+03  0.00000000000E+00 0. -1.
         11    1    4    4    0    0  0.51627657948E+02  0.29312493879E+02 -0.29208544829E+02  0.66164767464E+02  0.00000000000E+00 0.  1.
</event>
<event>
 8    1  0.6965441E-009  0.9444837E+02  0.7561462E-02  0.1292423E+00
         -3   -1    0    0    0  501 -0.00000000000E+00  0.00000000000E+00  0.19234268933E+03  0.19234268933E+03  0.00000000000E+00 0.  1.
          3   -1    0    0  501    0  0.00000000000E+00 -0.00000000000E+00 -0.81558936218E+02  0.81558936218E+02  0.00000000000E+00 0. -1.
         25    2    1    2    0    0 -0.11257647461E+02  0.60949961892E+02  0.49669677210E+02  0.14817679745E+03  0.12509058313E+03 0.  0.
         23    2    1    2    0    0  0.11257647461E+02 -0.60949961892E+02  0.61114075901E+02  0.12572482809E+03  0.90720282433E+02 0.  0.
          5    1    3    3  502    0  0.19615269186E+02  0.36150664606E+02 -0.35285661201E+02  0.54352365386E+02  0.41800000000E+01 0.  1.
         -5    1    3    3    0  502 -0.30872916647E+02  0.24799297286E+02  0.84955338410E+02  0.93824432066E+02  0.41800000000E+01 0.  1.
        -11    1    4    4    0    0  0.23043923838E+02  0.17166421744E+02  0.27817946280E+02  0.39994332055E+02  0.00000000000E+00 0.  1.
         11    1    4    4    0    0 -0.11786276376E+02 -0.78116383636E+02  0.33296129621E+02  0.85730496038E+02  0.00000000000E+00 0. -1.
</event>
<event>
 8    1  0.6965441E-009  0.7741074E+02  0.7561462E-02  0.1336564E+00
          2   -1    0    0  501    0  0.00000000000E+00  0.00000000000E+00  0.24546128455E+03  0.24546128455E+03  0.00000000000E+00 0. -1.
         -2   -1    0    0    0  501 -0.00000000000E+00 -0.00000000000E+00 -0.61453090962E+02  0.61453090962E+02  0.00000000000E+00 0.  1.
         25    2    1    2    0    0 -0.25754600894E+02 -0.31565275004E+02  0.53313821036E+02  0.14194714512E+03  0.12508781892E+03 0.  0.
         23    2    1    2    0    0  0.25754600894E+02  0.31565275004E+02  0.13069437255E+03  0.16496723039E+03  0.92051626993E+02 0.  0.
          5    1    3    3  502    0 -0.42278561077E+01 -0.33375883575E+02  0.91664453877E+02  0.97732639770E+02  0.41800000000E+01 0. -1.
         -5    1    3    3    0  502 -0.21526744786E+02  0.18106085710E+01 -0.38350632841E+02  0.44214505355E+02  0.41800000000E+01 0. -1.
        -11    1    4    4    0    0  0.42774524538E+02 -0.18077313646E+02  0.46221077414E+02  0.65519746759E+02  0.00000000000E+00 0.  1.
         11    1    4    4    0    0 -0.17019923643E+02  0.49642588651E+02  0.84473295141E+02  0.99447483632E+02  0.00000000000E+00 0. -1.
</event>
<event>
 8    1  0.6965441E-009  0.8109942E+02  0.7561462E-02  0.1325960E+00
          1   -1    0    0  501    0  0.00000000000E+00  0.00000000000E+00  0.37048659292E+03  0.37048659292E+03  0.00000000000E+00 0. -1.
         -1   -1    0    0    0  501 -0.00000000000E+00 -0.00000000000E+00 -0.36905248155E+02  0.36905248155E+02  0.00000000000E+00 0.  1.
         25    2    1    2    0    0 -0.29523401887E+02 -0.66668893389E+01  0.26196479970E+03  0.29187128454E+03  0.12508881559E+03 0.  0.
         23    2    1    2    0    0  0.29523401887E+02  0.66668893389E+01  0.71616545064E+02  0.11552055653E+03  0.85439983511E+02 0.  0.
          5    1    3    3  502    0 -0.43292959316E+02 -0.37748431923E+02  0.47396186694E+02  0.74586160594E+02  0.41800000000E+01 0. -1.
         -5    1    3    3    0  502  0.13769557429E+02  0.31081542584E+02  0.21456861301E+03  0.21728512395E+03  0.41800000000E+01 0. -1.
        -11    1    4    4    0    0  0.39254641640E+02 -0.18484301156E+02  0.50292065128E+01  0.43679390995E+02  0.00000000000E+00 0.  1.
         11    1    4    4    0    0 -0.97312397536E+01  0.25151190495E+02  0.66587338551E+02  0.71841165537E+02  0.00000000000E+00 0. -1.
</event>
<event>
 8    1  0.6965441E-009  0.1207170E+03  0.7561462E-02  0.1241919E+00
          2   -1    0    0  501    0  0.00000000000E+00  0.00000000000E+00  0.11577380894E+04  0.11577380894E+04  0.00000000000E+00 0. -1.
         -2   -1    0    0    0  501 -0.00000000000E+00 -0.00000000000E+00 -0.15832466162E+02  0.15832466162E+02  0.00000000000E+00 0.  1.
         25    2    1    2    0    0  0.27304585795E+02 -0.73258703328E+02  0.69978609900E+03  0.71516519765E+03  0.12509315548E+03 0.  0.
         23    2    1    2    0    0 -0.27304585795E+02  0.73258703328E+02  0.44211952426E+03  0.45840535795E+03  0.92484703811E+02 0.  0.
          5    1    3    3  502    0  0.73203155445E+02 -0.52761239875E+02  0.33730351414E+03  0.34918989598E+03  0.41800000000E+01 0.  1.
         -5    1    3    3    0  502 -0.45898569651E+02 -0.20497463453E+02  0.36248258486E+03  0.36597530167E+03  0.41800000000E+01 0.  1.
        -11    1    4    4    0    0  0.35203987042E+00  0.73001988586E+02  0.40802014483E+03  0.41449952094E+03  0.00000000000E+00 0. -1.
         11    1    4    4    0    0 -0.27656625665E+02  0.25671474157E+00  0.34099379433E+02  0.43905837007E+02  0.00000000000E+00 0.  1.
</event>
<event>
 8    1  0.6965441E-009  0.9440727E+02  0.7561462E-02  0.1292517E+00
         -1   -1    0    0    0  501 -0.00000000000E+00  0.00000000000E+00  0.60585749754E+02  0.60585749754E+02  0.00000000000E+00 0.  1.
          1   -1    0    0  501    0  0.00000000000E+00 -0.00000000000E+00 -0.31231301583E+03  0.31231301583E+03  0.00000000000E+00 0. -1.
         25    2    1    2    0    0  0.77763448928E+01 -0.20067177866E+02 -0.25585238803E+03  0.28560846725E+03  0.12509432015E+03 0.  0.
         23    2    1    2    0    0 -0.77763448928E+01  0.20067177866E+02  0.41251219550E+01  0.87290298339E+02  0.84495067227E+02 0.  0.
          5    1    3    3  502    0  0.82755445893E+01  0.50716738678E+02 -0.14621670761E+03  0.15504022125E+03  0.41800000000E+01 0.  1.
         -5    1    3    3    0  502 -0.49919969643E+00 -0.70783916543E+02 -0.10963568042E+03  0.13056824600E+03  0.41800000000E+01 0.  1.
        -11    1    4    4    0    0 -0.10354203892E+02 -0.21940858894E+02 -0.25978205442E+02  0.35545435505E+02  0.00000000000E+00 0. -1.
         11    1    4    4    0    0  0.25778589993E+01  0.42008036760E+02  0.30103327397E+02  0.51744862835E+02  0.00000000000E+00 0.  1.
</event>
<event>
 8    1  0.6965441E-009  0.9812189E+02  0.7561462E-02  0.1284296E+00
         -2   -1    0    0    0  501 -0.00000000000E+00  0.00000000000E+00  0.22647430953E+03  0.22647430953E+03  0.00000000000E+00 0.  1.
          2   -1    0    0  501    0  0.00000000000E+00 -0.00000000000E+00 -0.66089840927E+02  0.66089840927E+02  0.00000000000E+00 0. -1.
         25    2    1    2    0    0 -0.51101062103E+02  0.47290497085E+01  0.11698770843E+03  0.17879382580E+03  0.12508967089E+03 0.  0.
         23    2    1    2    0    0  0.51101062103E+02 -0.47290497085E+01  0.43396760176E+02  0.11377032466E+03  0.91797197774E+02 0.  0.
          5    1    3    3  502    0  0.38716319515E+02 -0.10166504713E+02  0.56649054889E+02  0.69490280145E+02  0.41800000000E+01 0.  1.
         -5    1    3    3    0  502 -0.89817381618E+02  0.14895554422E+02  0.60338653538E+02  0.10930354566E+03  0.41800000000E+01 0.  1.
        -11    1    4    4    0    0  0.52071900159E+02 -0.15275423067E+02  0.67991404170E+02  0.86992254696E+02  0.00000000000E+00 0.  1.
         11    1    4    4    0    0 -0.97083805576E+00  0.10546373358E+02 -0.24594643994E+02  0.26778069959E+02  0.00000000000E+00 0. -1.
</event>
<event>
 8    1  0.6965441E-009  0.1217685E+03  0.7561462E-02  0.1240208E+00
          2   -1    0    0  501    0  0.00000000000E+00  0.00000000000E+00  0.16561795572E+03  0.16561795572E+03  0.00000000000E+00 0. -1.
         -2   -1    0    0    0  501 -0.00000000000E+00 -0.00000000000E+00 -0.10579287775E+03  0.10579287775E+03  0.00000000000E+00 0.  1.
         25    2    1    2    0    0 -0.26717651844E+02 -0.66334314369E+02  0.58660086527E+02  0.15556137076E+03  0.12507701682E+03 0.  0.
         23    2    1    2    0    0  0.26717651844E+02  0.66334314369E+02  0.11649914492E+01  0.11584946271E+03  0.91135430115E+02 0.  0.
          5    1    3    3  502    0  0.19325357829E+02  0.24925298313E+02 -0.88112621130E+01  0.33012886745E+02  0.41800000000E+01 0.  1.
         -5    1    3    3    0  502 -0.46043009673E+02 -0.91259612682E+02  0.67471348640E+02  0.12254848401E+03  0.41800000000E+01 0.  1.
        -11    1    4    4    0    0 -0.12079300555E+02 -0.15027874888E+02 -0.14802069767E+02  0.24307360921E+02  0.00000000000E+00 0.  1.
         11    1    4    4    0    0  0.38796952399E+02  0.81362189257E+02  0.15967061216E+02  0.91542101789E+02  0.00000000000E+00 0. -1.
</event>
<event>
 8    1  0.6965441E-009  0.8344876E+02  0.7561462E-02  0.1319540E+00
         -2   -1    0    0    0  501 -0.00000000000E+00  0.00000000000E+00  0.61296155415E+02  0.61296155415E+02  0.00000000000E+00 0.  1.
          2   -1    0    0  501    0  0.00000000000E+00 -0.00000000000E+00 -0.18372804710E+03  0.18372804710E+03  0.00000000000E+00 0. -1.
         25    2    1    2    0    0  0.99956643987E+01 -0.19367132695E+02 -0.71892089853E+02  0.14591476496E+03  0.12509055485E+03 0.  0.
         23    2    1    2    0    0 -0.99956643987E+01  0.19367132695E+02 -0.50539801834E+02  0.99109437562E+02  0.82422144530E+02 0.  0.
          5    1    3    3  502    0 -0.35247553027E+02  0.10432300486E+00  0.20601703265E+02  0.41040266265E+02  0.41800000000E+01 0. -1.
         -5    1    3    3    0  502  0.45243217426E+02 -0.19471455699E+02 -0.92493793118E+02  0.10487449869E+03  0.41800000000E+01 0. -1.
        -11    1    4    4    0    0 -0.38017331194E+02  0.33423735381E+02 -0.17492102838E+02  0.53557793267E+02  0.00000000000E+00 0. -1.
         11    1    4    4    0    0  0.28021666796E+02 -0.14056602686E+02 -0.33047698996E+02  0.45551644295E+02  0.00000000000E+00 0.  1.
</event>
<event>
 7    1  0.6965441E-009  0.2122282E+03  0.7561462E-02  0.1139814E+00
          2   -1    0    0  501    0  0.00000000000E+00  0.00000000000E+00  0.54989902643E+02  0.54989902643E+02  0.00000000000E+00 0. -1.
         -2   -1    0    0    0  501 -0.00000000000E+00 -0.00000000000E+00 -0.10341221950E+04  0.10341221950E+04  0.00000000000E+00 0.  1.
         23    2    1    2    0    0 -0.18736605114E+02  0.18524762491E+03 -0.70433407277E+03  0.73435799910E+03  0.92344149090E+02 0.  0.
          5    1    1    2  502    0 -0.48235992882E+02 -0.80346058709E+02 -0.15953137245E+03  0.18506736977E+03  0.41800000000E+01 0.  1.
         -5    1    1    2    0  502  0.66972597997E+02 -0.10490156620E+03 -0.11526684716E+03  0.16968672879E+03  0.41800000000E+01 0.  1.
        -11    1    3    3    0    0 -0.18352483773E+02  0.19525093325E+03 -0.68584978486E+03  0.71333699469E+03  0.00000000000E+00 0.  1.
         11    1    3    3    0    0 -0.38412134134E+00 -0.10003308341E+02 -0.18484287903E+02  0.21021004406E+02  0.00000000000E+00 0. -1.
</event>
<event>
 8    1  0.6965441E-009  0.8386812E+02  0.7561462E-02  0.1318419E+00
          4   -1    0    0  501    0  0.00000000000E+00  0.00000000000E+00  0.31890704194E+03  0.31890704194E+03  0.00000000000E+00 0. -1.
         -4   -1    0    0    0  501 -0.00000000000E+00 -0.00000000000E+00 -0.46986903377E+02  0.46986903377E+02  0.00000000000E+00 0.  1.
         25    2    1    2    0    0  0.26244113598E+02 -0.34239063748E+02  0.96563218519E+02  0.16379997303E+03  0.12507961069E+03 0.  0.
         23    2    1    2    0    0 -0.26244113598E+02  0.34239063748E+02  0.17535692004E+03  0.20209397228E+03  0.90724072008E+02 0.  0.
          5    1    3    3  502    0  0.15595341299E+01 -0.49398636187E+02 -0.12274282385E+02  0.51095868834E+02  0.41800000000E+01 0.  1.
         -5    1    3    3    0  502  0.24684579468E+02  0.15159572438E+02  0.10883750090E+03  0.11270410420E+03  0.41800000000E+01 0.  1.
        -11    1    4    4    0    0 -0.27927541893E+02  0.58355225641E+02  0.16207772979E+03  0.17451209256E+03  0.00000000000E+00 0. -1.
         11    1    4    4    0    0  0.16834282952E+01 -0.24116161892E+02  0.13279190248E+02  0.27581879720E+02  0.00000000000E+00 0.  1.
</event>
<event>
 8    1  0.6965441E-009  0.8054159E+02  0.7561462E-02  0.1327521E+00
         -1   -1    0    0    0  501 -0.00000000000E+00  0.00000000000E+00  0.14438255886E+03  0.14438255886E+03  0.00000000000E+00 0.  1.
          1   -1    0    0  501    0  0.00000000000E+00 -0.00000000000E+00 -0.96609461046E+02  0.96609461046E+02  0.00000000000E+00 0. -1.
         25    2    1    2    0    0  0.95585814514E+00 -0.13258959100E+02  0.70985544123E+02  0.14444707336E+03  0.12509714572E+03 0.  0.
         23    2    1    2    0    0 -0.95585814514E+00  0.13258959100E+02 -0.23212446306E+02  0.96544946549E+02  0.92765270330E+02 0.  0.
          5    1    3    3  502    0 -0.17541616098E+00 -0.50121850237E+02  0.89730929930E+02  0.10286565427E+03  0.41800000000E+01 0.  1.
         -5    1    3    3    0  502  0.11312743061E+01  0.36862891137E+02 -0.18745385807E+02  0.41581419091E+02  0.41800000000E+01 0.  1.
        -11    1    4    4    0    0  0.97868432017E+01 -0.28718532286E+02  0.19205742898E+02  0.35908173955E+02  0.00000000000E+00 0.  1.
         11    1    4    4    0    0 -0.10742701347E+02  0.41977491386E+02 -0.42418189204E+02  0.60636772594E+02  0.00000000000E+00 0. -1.
</event>
<event>
 8    1  0.6965441E-009  0.7464903E+02  0.7561462E-02  0.1344961E+00
         -1   -1    0    0    0  501 -0.00000000000E+00  0.00000000000E+00  0.21711691422E+03  0.21711691422E+03  0.00000000000E+00 0.  1.
          1   -1    0    0  501    0  0.00000000000E+00 -0.00000000000E+00 -0.92467175907E+02  0.92467175907E+02  0.00000000000E+00 0. -1.
         25    2    1    2    0    0  0.33189213351E+02 -0.25906747901E+02  0.16244340556E+03  0.20930371564E+03  0.12508997522E+03 0.  0.
         23    2    1    2    0    0 -0.33189213351E+02  0.25906747901E+02 -0.37793667242E+02  0.10028037449E+03  0.82795584152E+02 0.  0.
          5    1    3    3  502    0  0.35500602631E+02  0.16863421196E+02 -0.17513257672E+01  0.39562700913E+02  0.41800000000E+01 0. -1.
         -5    1    3    3    0  502 -0.23113892800E+01 -0.42770169097E+02  0.16419473132E+03  0.16974101472E+03  0.41800000000E+01 0. -1.
        -11    1    4    4    0    0 -0.26020183591E+02 -0.11645734596E+02  0.17206927091E+02  0.33297919279E+02  0.00000000000E+00 0.  1.
         11    1    4    4    0    0 -0.71690297603E+01  0.37552482498E+02 -0.55000594333E+02  0.66982455214E+02  0.00000000000E+00 0. -1.
</event>
<event>
 8    1  0.6965441E-009  0.1142597E+03  0.7561462E-02  0.1252879E+00
          2   -1    0    0  501    0  0.00000000000E+00  0.00000000000E+00  0.78014584556E+02  0.78014584556E+02  0.00000000000E+00 0. -1.
         -2   -1    0    0    0  501 -0.00000000000E+00 -0.00000000000E+00 -0.18285689165E+03  0.18285689165E+03  0.00000000000E+00 0.  1.
         25    2    1    2    0    0  0.12220607665E+02  0.54968025641E+02 -0.66080147112E+02  0.15226055231E+03  0.12508342357E+03 0.  0.
         23    2    1    2    0    0 -0.12220607665E+02 -0.54968025641E+02 -0.38762159981E+02  0.10861092390E+03  0.84397871115E+02 0.  0.
          5    1    3    3  502    0 -0.33805715815E+02 -0.19690046894E+02 -0.48946734548E+02  0.62799519038E+02  0.41800000000E+01 0.  1.
         -5    1    3    3    0  502  0.46026323480E+02  0.74658072536E+02 -0.17133412564E+02  0.89461033271E+02  0.41800000000E+01 0.  1.
        -11    1    4    4    0    0 -0.45514661095E+02 -0.50157333926E+02 -0.23748292064E+02  0.71772723907E+02  0.00000000000E+00 0.  1.
         11    1    4    4    0    0  0.33294053430E+02 -0.48106917157E+01 -0.15013867917E+02  0.36838199989E+02  0.00000000000E+00 0. -1.
</event>
<event>
 8    1  0.6965441E-009  0.1041906E+03  0.7561462E-02  0.1271723E+00
         -1   -1    0    0    0  501 -0.00000000000E+00  0.00000000000E+00  0.36821321986E+03  0.36821321986E+03  0.00000000000E+00 0.  1.
          1   -1    0    0  501    0  0.00000000000E+00 -0.00000000000E+00 -0.39056604885E+02  0.39056604885E+02  0.00000000000E+00 0. -1.
         25    2    1    2    0    0 -0.20243115910E+02 -0.10558492243E+02  0.26460037129E+03  0.29356792372E+03  0.12508998302E+03 0.  0.
         23    2    1    2    0    0  0.20243115910E+02  0.10558492243E+02  0.64556243684E+02  0.11370190102E+03  0.90770855439E+02 0.  0.
          5    1    3    3  502    0 -0.15437169446E+02 -0.67225996906E+02  0.16332495200E+03  0.17734191046E+03  0.41800000000E+01 0. -1.
         -5    1    3    3    0  502 -0.48059464639E+01  0.56667504663E+02  0.10127541929E+03  0.11622601326E+03  0.41800000000E+01 0. -1.
        -11    1    4    4    0    0  0.29666802460E+02  0.40875569151E+02  0.11385634666E+02  0.51774163425E+02  0.00000000000E+00 0.  1.
         11    1    4    4    0    0 -0.94236865500E+01 -0.30317076908E+02  0.53170609018E+02  0.61927737596E+02  0.00000000000E+00 0. -1.
</event>
<event>
 8    1  0.6965441E-009  0.9157156E+02  0.7561462E-02  0.1299090E+00
          1   -1    0    0  501    0  0.00000000000E+00  0.00000000000E+00  0.30585984368E+03  0.30585984368E+03  0.00000000000E+00 0. -1.
         -1   -1    0    0    0  501 -0.00000000000E+00 -0.00000000000E+00 -0.59153190078E+02  0.59153190078E+02  0.00000000000E+00 0.  1.
         25    2    1    2    0    0  0.55522535204E+02  0.30880189560E+02  0.70796109195E+02  0.15714836632E+03  0.12508869628E+03 0.  0.
         23    2    1    2    0    0 -0.55522535204E+02 -0.30880189560E+02  0.17591054440E+03  0.20786466744E+03  0.90702052423E+02 0.  0.
          5    1    3    3  502    0  0.40349624273E+02  0.37981640927E+02 -0.24188380052E+02  0.60607320978E+02  0.41800000000E+01 0.  1.
         -5    1    3    3    0  502  0.15172910931E+02 -0.71014513671E+01  0.94984489247E+02  0.96541045339E+02  0.41800000000E+01 0.  1.
        -11    1    4    4    0    0 -0.80429481509E+02 -0.28310247244E+02  0.14331502205E+03  0.16676200748E+03  0.00000000000E+00 0. -1.
         11    1    4    4    0    0  0.24906946305E+02 -0.25699423169E+01  0.32595522353E+02  0.41102659953E+02  0.00000000000E+00 0.  1.
</event>
<event>
 8    1  0.6965441E-009  0.9296525E+02  0.7561462E-02  0.1295826E+00
         -2   -1    0    0    0  501 -0.00000000000E+00  0.00000000000E+00  0.30209198361E+02  0.30209198361E+02  0.00000000000E+00 0.  1.
          2   -1    0    0  501    0  0.00000000000E+00 -0.00000000000E+00 -0.48439380925E+03  0.48439380925E+03  0.00000000000E+00 0. -1.
         25    2    1    2    0    0  0.52015539781E+02  0.80300797041E+01 -0.26810679057E+03  0.30049807008E+03  0.12509092860E+03 0.  0.
         23    2    1    2    0    0 -0.52015539781E+02 -0.80300797041E+01 -0.18607782033E+03  0.21410493753E+03  0.91901417286E+02 0.  0.
          5    1    3    3  502    0  0.63379819710E+02 -0.41560444562E+01 -0.48002642044E+02  0.79724527563E+02  0.41800000000E+01 0. -1.
         -5    1    3    3    0  502 -0.11364279929E+02  0.12186124160E+02 -0.22010414852E+03  0.22077354252E+03  0.41800000000E+01 0. -1.
        -11    1    4    4    0    0 -0.13756699118E+02  0.40804676527E+02 -0.89475883995E+02  0.99298550915E+02  0.00000000000E+00 0. -1.
         11    1    4    4    0    0 -0.38258840663E+02 -0.48834756231E+02 -0.96601936331E+02  0.11480638662E+03  0.00000000000E+00 0.  1.
</event>
<event>
 8    1  0.6965441E-009  0.9928321E+02  0.7561462E-02  0.1281811E+00
         -2   -1    0    0    0  501 -0.00000000000E+00  0.00000000000E+00  0.85257368084E+02  0.85257368084E+02  0.00000000000E+00 0.  1.
          2   -1    0    0  501    0  0.00000000000E+00 -0.00000000000E+00 -0.17135805833E+03  0.17135805833E+03  0.00000000000E+00 0. -1.
         25    2    1    2    0    0  0.41042935909E+02  0.11745652321E+01 -0.85416953410E+01  0.13193452009E+03  0.12509138596E+03 0.  0.
         23    2    1    2    0    0 -0.41042935909E+02 -0.11745652321E+01 -0.77558994906E+02  0.12468090632E+03  0.88566520306E+02 0.  0.
          5    1    3    3  502    0  0.68552881059E+02  0.40608130326E+02  0.96259950918E+01  0.80365726100E+02  0.41800000000E+01 0. -1.
         -5    1    3    3    0  502 -0.27509945150E+02 -0.39433565094E+02 -0.18167690433E+02  0.51568793992E+02  0.41800000000E+01 0. -1.
        -11    1    4    4    0    0 -0.55516350838E+02  0.25392518551E+01 -0.89637365591E+02  0.10546738984E+03  0.00000000000E+00 0. -1.
         11    1    4    4    0    0  0.14473414930E+02 -0.37138170872E+01  0.12078370685E+02  0.19213516479E+02  0.00000000000E+00 0.  1.
</event>
<event>
 8    1  0.6965441E-009  0.9497123E+02  0.7561462E-02  0.1291241E+00
          1   -1    0    0  501    0  0.00000000000E+00  0.00000000000E+00  0.51904012359E+02  0.51904012359E+02  0.00000000000E+00 0. -1.
         -1   -1    0    0    0  501 -0.00000000000E+00 -0.00000000000E+00 -0.32392399639E+03  0.32392399639E+03  0.00000000000E+00 0.  1.
         25    2    1    2    0    0  0.46632794775E+02 -0.45154166824E+02 -0.18131459292E+03  0.22964436723E+03  0.12509211591E+03 0.  0.
         23    2    1    2    0    0 -0.46632794775E+02  0.45154166824E+02 -0.90705391108E+02  0.14618364152E+03  0.94491654348E+02 0.  0.
          5    1    3    3  502    0  0.17066539667E+02 -0.46513791962E+02 -0.19166685893E+03  0.19801125430E+03  0.41800000000E+01 0. -1.
         -5    1    3    3    0  502  0.29566255108E+02  0.13596251386E+01  0.10352266011E+02  0.31633112923E+02  0.41800000000E+01 0. -1.
        -11    1    4    4    0    0 -0.10919498096E+01  0.61823830453E+02 -0.30712103805E+02  0.69040652419E+02  0.00000000000E+00 0.  1.
         11    1    4    4    0    0 -0.45540844966E+02 -0.16669663630E+02 -0.59993287304E+02  0.77142989100E+02  0.00000000000E+00 0. -1.
</event>
<event>
 8    1  0.6965441E-009  0.1339874E+03  0.7561462E-02  0.1221656E+00
          3   -1    0    0  501    0  0.00000000000E+00  0.00000000000E+00  0.28310159697E+03  0.28310159697E+03  0.00000000000E+00 0. -1.
         -3   -1    0    0    0  501 -0.00000000000E+00 -0.00000000000E+00 -0.78759972583E+02  0.78759972583E+02  0.00000000000E+00 0.  1.
         25    2    1    2    0    0  0.71692805822E+02  0.22471769505E+02  0.17163088770E+03  0.22527876461E+03  0.12509404998E+03 0.  0.
         23    2    1    2    0    0 -0.71692805822E+02 -0.22471769505E+02  0.32710736694E+02  0.13658280495E+03  0.10927045109E+03 0.  0.
          5    1    3    3  502    0  0.43900495754E+02  0.69011022819E+02  0.14050742166E+03  0.16263327685E+03  0.41800000000E+01 0.  1.
         -5    1    3    3    0  502  0.27792310068E+02 -0.46539253314E+02  0.31123466039E+02  0.62645487756E+02  0.41800000000E+01 0.  1.
        -11    1    4    4    0    0  0.25128425132E+02 -0.24181200604E+02  0.17500525569E+01  0.34917486969E+02  0.00000000000E+00 0.  1.
         11    1    4    4    0    0 -0.96821230953E+02  0.17094310992E+01  0.30960684137E+02  0.10166531798E+03  0.00000000000E+00 0. -1.
</event>
<event>
 8    1  0.6965441E-009  0.1167275E+03  0.7561462E-02  0.1248595E+00
          1   -1    0    0  501    0  0.00000000000E+00  0.00000000000E+00  0.73569678648E+02  0.73569678648E+02  0.00000000000E+00 0. -1.
         -1   -1    0    0    0  501 -0.00000000000E+00 -0.00000000000E+00 -0.23247473271E+03  0.23247473271E+03  0.00000000000E+00 0.  1.
         25    2    1    2    0    0  0.60306840748E+02  0.26148221577E+02 -0.51964136723E+02  0.15057081313E+03  0.12510257283E+03 0.  0.
         23    2    1    2    0    0 -0.60306840748E+02 -0.26148221577E+02 -0.10694091734E+03  0.15547359823E+03  0.91733502121E+02 0.  0.
          5    1    3    3  502    0  0.20529508120E+02 -0.39171364608E+02  0.16943263519E+02  0.47543696612E+02  0.41800000000E+01 0.  1.
         -5    1    3    3    0  502  0.39777332628E+02  0.65319586185E+02 -0.68907400242E+02  0.10302711652E+03  0.41800000000E+01 0.  1.
        -11    1    4    4    0    0  0.14384272051E+02 -0.34408558996E+02 -0.41851613147E+02  0.56057236264E+02  0.00000000000E+00 0. -1.
         11    1    4    4    0    0 -0.74691112799E+02  0.82603374188E+01 -0.65089304196E+02  0.99416361964E+02  0.00000000000E+00 0.  1.
</event>
<event>
 7    1  0.6965441E-009  0.9049399E+02  0.7561462E-02  0.1301660E+00
          2   -1    0    0  501    0  0.00000000000E+00  0.00000000000E+00  0.58163836959E+03  0.58163836959E+03  0.00000000000E+00 0. -1.
         -2   -1    0    0    0  501 -0.00000000000E+00 -0.00000000000E+00 -0.17712799284E+02  0.17712799284E+02  0.00000000000E+00 0.  1.
         25    2    1    2    0    0 -0.22905090730E+02  0.43730795253E+02  0.39299584297E+03  0.41536763431E+03  0.12509002122E+03 0.  0.
          5    1    3    3  502    0  0.44646471238E+02  0.38340743735E+02  0.11561661310E+03  0.12979982145E+03  0.41800000000E+01 0. -1.
         -5    1    3    3    0  502 -0.67551561968E+02  0.53900515177E+01  0.27737922987E+03  0.28556781286E+03  0.41800000000E+01 0. -1.
        -11    1    1    2    0    0  0.22726259382E+02 -0.19737390255E+02  0.35949254642E+02  0.46887059503E+02  0.00000000000E+00 0.  1.
         11    1    1    2    0    0  0.17883134814E+00 -0.23993404997E+02  0.13498047270E+03  0.13709647506E+03  0.00000000000E+00 0. -1.
</event>
<event>
 8    1  0.6965441E-009  0.1628297E+03  0.7561462E-02  0.1185539E+00
          2   -1    0    0  501    0  0.00000000000E+00  0.00000000000E+00  0.44680597765E+03  0.44680597765E+03  0.00000000000E+00 0. -1.
         -2   -1    0    0    0  501 -0.00000000000E+00 -0.00000000000E+00 -0.16614918879E+03  0.16614918879E+03  0.00000000000E+00 0.  1.
         25    2    1    2    0    0  0.10684198886E+03 -0.11334155782E+03 -0.75305436864E+02  0.21349342524E+03  0.12508802695E+03 0.  0.
         23    2    1    2    0    0 -0.10684198886E+03  0.11334155782E+03  0.35596222572E+03  0.39946174119E+03  0.92731101709E+02 0.  0.
          5    1    3    3  502    0  0.18588700751E+02 -0.18521387451E+02 -0.79499337363E+02  0.83822423193E+02  0.41800000000E+01 0. -1.
         -5    1    3    3    0  502  0.88253288105E+02 -0.94820170374E+02  0.41939004986E+01  0.12967100205E+03  0.41800000000E+01 0. -1.
        -11    1    4    4    0    0 -0.13652595696E+02  0.61190331338E+02  0.20623124761E+03  0.21555040596E+03  0.00000000000E+00 0. -1.
         11    1    4    4    0    0 -0.93189393159E+02  0.52151226487E+02  0.14973097811E+03  0.18391133523E+03  0.00000000000E+00 0.  1.
</event>
<event>
 8    1  0.6965441E-009  0.1707713E+03  0.7561462E-02  0.1177046E+00
          4   -1    0    0  501    0  0.00000000000E+00  0.00000000000E+00  0.76934561973E+02  0.76934561973E+02  0.00000000000E+00 0. -1.
         -4   -1    0    0    0  501 -0.00000000000E+00 -0.00000000000E+00 -0.51324745651E+03  0.51324745651E+03  0.00000000000E+00 0.  1.
         25    2    1    2    0    0 -0.13308014061E+03 -0.96146308649E+02 -0.18975767509E+03  0.28037369497E+03  0.12508795738E+03 0.  0.
         23    2    1    2    0    0  0.13308014061E+03  0.96146308649E+02 -0.24655521945E+03  0.30980832352E+03  0.90759487634E+02 0.  0.
          5    1    3    3  502    0 -0.54952946332E+02 -0.28152307289E+02  0.25183510539E+01  0.61937010004E+02  0.41800000000E+01 0.  1.
         -5    1    3    3    0  502 -0.78127194274E+02 -0.67994001361E+02 -0.19227602615E+03  0.21843668496E+03  0.41800000000E+01 0.  1.
        -11    1    4    4    0    0  0.81832996783E+02  0.94110586756E+02 -0.21788189505E+03  0.25104972036E+03  0.00000000000E+00 0.  1.
         11    1    4    4    0    0  0.51247143822E+02  0.20357218930E+01 -0.28673324401E+02  0.58758603164E+02  0.00000000000E+00 0. -1.
</event>
<event>
 7    1  0.6965441E-009  0.8457501E+02  0.7561462E-02  0.1316548E+00
         -1   -1    0    0    0  501 -0.00000000000E+00  0.00000000000E+00  0.14442155920E+03  0.14442155920E+03  0.00000000000E+00 0.  1.
          1   -1    0    0  501    0  0.00000000000E+00 -0.00000000000E+00 -0.60538045859E+02  0.60538045859E+02  0.00000000000E+00 0. -1.
         25    2    1    2    0    0 -0.33363467332E+02  0.19079166628E+02  0.60272918778E+02  0.14406961010E+03  0.12508434061E+03 0.  0.
          5    1    3    3  502    0  0.35015416181E+02  0.36445767204E+02  0.52460866022E+02  0.72965664399E+02  0.41800000000E+01 0.  1.
         -5    1    3    3    0  502 -0.68378883513E+02 -0.17366600575E+02  0.78120527563E+01  0.71103945702E+02  0.41800000000E+01 0.  1.
        -11    1    1    2    0    0  0.73689152244E+01 -0.20445314810E+02  0.26977836020E+02  0.34642682425E+02  0.00000000000E+00 0.  1.
         11    1    1    2    0    0  0.25994552107E+02  0.13661481818E+01 -0.33672414593E+01  0.26247312532E+02  0.00000000000E+00 0. -1.
</event>
<event>
 8    1  0.6965441E-009  0.1921539E+03  0.7561462E-02  0.1156533E+00
          2   -1    0    0  501    0  0.00000000000E+00  0.00000000000E+00  0.41304762974E+03  0.41304762974E+03  0.00000000000E+00 0.  1.
         -2   -1    0    0    0  501 -0.00000000000E+00 -0.00000000000E+00 -0.10013196977E+03  0.10013196977E+03  0.00000000000E+00 0. -1.
         25    2    1    2    0    0 -0.42219328885E+02 -0.16541408241E+03  0.18169728263E+03  0.27893562999E+03  0.12508754043E+03 0.  0.
         23    2    1    2    0    0  0.42219328885E+02  0.16541408241E+03  0.13121837733E+03  0.23424396952E+03  0.92237109191E+02 0.  0.
          5    1    3    3  502    0 -0.76937895136E+02 -0.82021038583E+02  0.60644683075E+02  0.12783638161E+03  0.41800000000E+01 0.  1.
         -5    1    3    3    0  502  0.34718566251E+02 -0.83393043830E+02  0.12105259956E+03  0.15109924838E+03  0.41800000000E+01 0.  1.
        -11    1    4    4    0    0 -0.77845471726E+01  0.93099093026E+02  0.25693319996E+02  0.96892657046E+02  0.00000000000E+00 0. -1.
         11    1    4    4    0    0  0.50003876058E+02  0.72314989387E+02  0.10552505734E+03  0.13735131247E+03  0.00000000000E+00 0.  1.
</event>
<event>
 8    1  0.6965441E-009  0.2526243E+03  0.7561462E-02  0.1111657E+00
         -1   -1    0    0    0  501 -0.00000000000E+00  0.00000000000E+00  0.57242044518E+03  0.57242044518E+03  0.00000000000E+00 0.  1.
          1   -1    0    0  501    0  0.00000000000E+00 -0.00000000000E+00 -0.11497080121E+03  0.11497080121E+03  0.00000000000E+00 0. -1.
         25    2    1    2    0    0 -0.15760242742E+03 -0.17028352894E+03  0.24081356528E+03  0.35701708194E+03  0.12504006644E+03 0.  0.
         23    2    1    2    0    0  0.15760242742E+03  0.17028352894E+03  0.21663607869E+03  0.33037416445E+03  0.91547215083E+02 0.  0.
          5    1    3    3  502    0 -0.49045549648E+02 -0.13330296887E+03  0.17239135069E+03  0.22340858900E+03  0.41800000000E+01 0.  1.
         -5    1    3    3    0  502 -0.10855687777E+03 -0.36980560070E+02  0.68422214595E+02  0.13360849293E+03  0.41800000000E+01 0.  1.
        -11    1    4    4    0    0  0.12161833950E+03  0.17391686032E+03  0.19513841883E+03  0.28830035954E+03  0.00000000000E+00 0.  1.
         11    1    4    4    0    0  0.35984087913E+02 -0.36333313844E+01  0.21497659859E+02  0.42073804906E+02  0.00000000000E+00 0. -1.
</event>
<event>
 8    1  0.6965441E-009  0.8748913E+02  0.7561462E-02  0.1309049E+00
          1   -1    0    0  501    0  0.00000000000E+00  0.00000000000E+00  0.52763287197E+02  0.52763287197E+02  0.00000000000E+00 0. -1.
         -1   -1    0    0    0  501 -0.00000000000E+00 -0.00000000000E+00 -0.22743445872E+03  0.22743445872E+03  0.00000000000E+00 0.  1.
         25    2    1    2    0    0  0.87652787505E+01 -0.69807094298E+01 -0.12063874241E+03  0.17414591083E+03  0.12509009422E+03 0.  0.
         23    2    1    2    0    0 -0.87652787505E+01  0.69807094298E+01 -0.54032429115E+02  0.10605183509E+03  0.90564495880E+02 0.  0.
          5    1    3    3  502    0 -0.25519090544E+02 -0.32178986038E+02  0.48579757007E+01  0.41566614639E+02  0.41800000000E+01 0.  1.
         -5    1    3    3    0  502  0.34284369295E+02  0.25198276608E+02 -0.12549671811E+03  0.13257929619E+03  0.41800000000E+01 0.  1.
        -11    1    4    4    0    0 -0.35399193410E+02 -0.29288828376E+02 -0.22915747540E+02  0.51342670821E+02  0.00000000000E+00 0. -1.
         11    1    4    4    0    0  0.26633914660E+02  0.36269537805E+02 -0.31116681575E+02  0.54709164269E+02  0.00000000000E+00 0.  1.
</event>
<event>
 8    1  0.6965441E-009  0.1614778E+03  0.7561462E-02  0.1187038E+00
          2   -1    0    0  501    0  0.00000000000E+00  0.00000000000E+00  0.63511702238E+02  0.63511702238E+02  0.00000000000E+00 0.  1.
         -2   -1    0    0    0  501 -0.00000000000E+00 -0.00000000000E+00 -0.59910379213E+03  0.59910379213E+03  0.00000000000E+00 0. -1.
         25    2    1    2    0    0 -0.13614670623E+03  0.16201605713E+02 -0.42357395805E+03  0.46245075844E+03  0.12508952154E+03 0.  0.
         23    2    1    2    0    0  0.13614670623E+03 -0.16201605713E+02 -0.11201813185E+03  0.20016473593E+03  0.93377952452E+02 0.  0.
          5    1    3    3  502    0 -0.71786122305E+02 -0.30034774848E+02 -0.33314888744E+03  0.34214176690E+03  0.41800000000E+01 0. -1.
         -5    1    3    3    0  502 -0.64360583921E+02  0.46236380562E+02 -0.90425070609E+02  0.12030899154E+03  0.41800000000E+01 0. -1.
        -11    1    4    4    0    0 -0.14363207760E+02 -0.11338283761E+01 -0.69834755973E+01  0.16011128485E+02  0.00000000000E+00 0. -1.
         11    1    4    4    0    0  0.15050991399E+03 -0.15067777337E+02 -0.10503465625E+03  0.18415360745E+03  0.00000000000E+00 0.  1.
</event>
<event>
 8    1  0.6965441E-009  0.1095218E+03  0.7561462E-02  0.1261458E+00
          1   -1    0    0  501    0  0.00000000000E+00  0.00000000000E+00  0.26718185993E+03  0.26718185993E+03  0.00000000000E+00 0. -1.
         -1   -1    0    0    0  501 -0.00000000000E+00 -0.00000000000E+00 -0.95558653178E+02  0.95558653178E+02  0.00000000000E+00 0.  1.
         25    2    1    2    0    0  0.63903245333E+02  0.61384256672E+02  0.55084961551E+01  0.15339136193E+03  0.12508762790E+03 0.  0.
         23    2    1    2    0    0 -0.63903245333E+02 -0.61384256672E+02  0.16611471059E+03  0.20934915117E+03  0.91549540080E+02 0.  0.
          5    1    3    3  502    0  0.48824017786E+02 -0.15718149305E+02 -0.37549911616E+02  0.63704891435E+02  0.41800000000E+01 0. -1.
         -5    1    3    3    0  502  0.15079227546E+02  0.77102405977E+02  0.43058407771E+02  0.89686470499E+02  0.41800000000E+01 0. -1.
        -11    1    4    4    0    0 -0.52815703975E+02 -0.54302627670E+02  0.17683591065E+03  0.19237778784E+03  0.00000000000E+00 0. -1.
         11    1    4    4    0    0 -0.11087541358E+02 -0.70816290019E+01 -0.10721200056E+02  0.16971363332E+02  0.00000000000E+00 0.  1.
</event>
<event>
 8    1  0.6965441E-009  0.1369477E+03  0.7561462E-02  0.1217496E+00
         -1   -1    0    0    0  501 -0.00000000000E+00  0.00000000000E+00  0.79344704719E+02  0.79344704719E+02  0.00000000000E+00 0.  1.
          1   -1    0    0  501    0  0.00000000000E+00 -0.00000000000E+00 -0.26830536819E+03  0.26830536819E+03  0.00000000000E+00 0. -1.
         25    2    1    2    0    0 -0.81386790139E+02  0.30893247758E+02 -0.51803872104E+02  0.16093810098E+03  0.12505690231E+03 0.  0.
         23    2    1    2    0    0  0.81386790139E+02 -0.30893247758E+02 -0.13715679136E+03  0.18671197193E+03  0.92038973684E+02 0.  0.
          5    1    3    3  502    0 -0.32597313693E+02 -0.46030721876E+02 -0.10306480356E+01  0.56568072724E+02  0.41800000000E+01 0.  1.
         -5    1    3    3    0  502 -0.48789476446E+02  0.76923969634E+02 -0.50773224068E+02  0.10437002826E+03  0.41800000000E+01 0.  1.
        -11    1    4    4    0    0  0.61440286361E+02  0.25356783347E+02 -0.63660550322E+02  0.92035541597E+02  0.00000000000E+00 0.  1.
         11    1    4    4    0    0  0.19946503778E+02 -0.56250031105E+02 -0.73496241042E+02  0.94676430328E+02  0.00000000000E+00 0. -1.
</event>
<event>
 8    1  0.6965441E-009  0.2137504E+03  0.7561462E-02  0.1138630E+00
         -1   -1    0    0    0  501 -0.00000000000E+00  0.00000000000E+00  0.73078860838E+03  0.73078860838E+03  0.00000000000E+00 0.  1.
          1   -1    0    0  501    0  0.00000000000E+00 -0.00000000000E+00 -0.78941274800E+02  0.78941274800E+02  0.00000000000E+00 0. -1.
         25    2    1    2    0    0 -0.64056375159E+02 -0.18333129958E+03  0.18536772894E+03  0.29617956363E+03  0.12509018497E+03 0.  0.
         23    2    1    2    0    0  0.64056375159E+02  0.18333129958E+03  0.46647960464E+03  0.51355031955E+03  0.91744888473E+02 0.  0.
          5    1    3    3  502    0 -0.68536548226E+02 -0.62623484785E+02  0.26642300927E+02  0.96675973685E+02  0.41800000000E+01 0.  1.
         -5    1    3    3    0  502  0.44801730664E+01 -0.12070781479E+03  0.15872542801E+03  0.19950358994E+03  0.41800000000E+01 0.  1.
        -11    1    4    4    0    0 -0.52611307451E+01  0.11905992671E+03  0.23437602310E+03  0.26293547849E+03  0.00000000000E+00 0.  1.
         11    1    4    4    0    0  0.69317505904E+02  0.64271372867E+02  0.23210358154E+03  0.25061484106E+03  0.00000000000E+00 0. -1.
</event>
<event>
 8    1  0.6965441E-009  0.1106458E+03  0.7561462E-02  0.1259379E+00
          2   -1    0    0  501    0  0.00000000000E+00  0.00000000000E+00  0.42717390376E+02  0.42717390376E+02  0.00000000000E+00 0. -1.
         -2   -1    0    0    0  501 -0.00000000000E+00 -0.00000000000E+00 -0.40675514043E+03  0.40675514043E+03  0.00000000000E+00 0.  1.
         25    2    1    2    0    0 -0.67528410752E+02 -0.23493439689E+02 -0.17597564354E+03  0.22743513062E+03  0.12508910246E+03 0.  0.
         23    2    1    2    0    0  0.67528410752E+02  0.23493439689E+02 -0.18806210652E+03  0.22203740020E+03  0.93921367157E+02 0.  0.
          5    1    3    3  502    0  0.60183503167E+01 -0.44012065360E+02 -0.11536697825E+02  0.46085249641E+02  0.41800000000E+01 0.  1.
         -5    1    3    3    0  502 -0.73546761068E+02  0.20518625671E+02 -0.16443894571E+03  0.18134988097E+03  0.41800000000E+01 0.  1.
        -11    1    4    4    0    0  0.49676488054E+02 -0.19720747862E+02 -0.15714007992E+03  0.16598092083E+03  0.00000000000E+00 0.  1.
         11    1    4    4    0    0  0.17851922698E+02  0.43214187551E+02 -0.30922026600E+02  0.56056479365E+02  0.00000000000E+00 0. -1.
</event>
<event>
 8    1  0.6965441E-009  0.1143698E+03  0.7561462E-02  0.1252685E+00
          2   -1    0    0  501    0  0.00000000000E+00  0.00000000000E+00  0.28677506700E+03  0.28677506700E+03  0.00000000000E+00 0. -1.
         -2   -1    0    0    0  501 -0.00000000000E+00 -0.00000000000E+00 -0.79491953267E+02  0.79491953267E+02  0.00000000000E+00 0.  1.
         25    2    1    2    0    0 -0.13506316574E+02  0.80139672185E+02  0.30163123740E+02  0.15219211126E+03  0.12509131485E+03 0.  0.
         23    2    1    2    0    0  0.13506316574E+02 -0.80139672185E+02  0.17711999000E+03  0.21407490901E+03  0.88610316355E+02 0.  0.
          5    1    3    3  502    0 -0.41029997480E+02 -0.21964259882E+01  0.48148745490E+02  0.63435471722E+02  0.41800000000E+01 0. -1.
         -5    1    3    3    0  502  0.27523680906E+02  0.82336098173E+02 -0.17985621750E+02  0.88756639542E+02  0.41800000000E+01 0. -1.
        -11    1    4    4    0    0  0.82916846437E+01  0.84160060314E+01 -0.39378089164E+01  0.12453414424E+02  0.00000000000E+00 0.  1.
         11    1    4    4    0    0  0.52146319302E+01 -0.88555678217E+02  0.18105779891E+03  0.20162149458E+03  0.00000000000E+00 0. -1.
</event>
<event>
 8    1  0.6965441E-009  0.9749392E+02  0.7561462E-02  0.1285656E+00
         -1   -1    0    0    0  501 -0.00000000000E+00  0.00000000000E+00  0.18756831521E+02  0.18756831521E+02  0.00000000000E+00 0.  1.
          1   -1    0    0  501    0  0.00000000000E+00 -0.00000000000E+00 -0.69329514773E+03  0.69329514773E+03  0.00000000000E+00 0. -1.
         25    2    1    2    0    0  0.40349578299E+01  0.35601280051E+01 -0.46789326848E+03  0.48435532408E+03  0.12508802452E+03 0.  0.
         23    2    1    2    0    0 -0.40349578299E+01 -0.35601280051E+01 -0.20664504773E+03  0.22769665517E+03  0.95470600863E+02 0.  0.
          5    1    3    3  502    0  0.39517083517E+02 -0.31209110334E+02 -0.37969698555E+03  0.38304422942E+03  0.41800000000E+01 0.  1.
         -5    1    3    3    0  502 -0.35482125687E+02  0.34769238339E+02 -0.88196282930E+02  0.10131109466E+03  0.41800000000E+01 0.  1.
        -11    1    4    4    0    0  0.20024091660E+02  0.40063111364E+02 -0.11447204728E+03  0.12292219794E+03  0.00000000000E+00 0. -1.
         11    1    4    4    0    0 -0.24059049490E+02 -0.43623239369E+02 -0.92173000445E+02  0.10477445722E+03  0.00000000000E+00 0.  1.
</event>
<event>
 8    1  0.6965441E-009  0.1383670E+03  0.7561462E-02  0.1215543E+00
          1   -1    0    0  501    0  0.00000000000E+00  0.00000000000E+00  0.17935873808E+03  0.17935873808E+03  0.00000000000E+00 0. -1.
         -1   -1    0    0    0  501 -0.00000000000E+00 -0.00000000000E+00 -0.14821993782E+03  0.14821993782E+03  0.00000000000E+00 0.  1.
         25    2    1    2    0    0 -0.16382202157E+02  0.93065197343E+02 -0.60490134953E+02  0.16803061007E+03  0.12508286050E+03 0.  0.
         23    2    1    2    0    0  0.16382202157E+02 -0.93065197343E+02  0.91628935215E+02  0.15954806583E+03  0.90167710614E+02 0.  0.
          5    1    3    3  502    0 -0.31739739997E+01 -0.26177699819E+02 -0.37132305445E+02  0.45734304263E+02  0.41800000000E+01 0. -1.
         -5    1    3    3    0  502 -0.13208228157E+02  0.11924289716E+03 -0.23357829508E+02  0.12229630581E+03  0.41800000000E+01 0. -1.
        -11    1    4    4    0    0  0.14601725153E+02  0.15567057062E+02  0.21123825757E+02  0.30029313306E+02  0.00000000000E+00 0. -1.
         11    1    4    4    0    0  0.17804770036E+01 -0.10863225441E+03  0.70505109458E+02  0.12951875252E+03  0.00000000000E+00 0.  1.
</event>
<event>
 8    1  0.6965441E-009  0.1570614E+03  0.7561462E-02  0.1192055E+00
          1   -1    0    0  501    0  0.00000000000E+00  0.00000000000E+00  0.16817670477E+03  0.16817670477E+03  0.00000000000E+00 0. -1.
         -1   -1    0    0    0  501 -0.00000000000E+00 -0.00000000000E+00 -0.16610837238E+03  0.16610837238E+03  0.00000000000E+00 0.  1.
         25    2    1    2    0    0 -0.24422850240E+02 -0.11247474348E+03  0.55539404505E+02  0.17882500865E+03  0.12508682878E+03 0.  0.
         23    2    1    2    0    0  0.24422850240E+02  0.11247474348E+03 -0.53471072111E+02  0.15546006849E+03  0.89786601505E+02 0.  0.
          5    1    3    3  502    0  0.45767668454E+02 -0.15782113398E+02  0.28201602458E+02  0.56183248039E+02  0.41800000000E+01 0. -1.
         -5    1    3    3    0  502 -0.70190518694E+02 -0.96692630078E+02  0.27337802047E+02  0.12264176061E+03  0.41800000000E+01 0. -1.
        -11    1    4    4    0    0  0.13700067824E+02 -0.13682417501E+02 -0.72361514806E+01  0.20670324025E+02  0.00000000000E+00 0.  1.
         11    1    4    4    0    0  0.10722782415E+02  0.12615716098E+03 -0.46234920631E+02  0.13478974447E+03  0.00000000000E+00 0. -1.
</event>
<event>
 8    1  0.6965441E-009  0.8596205E+02  0.7561462E-02  0.1312936E+00
          2   -1    0    0  501    0  0.00000000000E+00  0.00000000000E+00  0.20204659186E+03  0.20204659186E+03  0.00000000000E+00 0. -1.
         -2   -1    0    0    0  501 -0.00000000000E+00 -0.00000000000E+00 -0.59786226682E+02  0.59786226682E+02  0.00000000000E+00 0.  1.
         25    2    1    2    0    0 -0.91641414807E+01 -0.31944302934E+01  0.10606002350E+03  0.16428607045E+03  0.12508796300E+03 0.  0.
         23    2    1    2    0    0  0.91641414807E+01  0.31944302934E+01  0.36200341676E+02  0.97546748086E+02  0.90059521711E+02 0.  0.
          5    1    3    3  502    0 -0.37007056141E+02 -0.45858608016E+02  0.95181207366E+02  0.11202441149E+03  0.41800000000E+01 0.  1.
         -5    1    3    3    0  502  0.27842914660E+02  0.42664177723E+02  0.10878816136E+02  0.52261658968E+02  0.41800000000E+01 0.  1.
        -11    1    4    4    0    0  0.33668782472E+02  0.11923909533E+02  0.54909516501E+02  0.65504362710E+02  0.00000000000E+00 0. -1.
         11    1    4    4    0    0 -0.24504640991E+02 -0.87294792397E+01 -0.18709174826E+02  0.32042385376E+02  0.00000000000E+00 0.  1.
</event>
<event>
 8    1  0.6965441E-009  0.1267311E+03  0.7561462E-02  0.1232388E+00
          2   -1    0    0  501    0  0.00000000000E+00  0.00000000000E+00  0.10427176088E+03  0.10427176088E+03  0.00000000000E+00 0. -1.
         -2   -1    0    0    0  501 -0.00000000000E+00 -0.00000000000E+00 -0.21509442931E+03  0.21509442931E+03  0.00000000000E+00 0.  1.
         25    2    1    2    0    0 -0.52085368036E+02  0.83416638567E+02 -0.25033566122E+02  0.16107563897E+03  0.12508981127E+03 0.  0.
         23    2    1    2    0    0  0.52085368036E+02 -0.83416638567E+02 -0.85789102314E+02  0.15829055122E+03  0.89581847363E+02 0.  0.
          5    1    3    3  502    0 -0.76470195047E+01 -0.25826543600E+02 -0.32995057926E+02  0.42797587656E+02  0.41800000000E+01 0. -1.
         -5    1    3    3    0  502 -0.44438348532E+02  0.10924318217E+03  0.79614918047E+01  0.11827805131E+03  0.41800000000E+01 0. -1.
        -11    1    4    4    0    0  0.29645767606E+02 -0.97831756688E+01 -0.74130678284E+02  0.80435934296E+02  0.00000000000E+00 0.  1.
         11    1    4    4    0    0  0.22439600430E+02 -0.73633462898E+02 -0.11658424029E+02  0.77854616926E+02  0.00000000000E+00 0. -1.
</event>
<event>
 8    1  0.6965441E-009  0.1534486E+03  0.7561462E-02  0.1196298E+00
         -1   -1    0    0    0  501 -0.00000000000E+00  0.00000000000E+00  0.92926902377E+02  0.92926902377E+02  0.00000000000E+00 0.  1.
          1   -1    0    0  501    0  0.00000000000E+00 -0.00000000000E+00 -0.29145964490E+03  0.29145964490E+03  0.00000000000E+00 0. -1.
         25    2    1    2    0    0  0.10120832588E+03  0.47161491785E+02 -0.42939870043E+02  0.17308476451E+03  0.12508865549E+03 0.  0.
         23    2    1    2    0    0 -0.10120832588E+03 -0.47161491785E+02 -0.15559287248E+03  0.21130178277E+03  0.89285888586E+02 0.  0.
          5    1    3    3  502    0 -0.16851776326E+02  0.45094052888E+02 -0.21990813691E+02  0.53089775456E+02  0.41800000000E+01 0.  1.
         -5    1    3    3    0  502  0.11806010220E+03  0.20674388973E+01 -0.20949056352E+02  0.11999498905E+03  0.41800000000E+01 0.  1.
        -11    1    4    4    0    0 -0.23039042770E+02 -0.57149982323E+02 -0.48919982530E+02  0.78677078378E+02  0.00000000000E+00 0.  1.
         11    1    4    4    0    0 -0.78169283107E+02  0.99884905378E+01 -0.10667288995E+03  0.13262470439E+03  0.00000000000E+00 0. -1.
</event>
<event>
 8    1  0.6965441E-009  0.1018468E+03  0.7561462E-02  0.1276460E+00
         -2   -1    0    0    0  501 -0.00000000000E+00  0.00000000000E+00  0.92906839220E+02  0.92906839220E+02  0.00000000000E+00 0.  1.
          2   -1    0    0  501    0  0.00000000000E+00 -0.00000000000E+00 -0.18420925741E+03  0.18420925741E+03  0.00000000000E+00 0. -1.
         25    2    1    2    0    0  0.72257777803E+02 -0.10373201339E+02 -0.44874232884E+02  0.15162629016E+03  0.12509214736E+03 0.  0.
         23    2    1    2    0    0 -0.72257777803E+02  0.10373201339E+02 -0.46428185306E+02  0.12548980647E+03  0.90902834816E+02 0.  0.
          5    1    3    3  502    0  0.80209886890E+02  0.15689256173E+02  0.17272547619E+02  0.83639655759E+02  0.41800000000E+01 0. -1.
         -5    1    3    3    0  502 -0.79521090871E+01 -0.26062457513E+02 -0.62146780503E+02  0.67986634403E+02  0.41800000000E+01 0. -1.
        -11    1    4    4    0    0 -0.11514506317E+02  0.28632593010E+02  0.17464149631E+02  0.35459917661E+02  0.00000000000E+00 0.  1.
         11    1    4    4    0    0 -0.60743271485E+02 -0.18259391671E+02 -0.63892334937E+02  0.90029888807E+02  0.00000000000E+00 0. -1.
</event>
<event>
 8    1  0.6965441E-009  0.3481550E+03  0.7561462E-02  0.1063375E+00
         -2   -1    0    0    0  501 -0.00000000000E+00  0.00000000000E+00  0.72247303843E+02  0.72247303843E+02  0.00000000000E+00 0.  1.
          2   -1    0    0  501    0  0.00000000000E+00 -0.00000000000E+00 -0.18260847584E+04  0.18260847584E+04  0.00000000000E+00 0. -1.
         25    2    1    2    0    0 -0.27813725824E+03 -0.19179389320E+03 -0.69870288159E+03  0.78611508791E+03  0.12508390309E+03 0.  0.
         23    2    1    2    0    0  0.27813725824E+03  0.19179389320E+03 -0.10551345730E+04  0.11122169744E+04  0.97838637709E+02 0.  0.
          5    1    3    3  502    0 -0.23432911427E+03 -0.12704127197E+03 -0.42724315183E+03  0.50359090715E+03  0.41800000000E+01 0. -1.
         -5    1    3    3    0  502 -0.43808143965E+02 -0.64752621230E+02 -0.27145972976E+03  0.28252418076E+03  0.41800000000E+01 0. -1.
        -11    1    4    4    0    0  0.24583858189E+03  0.12181972358E+03 -0.80421293162E+03  0.84972648116E+03  0.00000000000E+00 0.  1.
         11    1    4    4    0    0  0.32298676344E+02  0.69974169627E+02 -0.25092164138E+03  0.26249049320E+03  0.00000000000E+00 0. -1.
</event>
<event>
 8    1  0.6965441E-009  0.1023987E+03  0.7561462E-02  0.1275331E+00
         -1   -1    0    0    0  501 -0.00000000000E+00  0.00000000000E+00  0.17283056531E+03  0.17283056531E+03  0.00000000000E+00 0.  1.
          1   -1    0    0  501    0  0.00000000000E+00 -0.00000000000E+00 -0.17806085476E+03  0.17806085476E+03  0.00000000000E+00 0. -1.
         25    2    1    2    0    0  0.21215333575E+02  0.61647651536E+02 -0.12955013680E+03  0.19152370583E+03  0.12509024196E+03 0.  0.
         23    2    1    2    0    0 -0.21215333575E+02 -0.61647651536E+02  0.12431984735E+03  0.15936771423E+03  0.75446143535E+02 0.  0.
          5    1    3    3  502    0 -0.22548990549E+02  0.57438658844E+02 -0.82026319788E+01  0.62389198392E+02  0.41800000000E+01 0.  1.
         -5    1    3    3    0  502  0.43764324124E+02  0.42089926915E+01 -0.12134750482E+03  0.12913450744E+03  0.41800000000E+01 0.  1.
        -11    1    4    4    0    0  0.69376084769E+01  0.15326909631E+02  0.30141284417E+02  0.34518713715E+02  0.00000000000E+00 0.  1.
         11    1    4    4    0    0 -0.28152942052E+02 -0.76974561166E+02  0.94178562935E+02  0.12484900051E+03  0.00000000000E+00 0. -1.
</event>
<event>
 8    1  0.6965441E-009  0.9791859E+02  0.7561462E-02  0.1284735E+00
         -1   -1    0    0    0  501 -0.00000000000E+00  0.00000000000E+00  0.24690237379E+02  0.24690237379E+02  0.00000000000E+00 0.  1.
          1   -1    0    0  501    0  0.00000000000E+00 -0.00000000000E+00 -0.54643502418E+03  0.54643502418E+03  0.00000000000E+00 0. -1.
         25    2    1    2    0    0  0.36974574456E+02  0.19508914371E+02 -0.28980474469E+03  0.31840495362E+03  0.12508879865E+03 0.  0.
         23    2    1    2    0    0 -0.36974574456E+02 -0.19508914371E+02 -0.23194004211E+03  0.25272030794E+03  0.91234061704E+02 0.  0.
          5    1    3    3  502    0 -0.36887866439E+02  0.35997854995E+02 -0.79304430729E+02  0.94674312186E+02  0.41800000000E+01 0. -1.
         -5    1    3    3    0  502  0.73862440895E+02 -0.16488940624E+02 -0.21050031396E+03  0.22373064143E+03  0.41800000000E+01 0. -1.
        -11    1    4    4    0    0 -0.25050919110E+02  0.16767409495E+02 -0.17394840224E+02  0.34803376789E+02  0.00000000000E+00 0.  1.
         11    1    4    4    0    0 -0.11923655346E+02 -0.36276323866E+02 -0.21454520189E+03  0.21791693116E+03  0.00000000000E+00 0. -1.
</event>
<event>
 8    1  0.6965441E-009  0.1455822E+03  0.7561462E-02  0.1206009E+00
          2   -1    0    0  501    0  0.00000000000E+00  0.00000000000E+00  0.93075164242E+03  0.93075164242E+03  0.00000000000E+00 0. -1.
         -2   -1    0    0    0  501 -0.00000000000E+00 -0.00000000000E+00 -0.35726533722E+02  0.35726533722E+02  0.00000000000E+00 0.  1.
         25    2    1    2    0    0 -0.62759229057E+02 -0.12053214405E+03  0.62751137583E+03  0.65412886638E+03  0.12508928195E+03 0.  0.
         23    2    1    2    0    0  0.62759229057E+02  0.12053214405E+03  0.26751373288E+03  0.31234930977E+03  0.86785802145E+02 0.  0.
          5    1    3    3  502    0 -0.10965317367E+02 -0.96045692003E+02  0.54541642442E+03  0.55393281322E+03  0.41800000000E+01 0.  1.
         -5    1    3    3    0  502 -0.51793911689E+02 -0.24486452045E+02  0.82094951408E+02  0.10019605316E+03  0.41800000000E+01 0.  1.
        -11    1    4    4    0    0  0.32538464253E+02  0.80311596957E+02  0.23966015421E+03  0.25484445017E+03  0.00000000000E+00 0. -1.
         11    1    4    4    0    0  0.30220764803E+02  0.40220547090E+02  0.27853578661E+02  0.57504859602E+02  0.00000000000E+00 0.  1.
</event>
<event>
 8    1  0.6965441E-009  0.1236153E+03  0.7561462E-02  0.1237249E+00
         -1   -1    0    0    0  501 -0.00000000000E+00  0.00000000000E+00  0.84509683923E+02  0.84509683923E+02  0.00000000000E+00 0.  1.
          1   -1    0    0  501    0  0.00000000000E+00 -0.00000000000E+00 -0.39078273392E+03  0.39078273392E+03  0.00000000000E+00 0. -1.
         25    2    1    2    0    0  0.13112783030E+02 -0.10895643344E+03 -0.39103761167E+02  0.17094154642E+03  0.12509379957E+03 0.  0.
         23    2    1    2    0    0 -0.13112783030E+02  0.10895643344E+03 -0.26716928883E+03  0.30435087142E+03  0.95950896683E+02 0.  0.
          5    1    3    3  502    0 -0.38241238457E+01 -0.10697211151E+03  0.20272830667E+02  0.10902346824E+03  0.41800000000E+01 0.  1.
         -5    1    3    3    0  502  0.16936906876E+02 -0.19843219275E+01 -0.59376591834E+02  0.61918078183E+02  0.41800000000E+01 0.  1.
        -11    1    4    4    0    0  0.17809864968E+02  0.72931443905E+02 -0.23576086773E+03  0.24742549091E+03  0.00000000000E+00 0. -1.
         11    1    4    4    0    0 -0.30922647999E+02  0.36024989532E+02 -0.31408421100E+02  0.56925380509E+02  0.00000000000E+00 0.  1.
</event>
<event>
 8    1  0.6965441E-009  0.1189822E+03  0.7561462E-02  0.1244786E+00
         -2   -1    0    0    0  501 -0.00000000000E+00  0.00000000000E+00  0.20158203650E+02  0.20158203650E+02  0.00000000000E+00 0.  1.
          2   -1    0    0  501    0  0.00000000000E+00 -0.00000000000E+00 -0.10617645676E+04  0.10617645676E+04  0.00000000000E+00 0. -1.
         25    2    1    2    0    0  0.50291438910E+02  0.62916160614E+00 -0.87523326478E+03  0.88555656490E+03  0.12509011624E+03 0.  0.
         23    2    1    2    0    0 -0.50291438910E+02 -0.62916160614E+00 -0.16637309918E+03  0.19636620636E+03  0.91378630974E+02 0.  0.
          5    1    3    3  502    0 -0.31038107936E+02  0.33911606885E+02 -0.26016535015E+03  0.26422877028E+03  0.41800000000E+01 0. -1.
         -5    1    3    3    0  502  0.81329546846E+02 -0.33282445279E+02 -0.61506791464E+03  0.62132779462E+03  0.41800000000E+01 0. -1.
        -11    1    4    4    0    0 -0.17238919836E+02  0.44595980853E+02 -0.86031897985E+02  0.98424942653E+02  0.00000000000E+00 0. -1.
         11    1    4    4    0    0 -0.33052519074E+02 -0.45225142459E+02 -0.80341201196E+02  0.97941263710E+02  0.00000000000E+00 0.  1.
</event>
<event>
 8    1  0.6965441E-009  0.1174125E+03  0.7561462E-02  0.1247428E+00
         -1   -1    0    0    0  501 -0.00000000000E+00  0.00000000000E+00  0.95439108417E+02  0.95439108417E+02  0.00000000000E+00 0.  1.
          1   -1    0    0  501    0  0.00000000000E+00 -0.00000000000E+00 -0.18802125612E+03  0.18802125612E+03  0.00000000000E+00 0. -1.
         25    2    1    2    0    0  0.67084778027E+02  0.37291086077E+02 -0.67148569043E+02  0.16139203247E+03  0.12508982883E+03 0.  0.
         23    2    1    2    0    0 -0.67084778027E+02 -0.37291086077E+02 -0.25433578663E+02  0.12206833207E+03  0.91448445735E+02 0.  0.
          5    1    3    3  502    0  0.76660535229E+02  0.60266328386E+02 -0.85843878138E+02  0.12998273659E+03  0.41800000000E+01 0.  1.
         -5    1    3    3    0  502 -0.95757572022E+01 -0.22975242309E+02  0.18695309095E+02  0.31409295874E+02  0.41800000000E+01 0.  1.
        -11    1    4    4    0    0 -0.31385568239E+02 -0.61364462146E+02 -0.35961342207E+02  0.77742325933E+02  0.00000000000E+00 0. -1.
         11    1    4    4    0    0 -0.35699209788E+02  0.24073376069E+02  0.10527763544E+02  0.44326006138E+02  0.00000000000E+00 0.  1.
</event>
<event>
 8    1  0.6965441E-009  0.9582871E+02  0.7561462E-02  0.1289320E+00
          2   -1    0    0  501    0  0.00000000000E+00  0.00000000000E+00  0.20417857897E+02  0.20417857897E+02  0.00000000000E+00 0. -1.
         -2   -1    0    0    0  501 -0.00000000000E+00 -0.00000000000E+00 -0.68074090970E+03  0.68074090970E+03  0.00000000000E+00 0.  1.
         25    2    1    2    0    0 -0.30184863139E+02  0.69593021139E+00 -0.47913510522E+03  0.49611513655E+03  0.12509264320E+03 0.  0.
         23    2    1    2    0    0  0.30184863139E+02 -0.69593021139E+00 -0.18118794658E+03  0.20504363104E+03  0.91116454950E+02 0.  0.
          5    1    3    3  502    0 -0.61643865263E+02 -0.20945097377E+02 -0.13601494584E+03  0.15085158640E+03  0.41800000000E+01 0.  1.
         -5    1    3    3    0  502  0.31459002124E+02  0.21641027588E+02 -0.34312015938E+03  0.34526355015E+03  0.41800000000E+01 0.  1.
        -11    1    4    4    0    0  0.43276383251E+01  0.39759070058E+02 -0.12444408159E+03  0.13071282090E+03  0.00000000000E+00 0.  1.
         11    1    4    4    0    0  0.25857224814E+02 -0.40455000270E+02 -0.56743864994E+02  0.74330810142E+02  0.00000000000E+00 0. -1.
</event>
<event>
 8    1  0.6965441E-009  0.1125794E+03  0.7561462E-02  0.1255866E+00
         -1   -1    0    0    0  501 -0.00000000000E+00  0.00000000000E+00  0.30934216755E+02  0.30934216755E+02  0.00000000000E+00 0. -1.
          1   -1    0    0  501    0  0.00000000000E+00 -0.00000000000E+00 -0.50465716754E+03  0.50465716754E+03  0.00000000000E+00 0.  1.
         25    2    1    2    0    0 -0.26122376121E+02  0.24723657526E+02 -0.15707870991E+03  0.20399660865E+03  0.12508899815E+03 0.  0.
         23    2    1    2    0    0  0.26122376121E+02 -0.24723657526E+02 -0.31664424087E+03  0.33159477564E+03  0.91639959512E+02 0.  0.
          5    1    3    3  502    0 -0.37873553304E+02 -0.45202209538E+02 -0.72491313909E+02  0.93542016117E+02  0.41800000000E+01 0. -1.
         -5    1    3    3    0  502  0.11751177183E+02  0.69925867064E+02 -0.84587396005E+02  0.11045459254E+03  0.41800000000E+01 0. -1.
        -11    1    4    4    0    0  0.47082842179E+02  0.15569930846E+02 -0.20817623177E+03  0.21400130898E+03  0.00000000000E+00 0.  1.
         11    1    4    4    0    0 -0.20960466058E+02 -0.40293588371E+02 -0.10846800911E+03  0.11759346666E+03  0.00000000000E+00 0. -1.
</event>
<event>
 8    1  0.6965441E-009  0.1032788E+03  0.7561462E-02  0.1273548E+00
         -2   -1    0    0    0  501 -0.00000000000E+00  0.00000000000E+00  0.40267598283E+02  0.40267598283E+02  0.00000000000E+00 0.  1.
          2   -1    0    0  501    0  0.00000000000E+00 -0.00000000000E+00 -0.40001079099E+03  0.40001079099E+03  0.00000000000E+00 0. -1.
         25    2    1    2    0    0 -0.40056420823E+02  0.29243076775E+02 -0.12252480550E+03  0.18198777698E+03  0.12509016197E+03 0.  0.
         23    2    1    2    0    0  0.40056420823E+02 -0.29243076775E+02 -0.23721838721E+03  0.25829061229E+03  0.89340935616E+02 0.  0.
          5    1    3    3  502    0  0.69425652328E+01 -0.32524838006E+02  0.37285893287E+01  0.33725940724E+02  0.41800000000E+01 0.  1.
         -5    1    3    3    0  502 -0.46998986056E+02  0.61767914781E+02 -0.12625339482E+03  0.14826183626E+03  0.41800000000E+01 0.  1.
        -11    1    4    4    0    0  0.11036341042E+02 -0.55250337907E+02 -0.91532209825E+02  0.10748277117E+03  0.00000000000E+00 0.  1.
         11    1    4    4    0    0  0.29020079781E+02  0.26007261132E+02 -0.14568617738E+03  0.15080784112E+03  0.00000000000E+00 0. -1.
</event>
<event>
 8    1  0.6965441E-009  0.1208257E+03  0.7561462E-02  0.1241741E+00
         -2   -1    0    0    0  501 -0.00000000000E+00  0.00000000000E+00  0.38208279956E+02  0.38208279956E+02  0.00000000000E+00 0.  1.
          2   -1    0    0  501    0  0.00000000000E+00 -0.00000000000E+00 -0.42759411045E+03  0.42759411045E+03  0.00000000000E+00 0. -1.
         25    2    1    2    0    0 -0.65856018775E+02  0.67277070155E+01 -0.23001825954E+03  0.27006000122E+03  0.12506689126E+03 0.  0.
         23    2    1    2    0    0  0.65856018775E+02 -0.67277070155E+01 -0.15936757096E+03  0.19574238918E+03  0.92383889283E+02 0.  0.
          5    1    3    3  502    0 -0.69652512087E+02  0.56822716724E+02 -0.16310211747E+03  0.18627953913E+03  0.41800000000E+01 0.  1.
         -5    1    3    3    0  502  0.37964933125E+01 -0.50095009709E+02 -0.66916142070E+02  0.83780462094E+02  0.41800000000E+01 0.  1.
        -11    1    4    4    0    0 -0.12502445565E+02 -0.18176336704E+02 -0.55682400443E+01  0.22752926367E+02  0.00000000000E+00 0.  1.
         11    1    4    4    0    0  0.78358464340E+02  0.11448629689E+02 -0.15379933091E+03  0.17298946281E+03  0.00000000000E+00 0. -1.
</event>
<event>
 8    1  0.6965441E-009  0.1162669E+03  0.7561462E-02  0.1249386E+00
          2   -1    0    0  501    0  0.00000000000E+00  0.00000000000E+00  0.44361678956E+03  0.44361678956E+03  0.00000000000E+00 0. -1.
         -2   -1    0    0    0  501 -0.00000000000E+00 -0.00000000000E+00 -0.45330509053E+02  0.45330509053E+02  0.00000000000E+00 0.  1.
         25    2    1    2    0    0  0.88107415607E+02 -0.10593377369E+02  0.19236537893E+03  0.24602817216E+03  0.12510110374E+03 0.  0.
         23    2    1    2    0    0 -0.88107415607E+02  0.10593377369E+02  0.20592090158E+03  0.24291912645E+03  0.93440611940E+02 0.  0.
          5    1    3    3  502    0 -0.13335634374E+02 -0.30761823206E+02  0.10588089068E+03  0.11114119093E+03  0.41800000000E+01 0. -1.
         -5    1    3    3    0  502  0.10144304998E+03  0.20168445836E+02  0.86484488248E+02  0.13488698123E+03  0.41800000000E+01 0. -1.
        -11    1    4    4    0    0 -0.58152448301E+02  0.23362881649E+02  0.41175441929E+02  0.74986322089E+02  0.00000000000E+00 0.  1.
         11    1    4    4    0    0 -0.29954967306E+02 -0.12769504279E+02  0.16474545965E+03  0.16793280436E+03  0.00000000000E+00 0. -1.
</event>
<event>
 8    1  0.6965441E-009  0.2965155E+03  0.7561462E-02  0.1086996E+00
          2   -1    0    0  501    0  0.00000000000E+00  0.00000000000E+00  0.55355735429E+03  0.55355735429E+03  0.00000000000E+00 0. -1.
         -2   -1    0    0    0  501 -0.00000000000E+00 -0.00000000000E+00 -0.16696475129E+03  0.16696475129E+03  0.00000000000E+00 0.  1.
         25    2    1    2    0    0 -0.28389405786E+03 -0.15548963922E+02  0.20865759181E+03  0.37420398889E+03  0.12511206304E+03 0.  0.
         23    2    1    2    0    0  0.28389405786E+03  0.15548963922E+02  0.17793501119E+03  0.34631811669E+03  0.86242468522E+02 0.  0.
          5    1    3    3  502    0 -0.15526090892E+03  0.40230406582E+02  0.64085642154E+02  0.17276827655E+03  0.41800000000E+01 0. -1.
         -5    1    3    3    0  502 -0.12863314894E+03 -0.55779370504E+02  0.14457194965E+03  0.20143571234E+03  0.41800000000E+01 0. -1.
        -11    1    4    4    0    0  0.90785782620E+02 -0.26726119807E+02  0.87662079080E+02  0.12899993765E+03  0.00000000000E+00 0.  1.
         11    1    4    4    0    0  0.19310827524E+03  0.42275083729E+02  0.90272932108E+02  0.21731817904E+03  0.00000000000E+00 0. -1.
</event>
<event>
 8    1  0.6965441E-009  0.1071674E+03  0.7561462E-02  0.1265907E+00
          1   -1    0    0  501    0  0.00000000000E+00  0.00000000000E+00  0.30113983585E+02  0.30113983585E+02  0.00000000000E+00 0. -1.
         -1   -1    0    0    0  501 -0.00000000000E+00 -0.00000000000E+00 -0.47019561074E+03  0.47019561074E+03  0.00000000000E+00 0.  1.
         25    2    1    2    0    0  0.35653627569E+02 -0.70810184789E+01 -0.32442323634E+03  0.34959995321E+03  0.12509344117E+03 0.  0.
         23    2    1    2    0    0 -0.35653627569E+02  0.70810184789E+01 -0.11565839081E+03  0.15070964111E+03  0.89527708439E+02 0.  0.
          5    1    3    3  502    0  0.73182108361E+02  0.14181223476E+02 -0.12565126690E+03  0.14615895921E+03  0.41800000000E+01 0. -1.
         -5    1    3    3    0  502 -0.37528480792E+02 -0.21262241955E+02 -0.19877196945E+03  0.20344099400E+03  0.41800000000E+01 0. -1.
        -11    1    4    4    0    0 -0.61282781266E+02 -0.14338227628E+02 -0.69930171165E+02  0.94081841449E+02  0.00000000000E+00 0. -1.
         11    1    4    4    0    0  0.25629153697E+02  0.21419246107E+02 -0.45728219644E+02  0.56627799664E+02  0.00000000000E+00 0.  1.
</event>
<event>
 8    1  0.6965441E-009  0.9418603E+02  0.7561462E-02  0.1293020E+00
          1   -1    0    0  501    0  0.00000000000E+00  0.00000000000E+00  0.10164790244E+03  0.10164790244E+03  0.00000000000E+00 0. -1.
         -1   -1    0    0    0  501 -0.00000000000E+00 -0.00000000000E+00 -0.15198872698E+03  0.15198872698E+03  0.00000000000E+00 0.  1.
         25    2    1    2    0    0  0.23165142439E+02 -0.30405986421E+02  0.19078505176E+02  0.13218337130E+03  0.12508919399E+03 0.  0.
         23    2    1    2    0    0 -0.23165142439E+02  0.30405986421E+02 -0.69419329723E+02  0.12145325812E+03  0.92036420700E+02 0.  0.
          5    1    3    3  502    0  0.35293173858E+02  0.37390621787E+02 -0.17007067392E+02  0.54317395555E+02  0.41800000000E+01 0.  1.
         -5    1    3    3    0  502 -0.12128031418E+02 -0.67796608208E+02  0.36085572568E+02  0.77865975741E+02  0.41800000000E+01 0.  1.
        -11    1    4    4    0    0 -0.38571179790E+01  0.44002555142E+02 -0.83137280944E+02  0.94143027893E+02  0.00000000000E+00 0.  1.
         11    1    4    4    0    0 -0.19308024460E+02 -0.13596568721E+02  0.13717951221E+02  0.27310230231E+02  0.00000000000E+00 0. -1.
</event>
<event>
 8    1  0.6965441E-009  0.1219222E+03  0.7561462E-02  0.1239959E+00
         -2   -1    0    0    0  501 -0.00000000000E+00  0.00000000000E+00  0.13304563198E+03  0.13304563198E+03  0.00000000000E+00 0.  1.
          2   -1    0    0  501    0  0.00000000000E+00 -0.00000000000E+00 -0.14541445020E+03  0.14541445020E+03  0.00000000000E+00 0. -1.
         25    2    1    2    0    0 -0.17784922914E+02  0.79281710286E+02  0.27402954511E+02  0.15165961106E+03  0.12509125726E+03 0.  0.
         23    2    1    2    0    0  0.17784922914E+02 -0.79281710286E+02 -0.39771772727E+02  0.12680047111E+03  0.88851969588E+02 0.  0.
          5    1    3    3  502    0 -0.59823733463E+02  0.69461083794E+01  0.30898248175E+02  0.67818151312E+02  0.41800000000E+01 0. -1.
         -5    1    3    3    0  502  0.42038810549E+02  0.72335601906E+02 -0.34952936642E+01  0.83841459752E+02  0.41800000000E+01 0. -1.
        -11    1    4    4    0    0  0.36484960579E+02 -0.30817454921E+02 -0.54831939881E+02  0.72714575618E+02  0.00000000000E+00 0. -1.
         11    1    4    4    0    0 -0.18700037664E+02 -0.48464255365E+02  0.15060167154E+02  0.54085895494E+02  0.00000000000E+00 0.  1.
</event>
<event>
 8    1  0.6965441E-009  0.2235491E+03  0.7561462E-02  0.1131264E+00
          1   -1    0    0  501    0  0.00000000000E+00  0.00000000000E+00  0.11846336662E+04  0.11846336662E+04  0.00000000000E+00 0. -1.
         -1   -1    0    0    0  501 -0.00000000000E+00 -0.00000000000E+00 -0.50436404330E+02  0.50436404330E+02  0.00000000000E+00 0.  1.
         25    2    1    2    0    0 -0.65908300176E+02  0.19562845017E+03  0.40831571404E+03  0.47432481650E+03  0.12509162510E+03 0.  0.
         23    2    1    2    0    0  0.65908300176E+02 -0.19562845017E+03  0.72588154781E+03  0.76074525401E+03  0.95994403471E+02 0.  0.
          5    1    3    3  502    0  0.23160722537E+02  0.69161347244E+01  0.14174029569E+02  0.28330681287E+02  0.41800000000E+01 0.  1.
         -5    1    3    3    0  502 -0.89069022713E+02  0.18871231545E+03  0.39414168447E+03  0.44599413522E+03  0.41800000000E+01 0.  1.
        -11    1    4    4    0    0  0.94273914828E+01 -0.11512129318E+03  0.51873522969E+03  0.53143957924E+03  0.00000000000E+00 0.  1.
         11    1    4    4    0    0  0.56480908694E+02 -0.80507156992E+02  0.20714631811E+03  0.22930567477E+03  0.00000000000E+00 0. -1.
</event>
<event>
 8    1  0.6965441E-009  0.1713367E+03  0.7561462E-02  0.1176461E+00
         -1   -1    0    0    0  501 -0.00000000000E+00  0.00000000000E+00  0.70542987036E+02  0.70542987036E+02  0.00000000000E+00 0.  1.
          1   -1    0    0  501    0  0.00000000000E+00 -0.00000000000E+00 -0.58330780396E+03  0.58330780396E+03  0.00000000000E+00 0. -1.
         25    2    1    2    0    0 -0.13162736397E+03 -0.91892951675E+02 -0.36206733887E+03  0.41534171453E+03  0.12508358981E+03 0.  0.
         23    2    1    2    0    0  0.13162736397E+03  0.91892951675E+02 -0.15069747806E+03  0.23850907647E+03  0.91688451567E+02 0.  0.
          5    1    3    3  502    0 -0.84906423651E+02 -0.96130563395E+02 -0.14679804322E+03  0.19498031667E+03  0.41800000000E+01 0.  1.
         -5    1    3    3    0  502 -0.46720940321E+02  0.42376117201E+01 -0.21526929565E+03  0.22036139786E+03  0.41800000000E+01 0.  1.
        -11    1    4    4    0    0  0.10138351064E+03  0.92148564087E+02 -0.73229876401E+02  0.15534667325E+03  0.00000000000E+00 0.  1.
         11    1    4    4    0    0  0.30243853331E+02 -0.25561241290E+00 -0.77467601654E+02  0.83162403212E+02  0.00000000000E+00 0. -1.
</event>
<event>
 8    1  0.6965441E-009  0.7781545E+02  0.7561462E-02  0.1335368E+00
         -1   -1    0    0    0  501 -0.00000000000E+00  0.00000000000E+00  0.20151997588E+02  0.20151997588E+02  0.00000000000E+00 0.  1.
          1   -1    0    0  501    0  0.00000000000E+00 -0.00000000000E+00 -0.74386059413E+03  0.74386059413E+03  0.00000000000E+00 0. -1.
         25    2    1    2    0    0 -0.13000610129E+02  0.44769792300E+01 -0.57845818994E+03  0.59198827742E+03  0.12508870403E+03 0.  0.
         23    2    1    2    0    0  0.13000610129E+02 -0.44769792300E+01 -0.14525040660E+03  0.17202431430E+03  0.91135201146E+02 0.  0.
          5    1    3    3  502    0  0.91316577646E+00 -0.39221892912E+02 -0.62053383479E+02  0.73534247507E+02  0.41800000000E+01 0. -1.
         -5    1    3    3    0  502 -0.13913775906E+02  0.43698872142E+02 -0.51640480647E+03  0.51845402991E+03  0.41800000000E+01 0. -1.
        -11    1    4    4    0    0 -0.28054185136E+02  0.35991887633E+01 -0.92892726464E+01  0.29770489578E+02  0.00000000000E+00 0.  1.
         11    1    4    4    0    0  0.41054795266E+02 -0.80761679933E+01 -0.13596113395E+03  0.14225382472E+03  0.00000000000E+00 0. -1.
</event>
<event>
 8    1  0.6965441E-009  0.1018036E+03  0.7561462E-02  0.1276548E+00
         -2   -1    0    0    0  501 -0.00000000000E+00  0.00000000000E+00  0.78743483603E+02  0.78743483603E+02  0.00000000000E+00 0.  1.
          2   -1    0    0  501    0  0.00000000000E+00 -0.00000000000E+00 -0.16960842482E+03  0.16960842482E+03  0.00000000000E+00 0. -1.
         25    2    1    2    0    0  0.37437593207E+02  0.16407797315E+02 -0.56662898085E+02  0.14327928322E+03  0.12508988681E+03 0.  0.
         23    2    1    2    0    0 -0.37437593207E+02 -0.16407797315E+02 -0.34202043131E+02  0.10507262520E+03  0.90552126507E+02 0.  0.
          5    1    3    3  502    0  0.64483459440E+02 -0.11027862276E+02  0.98620486003E+01  0.66290743625E+02  0.41800000000E+01 0. -1.
         -5    1    3    3    0  502 -0.27045866232E+02  0.27435659591E+02 -0.66524946685E+02  0.76988539595E+02  0.41800000000E+01 0. -1.
        -11    1    4    4    0    0 -0.31336077786E+00 -0.49541694847E+02 -0.15438826372E+02  0.51892533982E+02  0.00000000000E+00 0.  1.
         11    1    4    4    0    0 -0.37124232430E+02  0.33133897532E+02 -0.18763216759E+02  0.53180091221E+02  0.00000000000E+00 0. -1.
</event>
<event>
 8    1  0.6965441E-009  0.9871707E+02  0.7561462E-02  0.1283017E+00
          1   -1    0    0  501    0  0.00000000000E+00  0.00000000000E+00  0.76543876231E+02  0.76543876231E+02  0.00000000000E+00 0. -1.
         -1   -1    0    0    0  501 -0.00000000000E+00 -0.00000000000E+00 -0.19736150309E+03  0.19736150309E+03  0.00000000000E+00 0.  1.
         25    2    1    2    0    0 -0.15716402418E+02 -0.51988493055E+02 -0.89185313291E+02  0.16294702485E+03  0.12509158279E+03 0.  0.
         23    2    1    2    0    0  0.15716402418E+02  0.51988493055E+02 -0.31632313565E+02  0.11095835447E+03  0.91440387411E+02 0.  0.
          5    1    3    3  502    0  0.49068932285E+02 -0.26738855091E+01 -0.56800158185E+02  0.75223933354E+02  0.41800000000E+01 0.  1.
         -5    1    3    3    0  502 -0.64785334704E+02 -0.49314607546E+02 -0.32385155106E+02  0.87723091495E+02  0.41800000000E+01 0.  1.
        -11    1    4    4    0    0  0.25478924446E+02  0.17921821557E+02  0.27807162271E+02  0.41756503115E+02  0.00000000000E+00 0. -1.
         11    1    4    4    0    0 -0.97625220276E+01  0.34066671498E+02 -0.59439475835E+02  0.69201851354E+02  0.00000000000E+00 0.  1.
</event>
<event>
 8    1  0.6965441E-009  0.1059695E+03  0.7561462E-02  0.1268221E+00
          2   -1    0    0  501    0  0.00000000000E+00  0.00000000000E+00  0.19383757443E+03  0.19383757443E+03  0.00000000000E+00 0. -1.
         -2   -1    0    0    0  501 -0.00000000000E+00 -0.00000000000E+00 -0.83810033073E+02  0.83810033073E+02  0.00000000000E+00 0.  1.
         25    2    1    2    0    0 -0.42597588084E+02  0.44524282142E+02  0.32984050330E+02  0.14329002852E+03  0.12508844265E+03 0.  0.
         23    2    1    2    0    0  0.42597588084E+02 -0.44524282142E+02  0.77043491028E+02  0.13435757898E+03  0.91210160125E+02 0.  0.
          5    1    3    3  502    0 -0.82963509241E+02  0.15993416343E+02  0.39308570692E+02  0.93281130791E+02  0.41800000000E+01 0.  1.
         -5    1    3    3    0  502  0.40365921157E+02  0.28530865799E+02 -0.63245203616E+01  0.50008897727E+02  0.41800000000E+01 0.  1.
        -11    1    4    4    0    0  0.43567309308E+02 -0.11988051543E+02 -0.56024026636E+01  0.45532523933E+02  0.00000000000E+00 0.  1.
         11    1    4    4    0    0 -0.96972122417E+00 -0.32536230599E+02  0.82645893692E+02  0.88825055051E+02  0.00000000000E+00 0. -1.
</event>
<event>
 8    1  0.6965441E-009  0.6724004E+02  0.7561462E-02  0.1369738E+00
          2   -1    0    0  501    0  0.00000000000E+00  0.00000000000E+00  0.76272504371E+02  0.76272504371E+02  0.00000000000E+00 0. -1.
         -2   -1    0    0    0  501 -0.00000000000E+00 -0.00000000000E+00 -0.16035229974E+03  0.16035229974E+03  0.00000000000E+00 0.  1.
         25    2    1    2    0    0  0.12310370918E+01  0.27037858716E+02 -0.59968965726E+02  0.14133493886E+03  0.12508687716E+03 0.  0.
         23    2    1    2    0    0 -0.12310370918E+01 -0.27037858716E+02 -0.24110829641E+02  0.95289865246E+02  0.88126415202E+02 0.  0.
          5    1    3    3  502    0 -0.30686790673E+02 -0.15904581052E+02 -0.77430524481E+02  0.84897546146E+02  0.41800000000E+01 0.  1.
         -5    1    3    3    0  502  0.31917827765E+02  0.42942439768E+02  0.17461558755E+02  0.56437392716E+02  0.41800000000E+01 0.  1.
        -11    1    4    4    0    0 -0.19042370103E+02 -0.10785435297E+02  0.29368767323E+02  0.36625973949E+02  0.00000000000E+00 0. -1.
         11    1    4    4    0    0  0.17811333012E+02 -0.16252423420E+02 -0.53479596963E+02  0.58663891296E+02  0.00000000000E+00 0.  1.
</event>
<event>
 8    1  0.6965441E-009  0.1880425E+03  0.7561462E-02  0.1160239E+00
          2   -1    0    0  501    0  0.00000000000E+00  0.00000000000E+00  0.11855145281E+04  0.11855145281E+04  0.00000000000E+00 0. -1.
         -2   -1    0    0    0  501 -0.00000000000E+00 -0.00000000000E+00 -0.41886248322E+02  0.41886248322E+02  0.00000000000E+00 0.  1.
         25    2    1    2    0    0  0.17506402761E+03  0.74402401430E+01  0.83067761164E+03  0.85812334036E+03  0.12509037472E+03 0.  0.
         23    2    1    2    0    0 -0.17506402761E+03 -0.74402401430E+01  0.31295066816E+03  0.36927743609E+03  0.87891598944E+02 0.  0.
          5    1    3    3  502    0  0.28900431989E+02  0.40444864041E+02  0.37786066768E+03  0.38113931650E+03  0.41800000000E+01 0. -1.
         -5    1    3    3    0  502  0.14616359562E+03 -0.33004623898E+02  0.45281694396E+03  0.47698402386E+03  0.41800000000E+01 0. -1.
        -11    1    4    4    0    0 -0.74611686772E+02  0.64513151322E+01  0.57449076691E+02  0.94387073705E+02  0.00000000000E+00 0.  1.
         11    1    4    4    0    0 -0.10045234084E+03 -0.13891555275E+02  0.25550159147E+03  0.27489036238E+03  0.00000000000E+00 0. -1.
</event>
<event>
 8    1  0.6965441E-009  0.9845286E+02  0.7561462E-02  0.1283583E+00
          2   -1    0    0  501    0  0.00000000000E+00  0.00000000000E+00  0.54093110125E+02  0.54093110125E+02  0.00000000000E+00 0. -1.
         -2   -1    0    0    0  501 -0.00000000000E+00 -0.00000000000E+00 -0.25970469481E+03  0.25970469481E+03  0.00000000000E+00 0.  1.
         25    2    1    2    0    0 -0.17597558065E+02  0.10957922149E+02 -0.18263337283E+03  0.22233465164E+03  0.12509195953E+03 0.  0.
         23    2    1    2    0    0  0.17597558065E+02 -0.10957922149E+02 -0.22978211850E+02  0.91463153297E+02  0.86068345421E+02 0.  0.
          5    1    3    3  502    0 -0.67405111744E+02 -0.32214433366E+01 -0.65225993755E+02  0.93945353518E+02  0.41800000000E+01 0.  1.
         -5    1    3    3    0  502  0.49807553679E+02  0.14179365486E+02 -0.11740737908E+03  0.12838929812E+03  0.41800000000E+01 0.  1.
        -11    1    4    4    0    0  0.41937033078E+02  0.12269770069E+02 -0.34739922855E+02  0.55822255785E+02  0.00000000000E+00 0.  1.
         11    1    4    4    0    0 -0.24339475013E+02 -0.23227692218E+02  0.11761711005E+02  0.35640897512E+02  0.00000000000E+00 0. -1.
</event>
<event>
 8    1  0.6965441E-009  0.1003455E+03  0.7561462E-02  0.1279571E+00
         -3   -1    0    0    0  501 -0.00000000000E+00  0.00000000000E+00  0.36702664287E+02  0.36702664287E+02  0.00000000000E+00 0.  1.
          3   -1    0    0  501    0  0.00000000000E+00 -0.00000000000E+00 -0.33617219558E+03  0.33617219558E+03  0.00000000000E+00 0. -1.
         25    2    1    2    0    0  0.38526994972E+01 -0.22990173019E+02 -0.16531309720E+03  0.20861051989E+03  0.12508612054E+03 0.  0.
         23    2    1    2    0    0 -0.38526994972E+01  0.22990173019E+02 -0.13415643408E+03  0.16426433997E+03  0.91877272664E+02 0.  0.
          5    1    3    3  502    0  0.39941053989E+02 -0.62007096666E+02 -0.93070663139E+02  0.11882671656E+03  0.41800000000E+01 0.  1.
         -5    1    3    3    0  502 -0.36088354492E+02  0.39016923647E+02 -0.72242434065E+02  0.89783803331E+02  0.41800000000E+01 0.  1.
        -11    1    4    4    0    0 -0.15861785487E+02 -0.21896364917E+02 -0.56587907930E+01  0.27623702660E+02  0.00000000000E+00 0.  1.
         11    1    4    4    0    0  0.12009085990E+02  0.44886537937E+02 -0.12849764329E+03  0.13664063731E+03  0.00000000000E+00 0. -1.
</event>
<event>
 8    1  0.6965441E-009  0.1811326E+03  0.7561462E-02  0.1166711E+00
         -1   -1    0    0    0  501 -0.00000000000E+00  0.00000000000E+00  0.45929777686E+02  0.45929777686E+02  0.00000000000E+00 0.  1.
          1   -1    0    0  501    0  0.00000000000E+00 -0.00000000000E+00 -0.93024526019E+03  0.93024526019E+03  0.00000000000E+00 0. -1.
         25    2    1    2    0    0 -0.71714778218E+02 -0.14617344416E+03 -0.61065001454E+03  0.64423772386E+03  0.12505646481E+03 0.  0.
         23    2    1    2    0    0  0.71714778218E+02  0.14617344416E+03 -0.27366546797E+03  0.33193731402E+03  0.93701157367E+02 0.  0.
          5    1    3    3  502    0 -0.50586812334E+02 -0.35964258994E+02 -0.40658164574E+03  0.41131321466E+03  0.41800000000E+01 0.  1.
         -5    1    3    3    0  502 -0.21127965885E+02 -0.11020918516E+03 -0.20406836881E+03  0.23292450919E+03  0.41800000000E+01 0.  1.
        -11    1    4    4    0    0  0.13347288137E+02  0.12494272980E+03 -0.17818756228E+03  0.21803587590E+03  0.00000000000E+00 0.  1.
         11    1    4    4    0    0  0.58367490081E+02  0.21230714351E+02 -0.95477905691E+02  0.11390143812E+03  0.00000000000E+00 0. -1.
</event>
<event>
 8    1  0.6965441E-009  0.8444768E+02  0.7561462E-02  0.1316883E+00
          2   -1    0    0  501    0  0.00000000000E+00  0.00000000000E+00  0.28939206022E+02  0.28939206022E+02  0.00000000000E+00 0.  1.
         -2   -1    0    0    0  501 -0.00000000000E+00 -0.00000000000E+00 -0.50580914120E+03  0.50580914120E+03  0.00000000000E+00 0. -1.
         25    2    1    2    0    0  0.68586182237E+01 -0.12295087893E+01 -0.38617791327E+03  0.40599211820E+03  0.12509063516E+03 0.  0.
         23    2    1    2    0    0 -0.68586182237E+01  0.12295087893E+01 -0.90692021911E+02  0.12875622903E+03  0.91129420822E+02 0.  0.
          5    1    3    3  502    0  0.30671879445E+01 -0.60358126017E+02 -0.13638237887E+03  0.14923182195E+03  0.41800000000E+01 0.  1.
         -5    1    3    3    0  502  0.37914302792E+01  0.59128617228E+02 -0.24979553441E+03  0.25676029624E+03  0.41800000000E+01 0.  1.
        -11    1    4    4    0    0 -0.27823191477E+02 -0.95498666720E+00 -0.10137311298E+03  0.10512635263E+03  0.00000000000E+00 0. -1.
         11    1    4    4    0    0  0.20964573253E+02  0.21844954565E+01  0.10681091065E+02  0.23629876395E+02  0.00000000000E+00 0.  1.
</event>
<event>
 8    1  0.6965441E-009  0.1106599E+03  0.7561462E-02  0.1259353E+00
         -2   -1    0    0    0  501 -0.00000000000E+00  0.00000000000E+00  0.59429027967E+02  0.59429027967E+02  0.00000000000E+00 0.  1.
          2   -1    0    0  501    0  0.00000000000E+00 -0.00000000000E+00 -0.27214686122E+03  0.27214686122E+03  0.00000000000E+00 0. -1.
         25    2    1    2    0    0  0.31496910743E+02  0.30321826676E+02 -0.17976185107E+03  0.22332403082E+03  0.12509129100E+03 0.  0.
         23    2    1    2    0    0 -0.31496910743E+02 -0.30321826676E+02 -0.32955982184E+02  0.10825185836E+03  0.93385756502E+02 0.  0.
          5    1    3    3  502    0  0.76750073111E+01  0.72450323339E+02 -0.14876431055E+03  0.16569926851E+03  0.41800000000E+01 0. -1.
         -5    1    3    3    0  502  0.23821903432E+02 -0.42128496662E+02 -0.30997540511E+02  0.57624762315E+02  0.41800000000E+01 0. -1.
        -11    1    4    4    0    0  0.83745374730E+01 -0.53161551145E+02 -0.31331883249E+02  0.62273351491E+02  0.00000000000E+00 0. -1.
         11    1    4    4    0    0 -0.39871448216E+02  0.22839724468E+02 -0.16240989355E+01  0.45978506870E+02  0.00000000000E+00 0.  1.
</event>
<event>
 8    1  0.6965441E-009  0.1265631E+03  0.7561462E-02  0.1232646E+00
          1   -1    0    0  501    0  0.00000000000E+00  0.00000000000E+00  0.14882480258E+03  0.14882480258E+03  0.00000000000E+00 0. -1.
         -1   -1    0    0    0  501 -0.00000000000E+00 -0.00000000000E+00 -0.12037589575E+03  0.12037589575E+03  0.00000000000E+00 0.  1.
         25    2    1    2    0    0 -0.72384306927E+02  0.19473243766E+02  0.40260145885E+02  0.15126914710E+03  0.12507110140E+03 0.  0.
         23    2    1    2    0    0  0.72384306927E+02 -0.19473243766E+02 -0.11811239052E+02  0.11793155123E+03  0.90275413577E+02 0.  0.
          5    1    3    3  502    0  0.18291750460E+02  0.41020068578E+02  0.36283974040E+02  0.57889837909E+02  0.41800000000E+01 0. -1.
         -5    1    3    3    0  502 -0.90676057387E+02 -0.21546824811E+02  0.39761718445E+01  0.93379309192E+02  0.41800000000E+01 0. -1.
        -11    1    4    4    0    0  0.27802768185E+02 -0.52387781968E+02 -0.18469165739E+02  0.62117499156E+02  0.00000000000E+00 0. -1.
         11    1    4    4    0    0  0.44581538741E+02  0.32914538202E+02  0.66579266867E+01  0.55814052078E+02  0.00000000000E+00 0.  1.
</event>
<event>
 8    1  0.6965441E-009  0.1379290E+03  0.7561462E-02  0.1216143E+00
         -1   -1    0    0    0  501 -0.00000000000E+00  0.00000000000E+00  0.44867022681E+02  0.44867022681E+02  0.00000000000E+00 0.  1.
          1   -1    0    0  501    0  0.00000000000E+00 -0.00000000000E+00 -0.66479553307E+03  0.66479553307E+03  0.00000000000E+00 0. -1.
         25    2    1    2    0    0 -0.11513646545E+03  0.14453565547E+01 -0.18757553631E+03  0.25316254627E+03  0.12509275870E+03 0.  0.
         23    2    1    2    0    0  0.11513646545E+03 -0.14453565547E+01 -0.43235297407E+03  0.45650000948E+03  0.90579631978E+02 0.  0.
          5    1    3    3  502    0  0.67558086624E+01 -0.48395383061E+01  0.14395308156E+02  0.17139410101E+02  0.41800000000E+01 0.  1.
         -5    1    3    3    0  502 -0.12189227411E+03  0.62848948608E+01 -0.20197084447E+03  0.23602313617E+03  0.41800000000E+01 0.  1.
        -11    1    4    4    0    0  0.60389103307E+02  0.42816978824E+02 -0.18319920599E+03  0.19759070461E+03  0.00000000000E+00 0.  1.
         11    1    4    4    0    0  0.54747362146E+02 -0.44262335379E+02 -0.24915376808E+03  0.25890930486E+03  0.00000000000E+00 0. -1.
</event>
<event>
 8    1  0.6965441E-009  0.1176125E+03  0.7561462E-02  0.1247088E+00
          3   -1    0    0  501    0  0.00000000000E+00  0.00000000000E+00  0.26866131948E+03  0.26866131948E+03  0.00000000000E+00 0. -1.
         -3   -1    0    0    0  501 -0.00000000000E+00 -0.00000000000E+00 -0.80161812070E+02  0.80161812070E+02  0.00000000000E+00 0.  1.
         25    2    1    2    0    0 -0.97518299253E+02  0.12955658433E+02  0.11309209857E+03  0.19523083870E+03  0.12509032675E+03 0.  0.
         23    2    1    2    0    0  0.97518299253E+02 -0.12955658433E+02  0.75407408840E+02  0.15359229285E+03  0.90700867354E+02 0.  0.
          5    1    3    3  502    0 -0.17221833076E+02 -0.96722192357E+01  0.10979651710E+03  0.11163731871E+03  0.41800000000E+01 0.  1.
         -5    1    3    3    0  502 -0.80296466177E+02  0.22627877669E+02  0.32955814624E+01  0.83593519997E+02  0.41800000000E+01 0.  1.
        -11    1    4    4    0    0  0.61613924849E+02  0.35568714143E+02  0.26557414593E+02  0.75938826900E+02  0.00000000000E+00 0.  1.
         11    1    4    4    0    0  0.35904374404E+02 -0.48524372576E+02  0.48849994248E+02  0.77653465945E+02  0.00000000000E+00 0. -1.
</event>
<event>
 8    1  0.6965441E-009  0.1024682E+03  0.7561462E-02  0.1275190E+00
          1   -1    0    0  501    0  0.00000000000E+00  0.00000000000E+00  0.28866739207E+02  0.28866739207E+02  0.00000000000E+00 0. -1.
         -1   -1    0    0    0  501 -0.00000000000E+00 -0.00000000000E+00 -0.10023688891E+04  0.10023688891E+04  0.00000000000E+00 0.  1.
         25    2    1    2    0    0  0.62559726110E+02 -0.47568648046E+02 -0.83626829467E+03  0.84921823598E+03  0.12510178276E+03 0.  0.
         23    2    1    2    0    0 -0.62559726110E+02  0.47568648046E+02 -0.13723385521E+03  0.18201739231E+03  0.90114951476E+02 0.  0.
          5    1    3    3  502    0  0.24440270668E+02 -0.41071287316E+02 -0.90444332744E+02  0.10238079506E+03  0.41800000000E+01 0. -1.
         -5    1    3    3    0  502  0.38119455441E+02 -0.64973607300E+01 -0.74582396193E+03  0.74683744092E+03  0.41800000000E+01 0. -1.
        -11    1    4    4    0    0 -0.19637690019E+02  0.67820635598E+02 -0.95852025829E+02  0.11904994052E+03  0.00000000000E+00 0.  1.
         11    1    4    4    0    0 -0.42922036091E+02 -0.20251987552E+02 -0.41381829379E+02  0.62967451788E+02  0.00000000000E+00 0. -1.
</event>
<event>
 8    1  0.6965441E-009  0.1614637E+03  0.7561462E-02  0.1187054E+00
         -2   -1    0    0    0  501 -0.00000000000E+00  0.00000000000E+00  0.36012524655E+03  0.36012524655E+03  0.00000000000E+00 0.  1.
          2   -1    0    0  501    0  0.00000000000E+00 -0.00000000000E+00 -0.88439819109E+02  0.88439819109E+02  0.00000000000E+00 0. -1.
         25    2    1    2    0    0 -0.10431444732E+03  0.72775235203E+02  0.21544747709E+03  0.27971873936E+03  0.12508884438E+03 0.  0.
         23    2    1    2    0    0  0.10431444732E+03 -0.72775235203E+02  0.56237950349E+02  0.16884632629E+03  0.95752995068E+02 0.  0.
          5    1    3    3  502    0 -0.14512939939E+02 -0.34951738118E+02  0.44759076809E+02  0.58763056251E+02  0.41800000000E+01 0.  1.
         -5    1    3    3    0  502 -0.89801507383E+02  0.10772697332E+03  0.17068840028E+03  0.22095568311E+03  0.41800000000E+01 0.  1.
        -11    1    4    4    0    0  0.88528680210E+02 -0.21792491027E+02 -0.19711891031E+00  0.91171699231E+02  0.00000000000E+00 0. -1.
         11    1    4    4    0    0  0.15785767113E+02 -0.50982744176E+02  0.56435069260E+02  0.77674627063E+02  0.00000000000E+00 0.  1.
</event>
<event>
 8    1  0.6965441E-009  0.1118556E+03  0.7561462E-02  0.1257172E+00
          2   -1    0    0  501    0  0.00000000000E+00  0.00000000000E+00  0.65491219996E+03  0.65491219996E+03  0.00000000000E+00 0. -1.
         -2   -1    0    0    0  501 -0.00000000000E+00 -0.00000000000E+00 -0.19773459084E+02  0.19773459084E+02  0.00000000000E+00 0.  1.
         25    2    1    2    0    0  0.17026359042E+02  0.26190254467E+02  0.30684434390E+03  0.33284102537E+03  0.12511542853E+03 0.  0.
         23    2    1    2    0    0 -0.17026359042E+02 -0.26190254467E+02  0.32829439697E+03  0.34184463367E+03  0.90026197043E+02 0.  0.
          5    1    3    3  502    0 -0.47223257339E+02  0.40687381257E+02  0.16366111025E+03  0.17517970897E+03  0.41800000000E+01 0.  1.
         -5    1    3    3    0  502  0.64249616381E+02 -0.14497126790E+02  0.14318323366E+03  0.15766131641E+03  0.41800000000E+01 0.  1.
        -11    1    4    4    0    0 -0.51575356718E+02  0.50722085048E+00  0.17215839649E+03  0.17971863614E+03  0.00000000000E+00 0.  1.
         11    1    4    4    0    0  0.34548997676E+02 -0.26697475318E+02  0.15613600048E+03  0.16212599753E+03  0.00000000000E+00 0. -1.
</event>
<event>
 8    1  0.6965441E-009  0.9663719E+02  0.7561462E-02  0.1287531E+00
          1   -1    0    0  501    0  0.00000000000E+00  0.00000000000E+00  0.38283767701E+03  0.38283767701E+03  0.00000000000E+00 0. -1.
         -1   -1    0    0    0  501 -0.00000000000E+00 -0.00000000000E+00 -0.37274047525E+02  0.37274047525E+02  0.00000000000E+00 0.  1.
         25    2    1    2    0    0  0.14690659468E+02  0.17110635530E+02  0.26568248187E+03  0.29452194196E+03  0.12508958308E+03 0.  0.
         23    2    1    2    0    0 -0.14690659468E+02 -0.17110635530E+02  0.79881147612E+02  0.12558978258E+03  0.94250763500E+02 0.  0.
          5    1    3    3  502    0  0.67932741867E+02  0.23203087367E+01  0.18029916645E+03  0.19273168674E+03  0.41800000000E+01 0. -1.
         -5    1    3    3    0  502 -0.53242082399E+02  0.14790326793E+02  0.85383315421E+02  0.10179025522E+03  0.41800000000E+01 0. -1.
        -11    1    4    4    0    0 -0.40399159252E+02 -0.31971461914E+01 -0.26737587346E-02  0.40525471239E+02  0.00000000000E+00 0.  1.
         11    1    4    4    0    0  0.25708499784E+02 -0.13913489338E+02  0.79883821371E+02  0.85064311339E+02  0.00000000000E+00 0. -1.
</event>
<event>
 8    1  0.6965441E-009  0.9731240E+02  0.7561462E-02  0.1286051E+00
          2   -1    0    0  501    0  0.00000000000E+00  0.00000000000E+00  0.93266803597E+02  0.93266803597E+02  0.00000000000E+00 0. -1.
         -2   -1    0    0    0  501 -0.00000000000E+00 -0.00000000000E+00 -0.11761891459E+03  0.11761891459E+03  0.00000000000E+00 0.  1.
         25    2    1    2    0    0  0.37789126199E+02  0.50112625359E+00 -0.40995394754E+02  0.13695382976E+03  0.12508980737E+03 0.  0.
         23    2    1    2    0    0 -0.37789126199E+02 -0.50112625359E+00  0.16643283759E+02  0.73931888427E+02  0.61324188096E+02 0.  0.
          5    1    3    3  502    0 -0.67862721490E+01  0.53557720139E+02  0.38865718922E+01  0.54286837422E+02  0.41800000000E+01 0.  1.
         -5    1    3    3    0  502  0.44575398348E+02 -0.53056593885E+02 -0.44881966646E+02  0.82666992340E+02  0.41800000000E+01 0.  1.
        -11    1    4    4    0    0 -0.47921605866E+02  0.16987320851E+02  0.63146562974E+01  0.51234014703E+02  0.00000000000E+00 0.  1.
         11    1    4    4    0    0  0.10132479667E+02 -0.17488447104E+02  0.10328627462E+02  0.22697873724E+02  0.00000000000E+00 0. -1.
</event>
<event>
 8    1  0.6965441E-009  0.2683153E+03  0.7561462E-02  0.1102248E+00
         -2   -1    0    0    0  501 -0.00000000000E+00  0.00000000000E+00  0.32334445685E+03  0.32334445685E+03  0.00000000000E+00 0.  1.
          2   -1    0    0  501    0  0.00000000000E+00 -0.00000000000E+00 -0.22821903866E+03  0.22821903866E+03  0.00000000000E+00 0. -1.
         25    2    1    2    0    0  0.14655014984E+02 -0.24804406453E+03  0.61093117748E+02  0.28481471728E+03  0.12508567755E+03 0.  0.
         23    2    1    2    0    0 -0.14655014984E+02  0.24804406453E+03  0.34032300442E+02  0.26674877824E+03  0.90863005697E+02 0.  0.
          5    1    3    3  502    0  0.67995665440E+02 -0.10277667321E+03  0.23830588306E+02  0.12558592442E+03  0.41800000000E+01 0. -1.
         -5    1    3    3    0  502 -0.53340650456E+02 -0.14526739132E+03  0.37262529442E+02  0.15922879285E+03  0.41800000000E+01 0. -1.
        -11    1    4    4    0    0  0.20983048851E+02  0.18428700394E+03 -0.15885271967E+01  0.18548453191E+03  0.00000000000E+00 0.  1.
         11    1    4    4    0    0 -0.35638063835E+02  0.63757060596E+02  0.35620827639E+02  0.81264246329E+02  0.00000000000E+00 0. -1.
</event>
<event>
 8    1  0.6965441E-009  0.9708213E+02  0.7561462E-02  0.1286554E+00
         -1   -1    0    0    0  501 -0.00000000000E+00  0.00000000000E+00  0.23252877559E+02  0.23252877559E+02  0.00000000000E+00 0.  1.
          1   -1    0    0  501    0  0.00000000000E+00 -0.00000000000E+00 -0.71260933007E+03  0.71260933007E+03  0.00000000000E+00 0. -1.
         25    2    1    2    0    0  0.14289459752E+02  0.44470241660E+02 -0.53026583863E+03  0.54681955724E+03  0.12509187625E+03 0.  0.
         23    2    1    2    0    0 -0.14289459752E+02 -0.44470241660E+02 -0.15909061388E+03  0.18904265039E+03  0.90804786160E+02 0.  0.
          5    1    3    3  502    0  0.42732611286E+02 -0.33095008030E+01 -0.42950273130E+03  0.43165622602E+03  0.41800000000E+01 0. -1.
         -5    1    3    3    0  502 -0.28443151534E+02  0.47779742463E+02 -0.10076310733E+03  0.11516333122E+03  0.41800000000E+01 0. -1.
        -11    1    4    4    0    0  0.96750109213E+01 -0.63812658339E+02 -0.72133058342E+02  0.96792764742E+02  0.00000000000E+00 0.  1.
         11    1    4    4    0    0 -0.23964470673E+02  0.19342416679E+02 -0.86957555534E+02  0.92249885648E+02  0.00000000000E+00 0. -1.
</event>
<event>
 8    1  0.6965441E-009  0.6486193E+02  0.7561462E-02  0.1378492E+00
          2   -1    0    0  501    0  0.00000000000E+00  0.00000000000E+00  0.16533486131E+04  0.16533486131E+04  0.00000000000E+00 0. -1.
         -2   -1    0    0    0  501 -0.00000000000E+00 -0.00000000000E+00 -0.14597490865E+02  0.14597490865E+02  0.00000000000E+00 0.  1.
         25    2    1    2    0    0  0.20245648879E+02 -0.18341866632E+02  0.15280354817E+04  0.15333902328E+04  0.12508741840E+03 0.  0.
         23    2    1    2    0    0 -0.20245648879E+02  0.18341866632E+02  0.11071564059E+03  0.13455587125E+03  0.71421418687E+02 0.  0.
          5    1    3    3  502    0 -0.25300074265E+01  0.18142108159E+02  0.34954616642E+02  0.39684186405E+02  0.41800000000E+01 0.  1.
         -5    1    3    3    0  502  0.22775656306E+02 -0.36483974791E+02  0.14930808650E+04  0.14937060464E+04  0.41800000000E+01 0.  1.
        -11    1    4    4    0    0 -0.39983564994E+02 -0.11266814980E+01  0.32391959900E+02  0.51470321031E+02  0.00000000000E+00 0.  1.
         11    1    4    4    0    0  0.19737916115E+02  0.19468548130E+02  0.78323680692E+02  0.83085550223E+02  0.00000000000E+00 0. -1.
</event>
<event>
 8    1  0.6965441E-009  0.1026404E+03  0.7561462E-02  0.1274839E+00
          2   -1    0    0  501    0  0.00000000000E+00  0.00000000000E+00  0.34989755912E+03  0.34989755912E+03  0.00000000000E+00 0. -1.
         -2   -1    0    0    0  501 -0.00000000000E+00 -0.00000000000E+00 -0.40955297822E+02  0.40955297822E+02  0.00000000000E+00 0.  1.
         25    2    1    2    0    0 -0.40055327513E+02 -0.89540332339E+01  0.22227758982E+03  0.25833947672E+03  0.12508938532E+03 0.  0.
         23    2    1    2    0    0  0.40055327513E+02  0.89540332339E+01  0.86664671479E+02  0.13251338023E+03  0.91457239646E+02 0.  0.
          5    1    3    3  502    0 -0.11633190056E+02  0.44239858171E+02  0.17685093105E+03  0.18271896556E+03  0.41800000000E+01 0. -1.
         -5    1    3    3    0  502 -0.28422137457E+02 -0.53193891405E+02  0.45426658772E+02  0.75620511157E+02  0.41800000000E+01 0. -1.
        -11    1    4    4    0    0  0.67816253106E+02 -0.46507550888E+01  0.49051796943E+02  0.83825726907E+02  0.00000000000E+00 0.  1.
         11    1    4    4    0    0 -0.27760925592E+02  0.13604788323E+02  0.37612874537E+02  0.48687653322E+02  0.00000000000E+00 0. -1.
</event>
<event>
 8    1  0.6965441E-009  0.1176895E+03  0.7561462E-02  0.1246958E+00
         -1   -1    0    0    0  501 -0.00000000000E+00  0.00000000000E+00  0.16279556044E+03  0.16279556044E+03  0.00000000000E+00 0.  1.
          1   -1    0    0  501    0  0.00000000000E+00 -0.00000000000E+00 -0.10941832667E+03  0.10941832667E+03  0.00000000000E+00 0. -1.
         25    2    1    2    0    0 -0.50297274049E+02  0.70581552711E+02  0.33097153020E+02  0.15573684031E+03  0.12508785126E+03 0.  0.
         23    2    1    2    0    0  0.50297274049E+02 -0.70581552711E+02  0.20280080747E+02  0.11647704679E+03  0.75126888620E+02 0.  0.
          5    1    3    3  502    0 -0.67637833830E+01  0.94711480644E+02  0.43804295646E+02  0.10465324672E+03  0.41800000000E+01 0.  1.
         -5    1    3    3    0  502 -0.43533490666E+02 -0.24129927933E+02 -0.10707142626E+02  0.51083593598E+02  0.41800000000E+01 0.  1.
        -11    1    4    4    0    0  0.24007359376E+02 -0.54534782648E+02 -0.22560903253E+02  0.63713343801E+02  0.00000000000E+00 0. -1.
         11    1    4    4    0    0  0.26289914674E+02 -0.16046770063E+02  0.42840984000E+02  0.52763702989E+02  0.00000000000E+00 0.  1.
</event>
<event>
 8    1  0.6965441E-009  0.1093457E+03  0.7561462E-02  0.1261786E+00
          2   -1    0    0  501    0  0.00000000000E+00  0.00000000000E+00  0.17729491688E+03  0.17729491688E+03  0.00000000000E+00 0. -1.
         -2   -1    0    0    0  501 -0.00000000000E+00 -0.00000000000E+00 -0.11330072830E+03  0.11330072830E+03  0.00000000000E+00 0.  1.
         25    2    1    2    0    0 -0.16590105579E+02  0.62848910469E+02 -0.30967110506E+02  0.14433099880E+03  0.12508900084E+03 0.  0.
         23    2    1    2    0    0  0.16590105579E+02 -0.62848910469E+02  0.94961299086E+02  0.14626464638E+03  0.90280016091E+02 0.  0.
          5    1    3    3  502    0  0.26402170566E+02  0.87110744893E+02 -0.15487872674E+02  0.92426744432E+02  0.41800000000E+01 0.  1.
         -5    1    3    3    0  502 -0.42992276145E+02 -0.24261834424E+02 -0.15479237832E+02  0.51904254369E+02  0.41800000000E+01 0.  1.
        -11    1    4    4    0    0 -0.13795267472E+02 -0.31412921320E+02 -0.72756927246E+01  0.35071594419E+02  0.00000000000E+00 0.  1.
         11    1    4    4    0    0  0.30385373051E+02 -0.31435989149E+02  0.10223699181E+03  0.11119305196E+03  0.00000000000E+00 0. -1.
</event>
<event>
 8    1  0.6965441E-009  0.1121369E+03  0.7561462E-02  0.1256663E+00
         -1   -1    0    0    0  501 -0.00000000000E+00  0.00000000000E+00  0.36683976689E+02  0.36683976689E+02  0.00000000000E+00 0.  1.
          1   -1    0    0  501    0  0.00000000000E+00 -0.00000000000E+00 -0.51718883345E+03  0.51718883345E+03  0.00000000000E+00 0. -1.
         25    2    1    2    0    0  0.70225606319E+02 -0.20618251749E+02 -0.35487451833E+03  0.38332774210E+03  0.12508991172E+03 0.  0.
         23    2    1    2    0    0 -0.70225606319E+02  0.20618251749E+02 -0.12563033843E+03  0.17054506804E+03  0.89139722970E+02 0.  0.
          5    1    3    3  502    0 -0.33398591661E+02  0.12725077922E+02 -0.86458602167E+02  0.93648042274E+02  0.41800000000E+01 0. -1.
         -5    1    3    3    0  502  0.10362419798E+03 -0.33343329671E+02 -0.26841591616E+03  0.28967969982E+03  0.41800000000E+01 0. -1.
        -11    1    4    4    0    0 -0.12916190471E+02  0.17775821773E+02 -0.10844253542E+03  0.11064624397E+03  0.00000000000E+00 0. -1.
         11    1    4    4    0    0 -0.57309415848E+02  0.28424299757E+01 -0.17187803010E+02  0.59898824073E+02  0.00000000000E+00 0.  1.
</event>
<event>
 8    1  0.6965441E-009  0.9325582E+02  0.7561462E-02  0.1295153E+00
          1   -1    0    0  501    0  0.00000000000E+00  0.00000000000E+00  0.46519537351E+02  0.46519537351E+02  0.00000000000E+00 0. -1.
         -1   -1    0    0    0  501 -0.00000000000E+00 -0.00000000000E+00 -0.26258518646E+03  0.26258518646E+03  0.00000000000E+00 0.  1.
         25    2    1    2    0    0  0.16686544079E+02 -0.14650249186E+01 -0.13313562036E+03  0.18344651292E+03  0.12508773978E+03 0.  0.
         23    2    1    2    0    0 -0.16686544079E+02  0.14650249186E+01 -0.82930028758E+02  0.12565821089E+03  0.92908606942E+02 0.  0.
          5    1    3    3  502    0 -0.42944289766E+02  0.14872444455E+02 -0.10674407561E+03  0.11609122148E+03  0.41800000000E+01 0.  1.
         -5    1    3    3    0  502  0.59630833845E+02 -0.16337469374E+02 -0.26391544744E+02  0.67355291437E+02  0.41800000000E+01 0.  1.
        -11    1    4    4    0    0 -0.88070699049E+01 -0.37822182256E+02 -0.65176886142E+01  0.39377178870E+02  0.00000000000E+00 0. -1.
         11    1    4    4    0    0 -0.78794741737E+01  0.39287207174E+02 -0.76412340144E+02  0.86281032024E+02  0.00000000000E+00 0.  1.
</event>
<event>
 8    1  0.6965441E-009  0.1451981E+03  0.7561462E-02  0.1206501E+00
         -1   -1    0    0    0  501 -0.00000000000E+00  0.00000000000E+00  0.34827248552E+02  0.34827248552E+02  0.00000000000E+00 0.  1.
          1   -1    0    0  501    0  0.00000000000E+00 -0.00000000000E+00 -0.88905545151E+03  0.88905545151E+03  0.00000000000E+00 0. -1.
         25    2    1    2    0    0  0.22959356809E+02 -0.13201305400E+03 -0.35963051845E+03  0.40365362811E+03  0.12509022023E+03 0.  0.
         23    2    1    2    0    0 -0.22959356809E+02  0.13201305400E+03 -0.49459768451E+03  0.52022907195E+03  0.89759898014E+02 0.  0.
          5    1    3    3  502    0  0.29210276495E+02 -0.13431043101E+03 -0.19376778662E+03  0.23760462888E+03  0.41800000000E+01 0.  1.
         -5    1    3    3    0  502 -0.62509196852E+01  0.22973770127E+01 -0.16586273183E+03  0.16604899924E+03  0.41800000000E+01 0.  1.
        -11    1    4    4    0    0 -0.28024703830E+02  0.24025547479E+02 -0.47009378851E+02  0.59770332577E+02  0.00000000000E+00 0.  1.
         11    1    4    4    0    0  0.50653470210E+01  0.10798750652E+03 -0.44758830566E+03  0.46045873937E+03  0.00000000000E+00 0. -1.
</event>
<event>
 8    1  0.6965441E-009  0.1273122E+03  0.7561462E-02  0.1231499E+00
          1   -1    0    0  501    0  0.00000000000E+00  0.00000000000E+00  0.39687896180E+02  0.39687896180E+02  0.00000000000E+00 0. -1.
         -1   -1    0    0    0  501 -0.00000000000E+00 -0.00000000000E+00 -0.57055131576E+03  0.57055131576E+03  0.00000000000E+00 0.  1.
         25    2    1    2    0    0  0.88381943484E+01  0.88604107948E+02 -0.25644369393E+03  0.29889735805E+03  0.12508981120E+03 0.  0.
         23    2    1    2    0    0 -0.88381943484E+01 -0.88604107948E+02 -0.27441972565E+03  0.31134185389E+03  0.11704171280E+03 0.  0.
          5    1    3    3  502    0  0.18719709214E+02  0.96610482249E+02 -0.26520036394E+03  0.28290054477E+03  0.41800000000E+01 0. -1.
         -5    1    3    3    0  502 -0.98815148658E+01 -0.80063743009E+01  0.87566700116E+01  0.15996813282E+02  0.41800000000E+01 0. -1.
        -11    1    4    4    0    0 -0.28365518244E+02 -0.11010268990E+03 -0.18323761971E+03  0.21564607630E+03  0.00000000000E+00 0.  1.
         11    1    4    4    0    0  0.19527323895E+02  0.21498581952E+02 -0.91182105940E+02  0.95695777588E+02  0.00000000000E+00 0. -1.
</event>
<event>
 8    1  0.6965441E-009  0.9270383E+02  0.7561462E-02  0.1296433E+00
          1   -1    0    0  501    0  0.00000000000E+00  0.00000000000E+00  0.10017713148E+03  0.10017713148E+03  0.00000000000E+00 0. -1.
         -1   -1    0    0    0  501 -0.00000000000E+00 -0.00000000000E+00 -0.14434204624E+03  0.14434204624E+03  0.00000000000E+00 0.  1.
         25    2    1    2    0    0  0.23331395673E+02 -0.12123479581E+02 -0.71304989836E+02  0.14636769404E+03  0.12509103685E+03 0.  0.
         23    2    1    2    0    0 -0.23331395673E+02  0.12123479581E+02  0.27140075073E+02  0.98151483686E+02  0.90585855925E+02 0.  0.
          5    1    3    3  502    0  0.58596086573E+02 -0.48598086826E+02 -0.35310424201E+02  0.84021270296E+02  0.41800000000E+01 0. -1.
         -5    1    3    3    0  502 -0.35264690900E+02  0.36474607245E+02 -0.35994565634E+02  0.62346423740E+02  0.41800000000E+01 0. -1.
        -11    1    4    4    0    0 -0.39122966876E+02  0.13555747255E+01  0.53065308769E+02  0.65942180088E+02  0.00000000000E+00 0. -1.
         11    1    4    4    0    0  0.15791571203E+02  0.10767904856E+02 -0.25925233697E+02  0.32209303598E+02  0.00000000000E+00 0.  1.
</event>
<event>
 8    1  0.6965441E-009  0.9651768E+02  0.7561462E-02  0.1287794E+00
         -3   -1    0    0    0  501 -0.00000000000E+00  0.00000000000E+00  0.12300811432E+03  0.12300811432E+03  0.00000000000E+00 0.  1.
          3   -1    0    0  501    0  0.00000000000E+00 -0.00000000000E+00 -0.22096387293E+03  0.22096387293E+03  0.00000000000E+00 0. -1.
         25    2    1    2    0    0  0.48682777063E+01  0.72356438382E+02 -0.15585619638E+03  0.21259631200E+03  0.12508750386E+03 0.  0.
         23    2    1    2    0    0 -0.48682777063E+01 -0.72356438382E+02  0.57900437774E+02  0.13137567524E+03  0.92994371055E+02 0.  0.
          5    1    3    3  502    0 -0.43352723362E+02  0.30233965112E+02 -0.10975788809E+02  0.54143250819E+02  0.41800000000E+01 0. -1.
         -5    1    3    3    0  502  0.48221001068E+02  0.42122473270E+02 -0.14488040758E+03  0.15845306118E+03  0.41800000000E+01 0. -1.
        -11    1    4    4    0    0  0.73476409734E+01 -0.48464325311E+02 -0.16945734950E+02  0.51864598608E+02  0.00000000000E+00 0. -1.
         11    1    4    4    0    0 -0.12215918680E+02 -0.23892113071E+02  0.74846172724E+02  0.79511076635E+02  0.00000000000E+00 0.  1.
</event>
<event>
 8    1  0.6965441E-009  0.1296317E+03  0.7561462E-02  0.1228003E+00
         -3   -1    0    0    0  501 -0.00000000000E+00  0.00000000000E+00  0.12294328669E+04  0.12294328669E+04  0.00000000000E+00 0.  1.
          3   -1    0    0  501    0  0.00000000000E+00 -0.00000000000E+00 -0.14794163807E+02  0.14794163807E+02  0.00000000000E+00 0. -1.
         25    2    1    2    0    0  0.39559682452E+02  0.70358371004E+02  0.61622372219E+03  0.63395041211E+03  0.12508469280E+03 0.  0.
         23    2    1    2    0    0 -0.39559682452E+02 -0.70358371004E+02  0.59841498095E+03  0.61027661865E+03  0.88440901163E+02 0.  0.
          5    1    3    3  502    0 -0.51964489418E+01 -0.29607821658E+02  0.24532223345E+03  0.24719242870E+03  0.41800000000E+01 0.  1.
         -5    1    3    3    0  502  0.44756131394E+02  0.99966192662E+02  0.37090148874E+03  0.38675798340E+03  0.41800000000E+01 0.  1.
        -11    1    4    4    0    0 -0.36905805827E+02  0.10526654212E+02  0.21744592388E+03  0.22080665471E+03  0.00000000000E+00 0.  1.
         11    1    4    4    0    0 -0.26538766250E+01 -0.80885025216E+02  0.38096905707E+03  0.38946996394E+03  0.00000000000E+00 0. -1.
</event>
<event>
 8    1  0.6965441E-009  0.1102367E+03  0.7561462E-02  0.1260132E+00
         -2   -1    0    0    0  501 -0.00000000000E+00  0.00000000000E+00  0.96691800216E+02  0.96691800216E+02  0.00000000000E+00 0.  1.
          2   -1    0    0  501    0  0.00000000000E+00 -0.00000000000E+00 -0.22662592718E+03  0.22662592718E+03  0.00000000000E+00 0. -1.
         25    2    1    2    0    0 -0.51115211209E+02 -0.76749730861E+02 -0.57348014692E+02  0.16565141884E+03  0.12509321233E+03 0.  0.
         23    2    1    2    0    0  0.51115211209E+02  0.76749730861E+02 -0.72586112267E+02  0.15766630855E+03  0.10529309167E+03 0.  0.
          5    1    3    3  502    0 -0.67601388698E+01 -0.80860309060E+01  0.38194774762E+02  0.39842145932E+02  0.41800000000E+01 0. -1.
         -5    1    3    3    0  502 -0.44355072339E+02 -0.68663699955E+02 -0.95542789454E+02  0.12580927291E+03  0.41800000000E+01 0. -1.
        -11    1    4    4    0    0  0.75638518510E+02  0.48394105999E+02 -0.18215826256E+02  0.91624185148E+02  0.00000000000E+00 0.  1.
         11    1    4    4    0    0 -0.24523307302E+02  0.28355624861E+02 -0.54370286011E+02  0.66042123400E+02  0.00000000000E+00 0. -1.
</event>
<event>
 8    1  0.6965441E-009  0.9080731E+02  0.7561462E-02  0.1300908E+00
         -1   -1    0    0    0  501 -0.00000000000E+00  0.00000000000E+00  0.18436432680E+02  0.18436432680E+02  0.00000000000E+00 0.  1.
          1   -1    0    0  501    0  0.00000000000E+00 -0.00000000000E+00 -0.71686669132E+03  0.71686669132E+03  0.00000000000E+00 0. -1.
         25    2    1    2    0    0 -0.13748120336E+02 -0.34868311340E+02 -0.43619161321E+03  0.45531870300E+03  0.12508872020E+03 0.  0.
         23    2    1    2    0    0  0.13748120336E+02  0.34868311340E+02 -0.26223864543E+03  0.27998442100E+03  0.90649649181E+02 0.  0.
          5    1    3    3  502    0  0.26816970243E+02  0.15257073371E+02 -0.27471672401E+02  0.41522203282E+02  0.41800000000E+01 0.  1.
         -5    1    3    3    0  502 -0.40565090580E+02 -0.50125384710E+02 -0.40871994081E+03  0.41379649972E+03  0.41800000000E+01 0.  1.
        -11    1    4    4    0    0  0.11239740716E+02 -0.24229670619E+02 -0.15704951875E+03  0.15930461402E+03  0.00000000000E+00 0. -1.
         11    1    4    4    0    0  0.25083796209E+01  0.59097981958E+02 -0.10518912668E+03  0.12067980698E+03  0.00000000000E+00 0.  1.
</event>
<event>
 8    1  0.6965441E-009  0.6449109E+02  0.7561462E-02  0.1379896E+00
         -1   -1    0    0    0  501 -0.00000000000E+00  0.00000000000E+00  0.21464913144E+03  0.21464913144E+03  0.00000000000E+00 0.  1.
          1   -1    0    0  501    0  0.00000000000E+00 -0.00000000000E+00 -0.70632696288E+02  0.70632696288E+02  0.00000000000E+00 0. -1.
         25    2    1    2    0    0  0.12040567085E+02 -0.12538239558E+02  0.14599167263E+03  0.19303586523E+03  0.12508834510E+03 0.  0.
         23    2    1    2    0    0 -0.12040567085E+02  0.12538239558E+02 -0.19752374773E+01  0.92245962498E+02  0.90571702684E+02 0.  0.
          5    1    3    3  502    0  0.22641470794E+02 -0.10301549961E+02  0.16707373776E+03  0.16896705117E+03  0.41800000000E+01 0.  1.
         -5    1    3    3    0  502 -0.10600903708E+02 -0.22366895969E+01 -0.21082065135E+02  0.24068814058E+02  0.41800000000E+01 0.  1.
        -11    1    4    4    0    0 -0.32286098500E+02 -0.30606226450E+02  0.95295324814E+00  0.44497655823E+02  0.00000000000E+00 0. -1.
         11    1    4    4    0    0  0.20245531415E+02  0.43144466008E+02 -0.29281907254E+01  0.47748306675E+02  0.00000000000E+00 0.  1.
</event>
<event>
 8    1  0.6965441E-009  0.6105797E+02  0.7561462E-02  0.1393445E+00
         -1   -1    0    0    0  501 -0.00000000000E+00  0.00000000000E+00  0.53550226938E+02  0.53550226938E+02  0.00000000000E+00 0.  1.
          1   -1    0    0  501    0  0.00000000000E+00 -0.00000000000E+00 -0.23460062052E+03  0.23460062052E+03  0.00000000000E+00 0. -1.
         25    2    1    2    0    0  0.12644297318E+02  0.20981313024E+02 -0.11370894754E+03  0.17081642230E+03  0.12509369139E+03 0.  0.
         23    2    1    2    0    0 -0.12644297318E+02 -0.20981313024E+02 -0.67341446043E+02  0.11733442516E+03  0.92910727158E+02 0.  0.
          5    1    3    3  502    0  0.10023522780E+02  0.43971047945E+01 -0.13937294554E+03  0.13986456266E+03  0.41800000000E+01 0.  1.
         -5    1    3    3    0  502  0.26207745382E+01  0.16584208229E+02  0.25663998002E+02  0.30951859641E+02  0.41800000000E+01 0.  1.
        -11    1    4    4    0    0 -0.79280097980E+01  0.35522562426E+02 -0.12585839435E+02  0.38511155980E+02  0.00000000000E+00 0.  1.
         11    1    4    4    0    0 -0.47162875199E+01 -0.56503875449E+02 -0.54755606608E+02  0.78823269177E+02  0.00000000000E+00 0. -1.
</event>
<event>
 8    1  0.6965441E-009  0.1186940E+03  0.7561462E-02  0.1245267E+00
         -1   -1    0    0    0  501 -0.00000000000E+00  0.00000000000E+00  0.33401801976E+02  0.33401801976E+02  0.00000000000E+00 0.  1.
          1   -1    0    0  501    0  0.00000000000E+00 -0.00000000000E+00 -0.52697711333E+03  0.52697711333E+03  0.00000000000E+00 0. -1.
         25    2    1    2    0    0 -0.47539757067E+02 -0.46995972488E+02 -0.32137503160E+03  0.35127756410E+03  0.12508143817E+03 0.  0.
         23    2    1    2    0    0  0.47539757067E+02  0.46995972488E+02 -0.17220027975E+03  0.20910135120E+03  0.97988717697E+02 0.  0.
          5    1    3    3  502    0  0.32693058856E+00 -0.72991412212E+02 -0.25519939400E+03  0.26546573459E+03  0.41800000000E+01 0. -1.
         -5    1    3    3    0  502 -0.47866687655E+02  0.25995439724E+02 -0.66175637596E+02  0.85811829516E+02  0.41800000000E+01 0. -1.
        -11    1    4    4    0    0  0.29305528372E+02  0.72554755716E+02 -0.80890541041E+02  0.11254459649E+03  0.00000000000E+00 0.  1.
         11    1    4    4    0    0  0.18234228695E+02 -0.25558783228E+02 -0.91309738714E+02  0.96556754711E+02  0.00000000000E+00 0. -1.
</event>
<event>
 8    1  0.6965441E-009  0.8592013E+02  0.7561462E-02  0.1313044E+00
          1   -1    0    0  501    0  0.00000000000E+00  0.00000000000E+00  0.32930338091E+03  0.32930338091E+03  0.00000000000E+00 0. -1.
         -1   -1    0    0    0  501 -0.00000000000E+00 -0.00000000000E+00 -0.40176904903E+02  0.40176904903E+02  0.00000000000E+00 0.  1.
         25    2    1    2    0    0  0.78270430712E+01  0.88151581861E+01  0.10596372096E+03  0.16435830675E+03  0.12508546367E+03 0.  0.
         23    2    1    2    0    0 -0.78270430712E+01 -0.88151581861E+01  0.18316275504E+03  0.20512197906E+03  0.91583087097E+02 0.  0.
          5    1    3    3  502    0  0.44577749477E+02  0.44911176175E+02  0.90321135143E+02  0.11036108620E+03  0.41800000000E+01 0. -1.
         -5    1    3    3    0  502 -0.36750706406E+02 -0.36096017989E+02  0.15642585821E+02  0.53997220550E+02  0.41800000000E+01 0. -1.
        -11    1    4    4    0    0 -0.23094901810E+02 -0.25311530141E+02  0.17901537868E+03  0.18226506481E+03  0.00000000000E+00 0. -1.
         11    1    4    4    0    0  0.15267858739E+02  0.16496371954E+02  0.41473763594E+01  0.22856914245E+02  0.00000000000E+00 0.  1.
</event>
<event>
 8    1  0.6965441E-009  0.8087047E+02  0.7561462E-02  0.1326599E+00
          2   -1    0    0  501    0  0.00000000000E+00  0.00000000000E+00  0.47318971527E+03  0.47318971527E+03  0.00000000000E+00 0. -1.
         -2   -1    0    0    0  501 -0.00000000000E+00 -0.00000000000E+00 -0.27879034885E+02  0.27879034885E+02  0.00000000000E+00 0.  1.
         25    2    1    2    0    0 -0.10297148133E+02 -0.37307988001E+02  0.25883591553E+03  0.29007153476E+03  0.12509015500E+03 0.  0.
         23    2    1    2    0    0  0.10297148133E+02  0.37307988001E+02  0.18647476486E+03  0.21099721540E+03  0.90824389621E+02 0.  0.
          5    1    3    3  502    0  0.16141250493E+02 -0.39828789141E+02  0.25960900443E+03  0.26317518878E+03  0.41800000000E+01 0. -1.
         -5    1    3    3    0  502 -0.26438398626E+02  0.25208011399E+01 -0.77308889490E+00  0.26896345973E+02  0.41800000000E+01 0. -1.
        -11    1    4    4    0    0  0.83885897927E+01 -0.26523100471E+02  0.25183194113E+02  0.37523813280E+02  0.00000000000E+00 0. -1.
         11    1    4    4    0    0  0.19085583399E+01  0.63831088472E+02  0.16129157074E+03  0.17347340212E+03  0.00000000000E+00 0.  1.
</event>
<event>
 8    1  0.6965441E-009  0.8461534E+02  0.7561462E-02  0.1316442E+00
         -3   -1    0    0    0  501 -0.00000000000E+00  0.00000000000E+00  0.42845667821E+03  0.42845667821E+03  0.00000000000E+00 0.  1.
          3   -1    0    0  501    0  0.00000000000E+00 -0.00000000000E+00 -0.37279037644E+02  0.37279037644E+02  0.00000000000E+00 0. -1.
         25    2    1    2    0    0  0.30689026034E+02  0.46880034791E+02  0.15742643180E+03  0.20873602600E+03  0.12509233845E+03 0.  0.
         23    2    1    2    0    0 -0.30689026034E+02 -0.46880034791E+02  0.23375120876E+03  0.25699968985E+03  0.90937665499E+02 0.  0.
          5    1    3    3  502    0  0.13351737374E+02  0.53610105422E+02  0.17453771478E+03  0.18312072131E+03  0.41800000000E+01 0.  1.
         -5    1    3    3    0  502  0.17337288660E+02 -0.67300706310E+01 -0.17111282979E+02  0.25615304682E+02  0.41800000000E+01 0.  1.
        -11    1    4    4    0    0  0.10671159923E+02  0.16160554791E+02  0.12003226754E+02  0.22784087381E+02  0.00000000000E+00 0. -1.
         11    1    4    4    0    0 -0.41360185957E+02 -0.63040589582E+02  0.22174798201E+03  0.23421560247E+03  0.00000000000E+00 0.  1.
</event>
<event>
 8    1  0.6965441E-009  0.1085437E+03  0.7561462E-02  0.1263291E+00
          2   -1    0    0  501    0  0.00000000000E+00  0.00000000000E+00  0.16799684865E+03  0.16799684865E+03  0.00000000000E+00 0.  1.
         -2   -1    0    0    0  501 -0.00000000000E+00 -0.00000000000E+00 -0.97219535093E+02  0.97219535093E+02  0.00000000000E+00 0. -1.
         25    2    1    2    0    0  0.27139952644E+02 -0.20235410454E+02  0.96208038732E+02  0.16140992086E+03  0.12510446422E+03 0.  0.
         23    2    1    2    0    0 -0.27139952644E+02  0.20235410454E+02 -0.25430725179E+02  0.10380646288E+03  0.94778748077E+02 0.  0.
          5    1    3    3  502    0 -0.61373292801E+01  0.49295650154E+02  0.22567925582E+02  0.54722130806E+02  0.41800000000E+01 0.  1.
         -5    1    3    3    0  502  0.33277281924E+02 -0.69531060608E+02  0.73640113149E+02  0.10668779005E+03  0.41800000000E+01 0.  1.
        -11    1    4    4    0    0 -0.57407927633E+02  0.11673568283E+02  0.65510291468E+01  0.58947929010E+02  0.00000000000E+00 0.  1.
         11    1    4    4    0    0  0.30267974990E+02  0.85618421702E+01 -0.31981754326E+02  0.44858533871E+02  0.00000000000E+00 0. -1.
</event>
<event>
 8    1  0.6965441E-009  0.1003170E+03  0.7561462E-02  0.1279631E+00
         -3   -1    0    0    0  501 -0.00000000000E+00  0.00000000000E+00  0.81279932204E+03  0.81279932204E+03  0.00000000000E+00 0.  1.
          3   -1    0    0  501    0  0.00000000000E+00 -0.00000000000E+00 -0.20047922633E+02  0.20047922633E+02  0.00000000000E+00 0. -1.
         25    2    1    2    0    0 -0.26449135552E+02 -0.27879956633E+01  0.24698914859E+03  0.27813400140E+03  0.12509018156E+03 0.  0.
         23    2    1    2    0    0  0.26449135552E+02  0.27879956633E+01  0.54576225082E+03  0.55471324327E+03  0.95619130695E+02 0.  0.
          5    1    3    3  502    0 -0.49889141569E+02  0.31870327050E+02  0.52770482956E+02  0.79415618515E+02  0.41800000000E+01 0.  1.
         -5    1    3    3    0  502  0.23440006017E+02 -0.34658322713E+02  0.19421866563E+03  0.19871838288E+03  0.41800000000E+01 0.  1.
        -11    1    4    4    0    0  0.38394252471E+02 -0.39624993384E+02  0.29930301365E+03  0.30434610677E+03  0.00000000000E+00 0. -1.
         11    1    4    4    0    0 -0.11945116919E+02  0.42412989047E+02  0.24645923717E+03  0.25036713651E+03  0.00000000000E+00 0.  1.
</event>
<event>
 8    1  0.6965441E-009  0.8000536E+02  0.7561462E-02  0.1329036E+00
          2   -1    0    0  501    0  0.00000000000E+00  0.00000000000E+00  0.29928107647E+03  0.29928107647E+03  0.00000000000E+00 0.  1.
         -2   -1    0    0    0  501 -0.00000000000E+00 -0.00000000000E+00 -0.30692767557E+02  0.30692767557E+02  0.00000000000E+00 0. -1.
         25    2    1    2    0    0  0.36166199724E+01  0.19125691546E+01  0.21189654680E+03  0.24609712488E+03  0.12508761115E+03 0.  0.
         23    2    1    2    0    0 -0.36166199724E+01 -0.19125691546E+01  0.56691762108E+02  0.83876719149E+02  0.61681522870E+02 0.  0.
          5    1    3    3  502    0  0.49692244139E+02  0.37294217020E+02  0.76052995651E+02  0.98293989125E+02  0.41800000000E+01 0. -1.
         -5    1    3    3    0  502 -0.46075624167E+02 -0.35381647865E+02  0.13584355115E+03  0.14780313575E+03  0.41800000000E+01 0. -1.
        -11    1    4    4    0    0  0.12138759297E+02  0.13011693058E+02  0.59398586864E+02  0.62006820229E+02  0.00000000000E+00 0.  1.
         11    1    4    4    0    0 -0.15755379270E+02 -0.14924262213E+02 -0.27068247559E+01  0.21869898920E+02  0.00000000000E+00 0. -1.
</event>
<event>
 8    1  0.6965441E-009  0.1076908E+03  0.7561462E-02  0.1264907E+00
         -1   -1    0    0    0  501 -0.00000000000E+00  0.00000000000E+00  0.17824664110E+03  0.17824664110E+03  0.00000000000E+00 0.  1.
          1   -1    0    0  501    0  0.00000000000E+00 -0.00000000000E+00 -0.82179476673E+02  0.82179476673E+02  0.00000000000E+00 0. -1.
         25    2    1    2    0    0 -0.37662006890E+01 -0.53652043184E+02  0.48246014526E+02  0.14445688735E+03  0.12508952147E+03 0.  0.
         23    2    1    2    0    0  0.37662006890E+01  0.53652043184E+02  0.47821149898E+02  0.11596923042E+03  0.90935548717E+02 0.  0.
          5    1    3    3  502    0 -0.19965585843E+02 -0.91817239545E+02  0.38700207628E+02  0.10170648242E+03  0.41800000000E+01 0. -1.
         -5    1    3    3    0  502  0.16199385154E+02  0.38165196361E+02  0.95458068978E+01  0.42750404933E+02  0.41800000000E+01 0. -1.
        -11    1    4    4    0    0  0.29037415431E+02  0.43757173727E+02  0.65217627560E+02  0.83732912836E+02  0.00000000000E+00 0.  1.
         11    1    4    4    0    0 -0.25271214742E+02  0.98948694566E+01 -0.17396477662E+02  0.32236317581E+02  0.00000000000E+00 0. -1.
</event>
<event>
 8    1  0.6965441E-009  0.1092748E+03  0.7561462E-02  0.1261919E+00
          1   -1    0    0  501    0  0.00000000000E+00  0.00000000000E+00  0.35387940316E+03  0.35387940316E+03  0.00000000000E+00 0. -1.
         -1   -1    0    0    0  501 -0.00000000000E+00 -0.00000000000E+00 -0.58264150465E+02  0.58264150465E+02  0.00000000000E+00 0.  1.
         25    2    1    2    0    0 -0.41261114930E+02  0.89903282604E+01  0.28214374790E+03  0.31150692833E+03  0.12509263092E+03 0.  0.
         23    2    1    2    0    0  0.41261114930E+02 -0.89903282604E+01  0.13471504789E+02  0.10063662529E+03  0.90349008300E+02 0.  0.
          5    1    3    3  502    0 -0.32476167999E+02 -0.51299850580E+02  0.20060718368E+03  0.20963561411E+03  0.41800000000E+01 0. -1.
         -5    1    3    3    0  502 -0.87849469306E+01  0.60290178840E+02  0.81536564220E+02  0.10187131423E+03  0.41800000000E+01 0. -1.
        -11    1    4    4    0    0 -0.25845514811E+02 -0.13878288199E+02 -0.72783372433E+01  0.30225348835E+02  0.00000000000E+00 0. -1.
         11    1    4    4    0    0  0.67106629741E+02  0.48879599388E+01  0.20749842032E+02  0.70411276454E+02  0.00000000000E+00 0.  1.
</event>
<event>
 8    1  0.6965441E-009  0.1262740E+03  0.7561462E-02  0.1233092E+00
         -2   -1    0    0    0  501 -0.00000000000E+00  0.00000000000E+00  0.59802846264E+02  0.59802846264E+02  0.00000000000E+00 0.  1.
          2   -1    0    0  501    0  0.00000000000E+00 -0.00000000000E+00 -0.37568739531E+03  0.37568739531E+03  0.00000000000E+00 0. -1.
         25    2    1    2    0    0  0.44775697913E+02  0.84832255377E+02 -0.22451522672E+03  0.27433157746E+03  0.12509737283E+03 0.  0.
         23    2    1    2    0    0 -0.44775697913E+02 -0.84832255377E+02 -0.91369322330E+02  0.16115866412E+03  0.91773565260E+02 0.  0.
          5    1    3    3  502    0  0.76287315202E+02  0.13824619136E+02 -0.13498745135E+03  0.15572398330E+03  0.41800000000E+01 0.  1.
         -5    1    3    3    0  502 -0.31511617289E+02  0.71007636240E+02 -0.89527775373E+02  0.11860759416E+03  0.41800000000E+01 0.  1.
        -11    1    4    4    0    0 -0.36766463417E+02 -0.54547311634E+02 -0.12967151809E+01  0.65794099347E+02  0.00000000000E+00 0.  1.
         11    1    4    4    0    0 -0.80092344962E+01 -0.30284943743E+02 -0.90072607150E+02  0.95364564768E+02  0.00000000000E+00 0. -1.
</event>
<event>
 8    1  0.6965441E-009  0.9710638E+02  0.7561462E-02  0.1286501E+00
          2   -1    0    0  501    0  0.00000000000E+00  0.00000000000E+00  0.41299530595E+03  0.41299530595E+03  0.00000000000E+00 0.  1.
         -2   -1    0    0    0  501 -0.00000000000E+00 -0.00000000000E+00 -0.29576096048E+02  0.29576096048E+02  0.00000000000E+00 0. -1.
         25    2    1    2    0    0 -0.20270536562E+02 -0.18384635283E+02  0.23278390899E+03  0.26567769871E+03  0.12508957526E+03 0.  0.
         23    2    1    2    0    0  0.20270536562E+02  0.18384635283E+02  0.15063530091E+03  0.17689370329E+03  0.88608684203E+02 0.  0.
          5    1    3    3  502    0 -0.49293899202E+02  0.28635876993E+02  0.18108175716E+03  0.18988938129E+03  0.41800000000E+01 0. -1.
         -5    1    3    3    0  502  0.29023362640E+02 -0.47020512276E+02  0.51702151835E+02  0.75788317424E+02  0.41800000000E+01 0. -1.
        -11    1    4    4    0    0 -0.81293411205E+01 -0.26945769917E+02  0.97559619428E+02  0.10153836736E+03  0.00000000000E+00 0. -1.
         11    1    4    4    0    0  0.28399877682E+02  0.45330405200E+02  0.53075681477E+02  0.75355335924E+02  0.00000000000E+00 0.  1.
</event>
<event>
 8    1  0.6965441E-009  0.3520370E+03  0.7561462E-02  0.1061782E+00
          1   -1    0    0  501    0  0.00000000000E+00  0.00000000000E+00  0.55206957493E+03  0.55206957493E+03  0.00000000000E+00 0. -1.
         -1   -1    0    0    0  501 -0.00000000000E+00 -0.00000000000E+00 -0.32505548907E+03  0.32505548907E+03  0.00000000000E+00 0.  1.
         25    2    1    2    0    0 -0.19608589349E+03 -0.27808726420E+03  0.35034815009E+03  0.50415678973E+03  0.12509211895E+03 0.  0.
         23    2    1    2    0    0  0.19608589349E+03  0.27808726420E+03 -0.12333406423E+03  0.37296827427E+03  0.90065743065E+02 0.  0.
          5    1    3    3  502    0 -0.18973589569E+03 -0.18401292159E+03  0.22425063012E+03  0.34665008717E+03  0.41800000000E+01 0. -1.
         -5    1    3    3    0  502 -0.63499978018E+01 -0.94074342613E+02  0.12609751997E+03  0.15750670256E+03  0.41800000000E+01 0. -1.
        -11    1    4    4    0    0  0.46407888308E+02  0.11487461709E+03 -0.79528923220E+02  0.14722336560E+03  0.00000000000E+00 0.  1.
         11    1    4    4    0    0  0.14967800518E+03  0.16321264711E+03 -0.43805141007E+02  0.22574490867E+03  0.00000000000E+00 0. -1.
</event>
<event>
 8    1  0.6965441E-009  0.3418601E+03  0.7561462E-02  0.1066006E+00
          1   -1    0    0  501    0  0.00000000000E+00  0.00000000000E+00  0.12866248425E+04  0.12866248425E+04  0.00000000000E+00 0. -1.
         -1   -1    0    0    0  501 -0.00000000000E+00 -0.00000000000E+00 -0.10028743729E+03  0.10028743729E+03  0.00000000000E+00 0.  1.
         25    2    1    2    0    0  0.76925817388E+02  0.32626260725E+03  0.73797877969E+03  0.82013712692E+03  0.12508939760E+03 0.  0.
         23    2    1    2    0    0 -0.76925817388E+02 -0.32626260725E+03  0.44835862551E+03  0.56677515288E+03  0.88564928602E+02 0.  0.
          5    1    3    3  502    0  0.34350794688E+02  0.81168490223E+02  0.90017104512E+02  0.12605099129E+03  0.41800000000E+01 0.  1.
         -5    1    3    3    0  502  0.42575022700E+02  0.24509411703E+03  0.64796167518E+03  0.69408613562E+03  0.41800000000E+01 0.  1.
        -11    1    4    4    0    0 -0.61627603489E+02 -0.85286720450E+02  0.13280870016E+03  0.16944006915E+03  0.00000000000E+00 0.  1.
         11    1    4    4    0    0 -0.15298213899E+02 -0.24097588680E+03  0.31554992535E+03  0.39733508373E+03  0.00000000000E+00 0. -1.
</event>
<event>
 8    1  0.6965441E-009  0.1181776E+03  0.7561462E-02  0.1246134E+00
         -2   -1    0    0    0  501 -0.00000000000E+00  0.00000000000E+00  0.15380132280E+02  0.15380132280E+02  0.00000000000E+00 0.  1.
          2   -1    0    0  501    0  0.00000000000E+00 -0.00000000000E+00 -0.10032884308E+04  0.10032884308E+04  0.00000000000E+00 0. -1.
         25    2    1    2    0    0 -0.18192318883E+02  0.55331699172E+02 -0.48418825370E+03  0.50346623095E+03  0.12508966100E+03 0.  0.
         23    2    1    2    0    0  0.18192318883E+02 -0.55331699172E+02 -0.50372004486E+03  0.51520233217E+03  0.91142756580E+02 0.  0.
          5    1    3    3  502    0  0.44078604901E+02  0.50146763253E+02 -0.16236329281E+03  0.17560447752E+03  0.41800000000E+01 0.  1.
         -5    1    3    3    0  502 -0.62270923783E+02  0.51849359196E+01 -0.32182496089E+03  0.32786175343E+03  0.41800000000E+01 0.  1.
        -11    1    4    4    0    0 -0.36370918729E+02 -0.16977390762E+02 -0.15172325397E+03  0.15694273262E+03  0.00000000000E+00 0.  1.
         11    1    4    4    0    0  0.54563237612E+02 -0.38354308411E+02 -0.35199679089E+03  0.35825959955E+03  0.00000000000E+00 0. -1.
</event>
<event>
 8    1  0.6965441E-009  0.9985326E+02  0.7561462E-02  0.1280605E+00
         -2   -1    0    0    0  501 -0.00000000000E+00  0.00000000000E+00  0.33078946316E+03  0.33078946316E+03  0.00000000000E+00 0.  1.
          2   -1    0    0  501    0  0.00000000000E+00 -0.00000000000E+00 -0.46350396346E+02  0.46350396346E+02  0.00000000000E+00 0. -1.
         25    2    1    2    0    0  0.30563933476E+02 -0.67893306739E+01  0.22703082219E+03  0.26109539670E+03  0.12509021911E+03 0.  0.
         23    2    1    2    0    0 -0.30563933476E+02  0.67893306739E+01  0.57408244627E+02  0.11604446280E+03  0.95866374477E+02 0.  0.
          5    1    3    3  502    0 -0.93082261867E+01 -0.60189161678E+02  0.12572105097E+03  0.13975919761E+03  0.41800000000E+01 0.  1.
         -5    1    3    3    0  502  0.39872159663E+02  0.53399831005E+02  0.10130977121E+03  0.12133619909E+03  0.41800000000E+01 0.  1.
        -11    1    4    4    0    0 -0.18267304808E+02 -0.28870261386E+02 -0.12687601843E+02  0.36443952283E+02  0.00000000000E+00 0. -1.
         11    1    4    4    0    0 -0.12296628669E+02  0.35659592060E+02  0.70095846470E+02  0.79600510519E+02  0.00000000000E+00 0.  1.
</event>
<event>
 8    1  0.6965441E-009  0.4058185E+03  0.7561462E-02  0.1041783E+00
         -2   -1    0    0    0  501 -0.00000000000E+00  0.00000000000E+00  0.18121442983E+03  0.18121442983E+03  0.00000000000E+00 0.  1.
          2   -1    0    0  501    0  0.00000000000E+00 -0.00000000000E+00 -0.94974209074E+03  0.94974209074E+03  0.00000000000E+00 0. -1.
         25    2    1    2    0    0 -0.24418005854E+03 -0.30976079914E+03 -0.47817540609E+03  0.63235707858E+03  0.12509237455E+03 0.  0.
         23    2    1    2    0    0  0.24418005854E+03  0.30976079914E+03 -0.29035225481E+03  0.49859944199E+03  0.93387997121E+02 0.  0.
          5    1    3    3  502    0  0.10892845780E+02 -0.39845784096E+02 -0.61324638079E+02  0.74057573785E+02  0.41800000000E+01 0. -1.
         -5    1    3    3    0  502 -0.25507290432E+03 -0.26991501504E+03 -0.41685076801E+03  0.55829950480E+03  0.41800000000E+01 0. -1.
        -11    1    4    4    0    0  0.69513113632E+01  0.35167382189E+02 -0.34626174375E+01  0.36014652841E+02  0.00000000000E+00 0.  1.
         11    1    4    4    0    0  0.23722874718E+03  0.27459341695E+03 -0.28688963737E+03  0.46258478915E+03  0.00000000000E+00 0. -1.
</event>
<event>
 8    1  0.6965441E-009  0.1494850E+03  0.7561462E-02  0.1201107E+00
         -1   -1    0    0    0  501 -0.00000000000E+00  0.00000000000E+00  0.18463984819E+02  0.18463984819E+02  0.00000000000E+00 0.  1.
          1   -1    0    0  501    0  0.00000000000E+00 -0.00000000000E+00 -0.12602979076E+04  0.12602979076E+04  0.00000000000E+00 0. -1.
         25    2    1    2    0    0 -0.40446047983E+02  0.97516565796E+02 -0.63503507870E+03  0.65579088171E+03  0.12508703351E+03 0.  0.
         23    2    1    2    0    0  0.40446047983E+02 -0.97516565796E+02 -0.60679884411E+03  0.62297101073E+03  0.93502297321E+02 0.  0.
          5    1    3    3  502    0 -0.82640969432E+02  0.71799704323E+02 -0.50195440756E+03  0.51377079232E+03  0.41800000000E+01 0.  1.
         -5    1    3    3    0  502  0.42194921448E+02  0.25716861473E+02 -0.13308067114E+03  0.14202008939E+03  0.41800000000E+01 0.  1.
        -11    1    4    4    0    0  0.56700388266E+02 -0.19236193703E+02 -0.30071654627E+03  0.30661931834E+03  0.00000000000E+00 0. -1.
         11    1    4    4    0    0 -0.16254340282E+02 -0.78280372093E+02 -0.30608229784E+03  0.31635169240E+03  0.00000000000E+00 0.  1.
</event>
<event>
 8    1  0.6965441E-009  0.7096338E+02  0.7561462E-02  0.1356847E+00
         -1   -1    0    0    0  501 -0.00000000000E+00  0.00000000000E+00  0.14520951738E+03  0.14520951738E+03  0.00000000000E+00 0.  1.
          1   -1    0    0  501    0  0.00000000000E+00 -0.00000000000E+00 -0.95928413094E+02  0.95928413094E+02  0.00000000000E+00 0. -1.
         25    2    1    2    0    0  0.42700820434E+02 -0.22191974345E+02  0.78381285759E+01  0.13426484376E+03  0.12509903365E+03 0.  0.
         23    2    1    2    0    0 -0.42700820434E+02  0.22191974345E+02  0.41442975706E+02  0.10687308671E+03  0.85956341452E+02 0.  0.
          5    1    3    3  502    0  0.15477704130E+02 -0.18764882568E+02  0.65649853935E+02  0.70135981241E+02  0.41800000000E+01 0. -1.
         -5    1    3    3    0  502  0.27223116304E+02 -0.34270917768E+01 -0.57811725359E+02  0.64128862522E+02  0.41800000000E+01 0. -1.
        -11    1    4    4    0    0 -0.56369376737E+02 -0.74403796474E+01  0.47001763072E+02  0.73770126846E+02  0.00000000000E+00 0.  1.
         11    1    4    4    0    0  0.13668556303E+02  0.29632353993E+02 -0.55587873665E+01  0.33102959861E+02  0.00000000000E+00 0. -1.
</event>
<event>
 8    1  0.6965441E-009  0.1220974E+03  0.7561462E-02  0.1239677E+00
          2   -1    0    0  501    0  0.00000000000E+00  0.00000000000E+00  0.11277824862E+04  0.11277824862E+04  0.00000000000E+00 0. -1.
         -2   -1    0    0    0  501 -0.00000000000E+00 -0.00000000000E+00 -0.18914315092E+02  0.18914315092E+02  0.00000000000E+00 0.  1.
         25    2    1    2    0    0  0.93400084505E+02 -0.37541276366E+02  0.59744639283E+03  0.61864691294E+03  0.12509551295E+03 0.  0.
         23    2    1    2    0    0 -0.93400084505E+02  0.37541276366E+02  0.51142177829E+03  0.52804988837E+03  0.84566696055E+02 0.  0.
          5    1    3    3  502    0  0.47468828901E+02  0.16123874249E+02  0.47156255173E+03  0.47423831734E+03  0.41800000000E+01 0. -1.
         -5    1    3    3    0  502  0.45931255603E+02 -0.53665150615E+02  0.12588384111E+03  0.14440859560E+03  0.41800000000E+01 0. -1.
        -11    1    4    4    0    0 -0.36743183466E+02  0.52915810434E+02  0.35859038221E+03  0.36433117728E+03  0.00000000000E+00 0.  1.
         11    1    4    4    0    0 -0.56656901039E+02 -0.15374534068E+02  0.15283139608E+03  0.16371871109E+03  0.00000000000E+00 0. -1.
</event>
<event>
 8    1  0.6965441E-009  0.1015469E+03  0.7561462E-02  0.1277076E+00
         -1   -1    0    0    0  501 -0.00000000000E+00  0.00000000000E+00  0.88767717844E+01  0.88767717844E+01  0.00000000000E+00 0.  1.
          1   -1    0    0  501    0  0.00000000000E+00 -0.00000000000E+00 -0.18680830480E+04  0.18680830480E+04  0.00000000000E+00 0. -1.
         25    2    1    2    0    0 -0.30768842943E+02  0.13694925575E+02 -0.14509030802E+04  0.14566748515E+04  0.12509037531E+03 0.  0.
         23    2    1    2    0    0  0.30768842943E+02 -0.13694925575E+02 -0.40830319604E+03  0.42028496838E+03  0.93774634414E+02 0.  0.
          5    1    3    3  502    0 -0.39384760283E+02 -0.40124390418E+02 -0.35861195544E+03  0.36301671178E+03  0.41800000000E+01 0.  1.
         -5    1    3    3    0  502  0.86159173398E+01  0.53819315993E+02 -0.10922911248E+04  0.10936581397E+04  0.41800000000E+01 0.  1.
        -11    1    4    4    0    0 -0.28574452645E+02  0.66103770255E+01 -0.65156786406E+02  0.71453504065E+02  0.00000000000E+00 0. -1.
         11    1    4    4    0    0  0.59343295589E+02 -0.20305302600E+02 -0.34314640964E+03  0.34883146431E+03  0.00000000000E+00 0.  1.
</event>
<event>
 8    1  0.6965441E-009  0.1156278E+03  0.7561462E-02  0.1250489E+00
         -1   -1    0    0    0  501 -0.00000000000E+00  0.00000000000E+00  0.47932612187E+02  0.47932612187E+02  0.00000000000E+00 0.  1.
          1   -1    0    0  501    0  0.00000000000E+00 -0.00000000000E+00 -0.31109227111E+03  0.31109227111E+03  0.00000000000E+00 0. -1.
         25    2    1    2    0    0 -0.43642193332E+02 -0.87550572490E+01 -0.10871605181E+03  0.17159771079E+03  0.12508118307E+03 0.  0.
         23    2    1    2    0    0  0.43642193332E+02  0.87550572490E+01 -0.15444360711E+03  0.18742717251E+03  0.96409673536E+02 0.  0.
          5    1    3    3  502    0  0.15214026035E+01 -0.58052527579E+02 -0.22507285058E+02  0.62421638114E+02  0.41800000000E+01 0. -1.
         -5    1    3    3    0  502 -0.45163595936E+02  0.49297470330E+02 -0.86208766756E+02  0.10917607267E+03  0.41800000000E+01 0. -1.
        -11    1    4    4    0    0  0.31903187696E+02  0.52125291159E+02 -0.93807717875E+02  0.11195868567E+03  0.00000000000E+00 0.  1.
         11    1    4    4    0    0  0.11739005636E+02 -0.43370233910E+02 -0.60635889232E+02  0.75468486838E+02  0.00000000000E+00 0. -1.
</event>
<event>
 8    1  0.6965441E-009  0.4900704E+02  0.7561462E-02  0.1450772E+00
         -1   -1    0    0    0  501 -0.00000000000E+00  0.00000000000E+00  0.77560835296E+02  0.77560835296E+02  0.00000000000E+00 0. -1.
          1   -1    0    0  501    0  0.00000000000E+00 -0.00000000000E+00 -0.16430782599E+03  0.16430782599E+03  0.00000000000E+00 0.  1.
         25    2    1    2    0    0  0.30114636745E+01 -0.28292409280E+02 -0.70616213035E+02  0.14643490220E+03  0.12508797586E+03 0.  0.
         23    2    1    2    0    0 -0.30114636745E+01  0.28292409280E+02 -0.16130777657E+02  0.95433759079E+02  0.89654174737E+02 0.  0.
          5    1    3    3  502    0 -0.15252895446E+02 -0.23326750193E+02  0.31632016574E+02  0.42365610660E+02  0.41800000000E+01 0.  1.
         -5    1    3    3    0  502  0.18264359120E+02 -0.49656590874E+01 -0.10224822961E+03  0.10406929154E+03  0.41800000000E+01 0.  1.
        -11    1    4    4    0    0 -0.13656930800E+02  0.35200922537E+02  0.29598680712E+02  0.47976021159E+02  0.00000000000E+00 0. -1.
         11    1    4    4    0    0  0.10645467125E+02 -0.69085132567E+01 -0.45729458369E+02  0.47457737920E+02  0.00000000000E+00 0.  1.
</event>
<event>
 8    1  0.6965441E-009  0.1375167E+03  0.7561462E-02  0.1216710E+00
          2   -1    0    0  501    0  0.00000000000E+00  0.00000000000E+00  0.20219929161E+03  0.20219929161E+03  0.00000000000E+00 0. -1.
         -2   -1    0    0    0  501 -0.00000000000E+00 -0.00000000000E+00 -0.11317558177E+03  0.11317558177E+03  0.00000000000E+00 0.  1.
         25    2    1    2    0    0 -0.19185771886E+02 -0.97473635365E+02  0.84004762609E+02  0.18048341683E+03  0.12509300610E+03 0.  0.
         23    2    1    2    0    0  0.19185771886E+02  0.97473635365E+02  0.50189472232E+01  0.13489145655E+03  0.91111534867E+02 0.  0.
          5    1    3    3  502    0  0.48658149029E+02 -0.56709925870E+02  0.64645530191E+02  0.98894631466E+02  0.41800000000E+01 0. -1.
         -5    1    3    3    0  502 -0.67843920916E+02 -0.40763709495E+02  0.19359232418E+02  0.81588785362E+02  0.41800000000E+01 0. -1.
        -11    1    4    4    0    0 -0.18307132730E+02  0.75042998522E+02  0.31924577301E+02  0.83580986904E+02  0.00000000000E+00 0. -1.
         11    1    4    4    0    0  0.37492904617E+02  0.22430636842E+02 -0.26905630078E+02  0.51310469649E+02  0.00000000000E+00 0.  1.
</event>
<event>
 8    1  0.6965441E-009  0.1085007E+03  0.7561462E-02  0.1263372E+00
         -2   -1    0    0    0  501 -0.00000000000E+00  0.00000000000E+00  0.44064285260E+03  0.44064285260E+03  0.00000000000E+00 0.  1.
          2   -1    0    0  501    0  0.00000000000E+00 -0.00000000000E+00 -0.33717483625E+02  0.33717483625E+02  0.00000000000E+00 0. -1.
         25    2    1    2    0    0  0.40522634461E+01  0.30293411279E+02  0.32376276080E+03  0.34843061646E+03  0.12508979815E+03 0.  0.
         23    2    1    2    0    0 -0.40522634461E+01 -0.30293411279E+02  0.83162608174E+02  0.12592971976E+03  0.89488341782E+02 0.  0.
          5    1    3    3  502    0 -0.13890060657E+02  0.75301195430E+02  0.15709953340E+03  0.17481687451E+03  0.41800000000E+01 0.  1.
         -5    1    3    3    0  502  0.17942324104E+02 -0.45007784151E+02  0.16666322739E+03  0.17361374195E+03  0.41800000000E+01 0.  1.
        -11    1    4    4    0    0  0.32364030896E+01 -0.60511983736E+02  0.39512846255E+02  0.72342515161E+02  0.00000000000E+00 0.  1.
         11    1    4    4    0    0 -0.72886665357E+01  0.30218572458E+02  0.43649761919E+02  0.53587204600E+02  0.00000000000E+00 0. -1.
</event>
<event>
 8    1  0.6965441E-009  0.1388339E+03  0.7561462E-02  0.1214907E+00
         -1   -1    0    0    0  501 -0.00000000000E+00  0.00000000000E+00  0.17362655579E+02  0.17362655579E+02  0.00000000000E+00 0.  1.
          1   -1    0    0  501    0  0.00000000000E+00 -0.00000000000E+00 -0.15976262339E+04  0.15976262339E+04  0.00000000000E+00 0. -1.
         25    2    1    2    0    0 -0.89563998537E+02 -0.53486622865E+02 -0.11798565483E+04  0.11910463492E+04  0.12508957898E+03 0.  0.
         23    2    1    2    0    0  0.89563998537E+02  0.53486622865E+02 -0.40040703005E+03  0.42394254028E+03  0.92298207404E+02 0.  0.
          5    1    3    3  502    0  0.20691223135E+02 -0.36242741512E+02 -0.53065355657E+03  0.53230849376E+03  0.41800000000E+01 0. -1.
         -5    1    3    3    0  502 -0.11025522167E+03 -0.17243881353E+02 -0.64920299174E+03  0.65873785547E+03  0.41800000000E+01 0. -1.
        -11    1    4    4    0    0  0.90198947677E+02  0.22373423203E+02 -0.36571606637E+03  0.37733892117E+03  0.00000000000E+00 0. -1.
         11    1    4    4    0    0 -0.63494913996E+00  0.31113199661E+02 -0.34690963678E+02  0.46603619113E+02  0.00000000000E+00 0.  1.
</event>
<event>
 8    1  0.6965441E-009  0.1570528E+03  0.7561462E-02  0.1192065E+00
         -1   -1    0    0    0  501 -0.00000000000E+00  0.00000000000E+00  0.37388835307E+02  0.37388835307E+02  0.00000000000E+00 0.  1.
          1   -1    0    0  501    0  0.00000000000E+00 -0.00000000000E+00 -0.93510392144E+03  0.93510392144E+03  0.00000000000E+00 0. -1.
         25    2    1    2    0    0  0.13041639126E+03 -0.44847522304E+02 -0.63959840340E+03  0.66614786281E+03  0.12508845724E+03 0.  0.
         23    2    1    2    0    0 -0.13041639126E+03  0.44847522304E+02 -0.25811668273E+03  0.30634489393E+03  0.90571721680E+02 0.  0.
          5    1    3    3  502    0  0.29424437580E+02 -0.62837421960E+02 -0.14239718857E+03  0.15845747328E+03  0.41800000000E+01 0. -1.
         -5    1    3    3    0  502  0.10099195367E+03  0.17989899657E+02 -0.49720121483E+03  0.50769038954E+03  0.41800000000E+01 0. -1.
        -11    1    4    4    0    0 -0.13196147675E+02  0.16863980647E+02 -0.12483069902E+03  0.12665399944E+03  0.00000000000E+00 0.  1.
         11    1    4    4    0    0 -0.11722024358E+03  0.27983541657E+02 -0.13328598371E+03  0.17969089449E+03  0.00000000000E+00 0. -1.
</event>
<event>
 8    1  0.6965441E-009  0.1372728E+03  0.7561462E-02  0.1217046E+00
          1   -1    0    0  501    0  0.00000000000E+00  0.00000000000E+00  0.24115011836E+03  0.24115011836E+03  0.00000000000E+00 0. -1.
         -1   -1    0    0    0  501 -0.00000000000E+00 -0.00000000000E+00 -0.13763610990E+03  0.13763610990E+03  0.00000000000E+00 0.  1.
         25    2    1    2    0    0 -0.10716554560E+03  0.59338995368E+02 -0.27865004538E+02  0.17727883613E+03  0.12508299935E+03 0.  0.
         23    2    1    2    0    0  0.10716554560E+03 -0.59338995368E+02  0.13137901300E+03  0.20150739213E+03  0.91319294202E+02 0.  0.
          5    1    3    3  502    0 -0.11802710549E+03  0.68584604178E+02 -0.54285167087E+02  0.14696461249E+03  0.41800000000E+01 0. -1.
         -5    1    3    3    0  502  0.10861559890E+02 -0.92456088096E+01  0.26420162549E+02  0.30314223635E+02  0.41800000000E+01 0. -1.
        -11    1    4    4    0    0  0.82340658376E+02 -0.39461276324E+02  0.14126377217E+03  0.16820413098E+03  0.00000000000E+00 0. -1.
         11    1    4    4    0    0  0.24824887220E+02 -0.19877719045E+02 -0.98847591674E+01  0.33303261157E+02  0.00000000000E+00 0.  1.
</event>
<event>
 8    1  0.6965441E-009  0.1641483E+03  0.7561462E-02  0.1184091E+00
          1   -1    0    0  501    0  0.00000000000E+00  0.00000000000E+00  0.82276908256E+03  0.82276908256E+03  0.00000000000E+00 0. -1.
         -1   -1    0    0    0  501 -0.00000000000E+00 -0.00000000000E+00 -0.43662280573E+02  0.43662280573E+02  0.00000000000E+00 0.  1.
         25    2    1    2    0    0 -0.42412389566E+02  0.13601664042E+03  0.55226264757E+03  0.58390162006E+03  0.12509089793E+03 0.  0.
         23    2    1    2    0    0  0.42412389566E+02 -0.13601664042E+03  0.22684415441E+03  0.28252974307E+03  0.89807839682E+02 0.  0.
          5    1    3    3  502    0 -0.30271293695E+02  0.14358469639E+03  0.54946390877E+03  0.56873629715E+03  0.41800000000E+01 0.  1.
         -5    1    3    3    0  502 -0.12141095871E+02 -0.75680559640E+01  0.27987388045E+01  0.15165322909E+02  0.41800000000E+01 0.  1.
        -11    1    4    4    0    0 -0.24307277697E+02 -0.15470247999E+02  0.25011376732E+02  0.38154177860E+02  0.00000000000E+00 0. -1.
         11    1    4    4    0    0  0.66719667263E+02 -0.12054639242E+03  0.20183277768E+03  0.24437556521E+03  0.00000000000E+00 0.  1.
</event>
<event>
 8    1  0.6965441E-009  0.1012672E+03  0.7561462E-02  0.1277654E+00
         -1   -1    0    0    0  501 -0.00000000000E+00  0.00000000000E+00  0.33569688092E+02  0.33569688092E+02  0.00000000000E+00 0.  1.
          1   -1    0    0  501    0  0.00000000000E+00 -0.00000000000E+00 -0.35470518513E+03  0.35470518513E+03  0.00000000000E+00 0. -1.
         25    2    1    2    0    0 -0.11322816183E+02 -0.49055751570E+01 -0.20199003975E+03  0.23789111286E+03  0.12505972408E+03 0.  0.
         23    2    1    2    0    0  0.11322816183E+02  0.49055751570E+01 -0.11914545729E+03  0.15038376036E+03  0.90925049097E+02 0.  0.
          5    1    3    3  502    0 -0.36132237333E+02  0.43480125999E+02 -0.15788242998E+03  0.16775098815E+03  0.41800000000E+01 0. -1.
         -5    1    3    3    0  502  0.24809421150E+02 -0.48385701156E+02 -0.44107609773E+02  0.70140124708E+02  0.41800000000E+01 0. -1.
        -11    1    4    4    0    0  0.46352381218E+02  0.23153054641E+02 -0.60175363831E+02  0.79408321956E+02  0.00000000000E+00 0.  1.
         11    1    4    4    0    0 -0.35029565035E+02 -0.18247479484E+02 -0.58970093455E+02  0.70975438400E+02  0.00000000000E+00 0. -1.
</event>
<event>
 8    1  0.6965441E-009  0.9300869E+02  0.7561462E-02  0.1295725E+00
          1   -1    0    0  501    0  0.00000000000E+00  0.00000000000E+00  0.56218339868E+02  0.56218339868E+02  0.00000000000E+00 0. -1.
         -1   -1    0    0    0  501 -0.00000000000E+00 -0.00000000000E+00 -0.39944864156E+03  0.39944864156E+03  0.00000000000E+00 0.  1.
         25    2    1    2    0    0  0.62845251798E+02  0.54637401226E+02 -0.94174713851E+02  0.17734523713E+03  0.12509070756E+03 0.  0.
         23    2    1    2    0    0 -0.62845251798E+02 -0.54637401226E+02 -0.24905558784E+03  0.27832174429E+03  0.92192929373E+02 0.  0.
          5    1    3    3  502    0  0.25170948597E+02 -0.42056767082E+01 -0.10354519620E+03  0.10672555658E+03  0.41800000000E+01 0.  1.
         -5    1    3    3    0  502  0.37674303201E+02  0.58843077934E+02  0.93704823510E+01  0.70619680556E+02  0.41800000000E+01 0.  1.
        -11    1    4    4    0    0 -0.59503062197E+02 -0.32551576817E+02 -0.24670805060E+03  0.25586145039E+03  0.00000000000E+00 0.  1.
         11    1    4    4    0    0 -0.33421896002E+01 -0.22085824408E+02 -0.23475372371E+01  0.22460293903E+02  0.00000000000E+00 0. -1.
</event>
<event>
 8    1  0.6965441E-009  0.2225684E+03  0.7561462E-02  0.1131983E+00
          2   -1    0    0  501    0  0.00000000000E+00  0.00000000000E+00  0.87539009446E+03  0.87539009446E+03  0.00000000000E+00 0. -1.
         -2   -1    0    0    0  501 -0.00000000000E+00 -0.00000000000E+00 -0.57958188440E+02  0.57958188440E+02  0.00000000000E+00 0.  1.
         25    2    1    2    0    0 -0.13627851825E+03 -0.14112104964E+03  0.38482700751E+03  0.44969583736E+03  0.12509010849E+03 0.  0.
         23    2    1    2    0    0  0.13627851825E+03  0.14112104964E+03  0.43260489852E+03  0.48365244554E+03  0.91025846177E+02 0.  0.
          5    1    3    3  502    0 -0.99816097150E+02 -0.17688775643E+02  0.13782225604E+03  0.17113910334E+03  0.41800000000E+01 0. -1.
         -5    1    3    3    0  502 -0.36462421103E+02 -0.12343227400E+03  0.24700475147E+03  0.27855673402E+03  0.41800000000E+01 0. -1.
        -11    1    4    4    0    0  0.69859339569E+02  0.13666266500E+02  0.16975288206E+03  0.18407372201E+03  0.00000000000E+00 0. -1.
         11    1    4    4    0    0  0.66419178683E+02  0.12745478314E+03  0.26285201645E+03  0.29957872354E+03  0.00000000000E+00 0.  1.
</event>
<event>
 8    1  0.6965441E-009  0.8633592E+02  0.7561462E-02  0.1311975E+00
         -3   -1    0    0    0  501 -0.00000000000E+00  0.00000000000E+00  0.28462478591E+03  0.28462478591E+03  0.00000000000E+00 0.  1.
          3   -1    0    0  501    0  0.00000000000E+00 -0.00000000000E+00 -0.47098274097E+02  0.47098274097E+02  0.00000000000E+00 0. -1.
         25    2    1    2    0    0  0.19932286857E+02  0.21384113591E+02  0.18296092729E+03  0.22355218421E+03  0.12508517808E+03 0.  0.
         23    2    1    2    0    0 -0.19932286857E+02 -0.21384113591E+02  0.54565584527E+02  0.10817087580E+03  0.88707152945E+02 0.  0.
          5    1    3    3  502    0  0.58410384540E+02 -0.96903615731E+01  0.15634064041E+03  0.16722901773E+03  0.41800000000E+01 0.  1.
         -5    1    3    3    0  502 -0.38478097683E+02  0.31074475164E+02  0.26620286883E+02  0.56323166474E+02  0.41800000000E+01 0.  1.
        -11    1    4    4    0    0  0.17257143641E+02 -0.20068200893E+02  0.64445492594E+02  0.69668954416E+02  0.00000000000E+00 0.  1.
         11    1    4    4    0    0 -0.37189430499E+02 -0.13159126979E+01 -0.98799080667E+01  0.38501921386E+02  0.00000000000E+00 0. -1.
</event>
<event>
 8    1  0.6965441E-009  0.1352747E+03  0.7561462E-02  0.1219832E+00
          1   -1    0    0  501    0  0.00000000000E+00  0.00000000000E+00  0.38108399507E+03  0.38108399507E+03  0.00000000000E+00 0. -1.
         -1   -1    0    0    0  501 -0.00000000000E+00 -0.00000000000E+00 -0.53196744635E+02  0.53196744635E+02  0.00000000000E+00 0.  1.
         25    2    1    2    0    0  0.60264252594E+02 -0.63722799269E+02  0.13915931517E+03  0.20665279162E+03  0.12509071108E+03 0.  0.
         23    2    1    2    0    0 -0.60264252594E+02  0.63722799269E+02  0.18872793526E+03  0.22762794808E+03  0.92216451418E+02 0.  0.
          5    1    3    3  502    0 -0.27712769088E+02  0.86097986416E+01  0.63253524707E+02  0.69718053552E+02  0.41800000000E+01 0. -1.
         -5    1    3    3    0  502  0.87977021682E+02 -0.72332597910E+02  0.75905790467E+02  0.13693473807E+03  0.41800000000E+01 0. -1.
        -11    1    4    4    0    0 -0.22050167513E+02  0.81990230356E+02  0.12687559734E+03  0.15266310937E+03  0.00000000000E+00 0.  1.
         11    1    4    4    0    0 -0.38214085081E+02 -0.18267431087E+02  0.61852337913E+02  0.74964838707E+02  0.00000000000E+00 0. -1.
</event>
<event>
 8    1  0.6965441E-009  0.1067606E+03  0.7561462E-02  0.1266689E+00
         -1   -1    0    0    0  501 -0.00000000000E+00  0.00000000000E+00  0.13084380105E+02  0.13084380105E+02  0.00000000000E+00 0.  1.
          1   -1    0    0  501    0  0.00000000000E+00 -0.00000000000E+00 -0.11922290324E+04  0.11922290324E+04  0.00000000000E+00 0. -1.
         25    2    1    2    0    0  0.91618780641E+01 -0.30551648674E+02 -0.91668914927E+03  0.92573393919E+03  0.12508791522E+03 0.  0.
         23    2    1    2    0    0 -0.91618780641E+01  0.30551648674E+02 -0.26245550303E+03  0.27957947331E+03  0.90909007166E+02 0.  0.
          5    1    3    3  502    0 -0.74822516630E+01  0.41933468476E+02 -0.16869140937E+03  0.17403638661E+03  0.41800000000E+01 0. -1.
         -5    1    3    3    0  502  0.16644129727E+02 -0.72485117150E+02 -0.74799773990E+03  0.75169755258E+03  0.41800000000E+01 0. -1.
        -11    1    4    4    0    0  0.19521285934E+02 -0.26182752841E+02 -0.82842321792E+02  0.89047557129E+02  0.00000000000E+00 0.  1.
         11    1    4    4    0    0 -0.28683163998E+02  0.56734401515E+02 -0.17961318123E+03  0.19053191619E+03  0.00000000000E+00 0. -1.
</event>
<event>
 8    1  0.6965441E-009  0.1279482E+03  0.7561462E-02  0.1230532E+00
         -1   -1    0    0    0  501 -0.00000000000E+00  0.00000000000E+00  0.87172279363E+02  0.87172279363E+02  0.00000000000E+00 0.  1.
          1   -1    0    0  501    0  0.00000000000E+00 -0.00000000000E+00 -0.35965244278E+03  0.35965244278E+03  0.00000000000E+00 0. -1.
         25    2    1    2    0    0  0.73504268160E+02  0.76586024879E+02 -0.25940653668E+03  0.30692857932E+03  0.12508039369E+03 0.  0.
         23    2    1    2    0    0 -0.73504268160E+02 -0.76586024879E+02 -0.13073626740E+02  0.13989614283E+03  0.90176019083E+02 0.  0.
          5    1    3    3  502    0  0.58721230785E+01 -0.21961738428E+02 -0.12456451469E+03  0.12669092511E+03  0.41800000000E+01 0. -1.
         -5    1    3    3    0  502  0.67632145082E+02  0.98547763307E+02 -0.13484202199E+03  0.18023765421E+03  0.41800000000E+01 0. -1.
        -11    1    4    4    0    0  0.19670358464E+01 -0.16770064270E+02  0.29981053386E+02  0.34408833863E+02  0.00000000000E+00 0.  1.
         11    1    4    4    0    0 -0.75471304006E+02 -0.59815960609E+02 -0.43054680126E+02  0.10548730897E+03  0.00000000000E+00 0. -1.
</event>
<event>
 8    1  0.6965441E-009  0.1442203E+03  0.7561462E-02  0.1207760E+00
         -2   -1    0    0    0  501 -0.00000000000E+00  0.00000000000E+00  0.29165059251E+02  0.29165059251E+02  0.00000000000E+00 0.  1.
          2   -1    0    0  501    0  0.00000000000E+00 -0.00000000000E+00 -0.12042585422E+04  0.12042585422E+04  0.00000000000E+00 0. -1.
         25    2    1    2    0    0  0.53154031549E+02  0.11165405364E+03 -0.90691469125E+03  0.92381538014E+03  0.12509444681E+03 0.  0.
         23    2    1    2    0    0 -0.53154031549E+02 -0.11165405364E+03 -0.26817879174E+03  0.30960822135E+03  0.92980684135E+02 0.  0.
          5    1    3    3  502    0 -0.33699803309E+02  0.28361629530E+02 -0.12317902931E+03  0.13088393498E+03  0.41800000000E+01 0.  1.
         -5    1    3    3    0  502  0.86853834858E+02  0.83292424108E+02 -0.78373566193E+03  0.79293144516E+03  0.41800000000E+01 0.  1.
        -11    1    4    4    0    0 -0.38060067929E+02 -0.73860265904E+02 -0.25279701482E+03  0.26610193226E+03  0.00000000000E+00 0. -1.
         11    1    4    4    0    0 -0.15093963620E+02 -0.37793787734E+02 -0.15381776923E+02  0.43506289090E+02  0.00000000000E+00 0.  1.
</event>
<event>
 8    1  0.6965441E-009  0.1785752E+03  0.7561462E-02  0.1169189E+00
          2   -1    0    0  501    0  0.00000000000E+00  0.00000000000E+00  0.53130464762E+03  0.53130464762E+03  0.00000000000E+00 0. -1.
         -2   -1    0    0    0  501 -0.00000000000E+00 -0.00000000000E+00 -0.82564361153E+02  0.82564361153E+02  0.00000000000E+00 0.  1.
         25    2    1    2    0    0  0.16288093642E+03 -0.23804454325E+02  0.33557169766E+03  0.39415158249E+03  0.12510097607E+03 0.  0.
         23    2    1    2    0    0 -0.16288093642E+03  0.23804454325E+02  0.11316858881E+03  0.21971742629E+03  0.91497357471E+02 0.  0.
          5    1    3    3  502    0  0.13431473891E+03  0.17206848971E+02  0.30899789284E+03  0.33739249387E+03  0.41800000000E+01 0.  1.
         -5    1    3    3    0  502  0.28566197516E+02 -0.41011303296E+02  0.26573804817E+02  0.56759088620E+02  0.41800000000E+01 0.  1.
        -11    1    4    4    0    0 -0.19884920518E+02  0.20392538515E+02 -0.10774019251E+02  0.30452342798E+02  0.00000000000E+00 0.  1.
         11    1    4    4    0    0 -0.14299601591E+03  0.34119158103E+01  0.12394260806E+03  0.18926508349E+03  0.00000000000E+00 0. -1.
</event>
<event>
 8    1  0.6965441E-009  0.1770696E+03  0.7561462E-02  0.1170670E+00
         -3   -1    0    0    0  501 -0.00000000000E+00  0.00000000000E+00  0.44536753111E+03  0.44536753111E+03  0.00000000000E+00 0.  1.
          3   -1    0    0  501    0  0.00000000000E+00 -0.00000000000E+00 -0.82187266733E+02  0.82187266733E+02  0.00000000000E+00 0. -1.
         25    2    1    2    0    0  0.15074661848E+03  0.40133379575E+02  0.16720380615E+03  0.26065314293E+03  0.12509083495E+03 0.  0.
         23    2    1    2    0    0 -0.15074661848E+03 -0.40133379575E+02  0.19597645823E+03  0.26690165492E+03  0.92165557970E+02 0.  0.
          5    1    3    3  502    0  0.28650430195E+02  0.42033714372E+02 -0.30070073849E+01  0.51129197018E+02  0.41800000000E+01 0.  1.
         -5    1    3    3    0  502  0.12209618829E+03 -0.19003347975E+01  0.17021081353E+03  0.20952394591E+03  0.41800000000E+01 0.  1.
        -11    1    4    4    0    0 -0.10077985221E+03  0.19986461734E+02  0.10398924666E+03  0.14618413281E+03  0.00000000000E+00 0.  1.
         11    1    4    4    0    0 -0.49966766268E+02 -0.60119841308E+02  0.91987211578E+02  0.12071752211E+03  0.00000000000E+00 0. -1.
</event>
<event>
 8    1  0.6965441E-009  0.7381476E+02  0.7561462E-02  0.1347581E+00
          2   -1    0    0  501    0  0.00000000000E+00  0.00000000000E+00  0.15560946191E+03  0.15560946191E+03  0.00000000000E+00 0. -1.
         -2   -1    0    0    0  501 -0.00000000000E+00 -0.00000000000E+00 -0.69254296642E+02  0.69254296642E+02  0.00000000000E+00 0.  1.
         25    2    1    2    0    0  0.15282160688E+02  0.27393430506E+02  0.58588655672E+02  0.14164806973E+03  0.12509036979E+03 0.  0.
         23    2    1    2    0    0 -0.15282160688E+02 -0.27393430506E+02  0.27766509591E+02  0.83215688821E+02  0.71902206788E+02 0.  0.
          5    1    3    3  502    0  0.39140172337E+02  0.12434864248E+02 -0.28408958254E+02  0.50111079099E+02  0.41800000000E+01 0. -1.
         -5    1    3    3    0  502 -0.23858011649E+02  0.14958566258E+02  0.86997613926E+02  0.91536990628E+02  0.41800000000E+01 0. -1.
        -11    1    4    4    0    0  0.17315473693E+02  0.16021588529E+02  0.39004052968E+01  0.23910878062E+02  0.00000000000E+00 0.  1.
         11    1    4    4    0    0 -0.32597634382E+02 -0.43415019034E+02  0.23866104294E+02  0.59304810760E+02  0.00000000000E+00 0. -1.
</event>
<event>
 8    1  0.6965441E-009  0.1135297E+03  0.7561462E-02  0.1254170E+00
         -2   -1    0    0    0  501 -0.00000000000E+00  0.00000000000E+00  0.12138518870E+03  0.12138518870E+03  0.00000000000E+00 0.  1.
          2   -1    0    0  501    0  0.00000000000E+00 -0.00000000000E+00 -0.15621216677E+03  0.15621216677E+03  0.00000000000E+00 0. -1.
         25    2    1    2    0    0  0.20163950594E+02  0.84024369149E+02 -0.31902955683E+02  0.15534408924E+03  0.12508920003E+03 0.  0.
         23    2    1    2    0    0 -0.20163950594E+02 -0.84024369149E+02 -0.29240223861E+01  0.12225326624E+03  0.86432816018E+02 0.  0.
          5    1    3    3  502    0  0.24028125438E+02  0.38217505317E+01 -0.64133230434E+02  0.68720449905E+02  0.41800000000E+01 0. -1.
         -5    1    3    3    0  502 -0.38641748439E+01  0.80202618617E+02  0.32230274752E+02  0.86623639331E+02  0.41800000000E+01 0. -1.
        -11    1    4    4    0    0 -0.52090465594E+02 -0.69600780457E+02  0.14555646536E+01  0.86947132871E+02  0.00000000000E+00 0.  1.
         11    1    4    4    0    0  0.31926515000E+02 -0.14423588692E+02 -0.43795870396E+01  0.35306133368E+02  0.00000000000E+00 0. -1.
</event>
<event>
 8    1  0.6965441E-009  0.1485454E+03  0.7561462E-02  0.1202272E+00
         -2   -1    0    0    0  501 -0.00000000000E+00  0.00000000000E+00  0.28016327063E+02  0.28016327063E+02  0.00000000000E+00 0.  1.
          2   -1    0    0  501    0  0.00000000000E+00 -0.00000000000E+00 -0.88685855008E+03  0.88685855008E+03  0.00000000000E+00 0. -1.
         25    2    1    2    0    0 -0.99311823659E+02  0.36001161678E+02 -0.58092603925E+03  0.60355750000E+03  0.12509065016E+03 0.  0.
         23    2    1    2    0    0  0.99311823659E+02 -0.36001161678E+02 -0.27791618377E+03  0.31131737715E+03  0.92315665819E+02 0.  0.
          5    1    3    3  502    0 -0.12477845811E+03  0.39391455185E+02 -0.53483560824E+03  0.55062505446E+03  0.41800000000E+01 0. -1.
         -5    1    3    3    0  502  0.25466634448E+02 -0.33902935069E+01 -0.46090431010E+02  0.52932445540E+02  0.41800000000E+01 0. -1.
        -11    1    4    4    0    0  0.76683126516E+02  0.20420944650E+02 -0.15036347752E+03  0.17001909376E+03  0.00000000000E+00 0. -1.
         11    1    4    4    0    0  0.22628697143E+02 -0.56422106328E+02 -0.12755270625E+03  0.14129828339E+03  0.00000000000E+00 0.  1.
</event>
<event>
 8    1  0.6965441E-009  0.1119108E+03  0.7561462E-02  0.1257072E+00
          1   -1    0    0  501    0  0.00000000000E+00  0.00000000000E+00  0.52093319263E+02  0.52093319263E+02  0.00000000000E+00 0. -1.
         -1   -1    0    0    0  501 -0.00000000000E+00 -0.00000000000E+00 -0.27133781210E+03  0.27133781210E+03  0.00000000000E+00 0.  1.
         25    2    1    2    0    0  0.29384672331E+02  0.21662946594E+02 -0.76778089119E+02  0.15124622399E+03  0.12509117906E+03 0.  0.
         23    2    1    2    0    0 -0.29384672331E+02 -0.21662946594E+02 -0.14246640372E+03  0.17218490737E+03  0.89544535937E+02 0.  0.
          5    1    3    3  502    0  0.49825410016E+02 -0.38820464491E+02 -0.54398969357E+02  0.83464484744E+02  0.41800000000E+01 0. -1.
         -5    1    3    3    0  502 -0.20440737685E+02  0.60483411085E+02 -0.22379119762E+02  0.67781739244E+02  0.41800000000E+01 0. -1.
        -11    1    4    4    0    0 -0.20914867146E+02 -0.56730761740E+02 -0.84363436929E+02  0.10379306569E+03  0.00000000000E+00 0.  1.
         11    1    4    4    0    0 -0.84698051847E+01  0.35067815146E+02 -0.58102966787E+02  0.68391841680E+02  0.00000000000E+00 0. -1.
</event>
<event>
 8    1  0.6965441E-009  0.1275941E+03  0.7561462E-02  0.1231070E+00
         -1   -1    0    0    0  501 -0.00000000000E+00  0.00000000000E+00  0.57551173357E+02  0.57551173357E+02  0.00000000000E+00 0.  1.
          1   -1    0    0  501    0  0.00000000000E+00 -0.00000000000E+00 -0.42950601479E+03  0.42950601479E+03  0.00000000000E+00 0. -1.
         25    2    1    2    0    0  0.52915719158E+00  0.11129091691E+03 -0.16943637378E+03  0.23820624462E+03  0.12509029547E+03 0.  0.
         23    2    1    2    0    0 -0.52915719158E+00 -0.11129091691E+03 -0.20251846766E+03  0.24885094353E+03  0.92342374669E+02 0.  0.
          5    1    3    3  502    0  0.15095195986E+02  0.99780165268E+01 -0.12528967844E+03  0.12665860287E+03  0.41800000000E+01 0.  1.
         -5    1    3    3    0  502 -0.14566038794E+02  0.10131290039E+03 -0.44146695331E+02  0.11154764175E+03  0.41800000000E+01 0.  1.
        -11    1    4    4    0    0  0.32357568594E+02 -0.88323172125E+02 -0.93249270275E+02  0.13245158129E+03  0.00000000000E+00 0.  1.
         11    1    4    4    0    0 -0.32886725785E+02 -0.22967744788E+02 -0.10926919738E+03  0.11639936224E+03  0.00000000000E+00 0. -1.
</event>
<event>
 7    1  0.6965441E-009  0.1009911E+03  0.7561462E-02  0.1278226E+00
          3   -1    0    0  501    0  0.00000000000E+00  0.00000000000E+00  0.16927378006E+03  0.16927378006E+03  0.00000000000E+00 0. -1.
         -3   -1    0    0    0  501 -0.00000000000E+00 -0.00000000000E+00 -0.95524446625E+02  0.95524446625E+02  0.00000000000E+00 0.  1.
         23    2    1    2    0    0 -0.45491226943E+02  0.40652542927E+02  0.60221545434E+02  0.12490676304E+03  0.90845935201E+02 0.  0.
          5    1    1    2  502    0 -0.30973933891E+02 -0.91148603568E+01 -0.31773921579E+02  0.45491974594E+02  0.41800000000E+01 0.  1.
         -5    1    1    2    0  502  0.76465160833E+02 -0.31537682570E+02  0.45301709581E+02  0.94399489057E+02  0.41800000000E+01 0.  1.
        -11    1    3    3    0    0  0.56243144933E+01  0.34691320602E+02  0.64306066147E+02  0.73282950145E+02  0.00000000000E+00 0. -1.
         11    1    3    3    0    0 -0.51115541436E+02  0.59612223241E+01 -0.40845207130E+01  0.51623812891E+02  0.00000000000E+00 0.  1.
</event>
<event>
 8    1  0.6965441E-009  0.8835497E+02  0.7561462E-02  0.1306885E+00
          1   -1    0    0  501    0  0.00000000000E+00  0.00000000000E+00  0.21112653498E+03  0.21112653498E+03  0.00000000000E+00 0.  1.
         -1   -1    0    0    0  501 -0.00000000000E+00 -0.00000000000E+00 -0.88172299324E+02  0.88172299324E+02  0.00000000000E+00 0. -1.
         25    2    1    2    0    0 -0.39124182381E+02  0.56601732302E+02  0.11378338026E+03  0.18256091652E+03  0.12508945947E+03 0.  0.
         23    2    1    2    0    0  0.39124182381E+02 -0.56601732302E+02  0.91708553933E+01  0.11673791778E+03  0.93857227282E+02 0.  0.
          5    1    3    3  502    0 -0.25437417838E+02  0.52023245452E+02  0.14043612176E+03  0.15196465703E+03  0.41800000000E+01 0.  1.
         -5    1    3    3    0  502 -0.13686764543E+02  0.45784868501E+01 -0.26652741493E+02  0.30596259487E+02  0.41800000000E+01 0.  1.
        -11    1    4    4    0    0  0.18546735194E+02 -0.74240383509E+02  0.30370930960E+02  0.82328666801E+02  0.00000000000E+00 0.  1.
         11    1    4    4    0    0  0.20577447188E+02  0.17638651206E+02 -0.21200075567E+02  0.34409250982E+02  0.00000000000E+00 0. -1.
</event>
<event>
 7    1  0.6965441E-009  0.7935539E+02  0.7561462E-02  0.1330891E+00
          2   -1    0    0  501    0  0.00000000000E+00  0.00000000000E+00  0.81754352653E+02  0.81754352653E+02  0.00000000000E+00 0. -1.
         -2   -1    0    0    0  501 -0.00000000000E+00 -0.00000000000E+00 -0.20657864638E+03  0.20657864638E+03  0.00000000000E+00 0.  1.
         23    2    1    2    0    0 -0.55027713269E+02 -0.38176378412E+02 -0.29377846890E+02  0.11738459867E+03  0.91818304385E+02 0.  0.
          5    1    1    2  502    0  0.62856759961E+02  0.46403620754E+02 -0.12018460488E+03  0.14340878614E+03  0.41800000000E+01 0. -1.
         -5    1    1    2    0  502 -0.78290466923E+01 -0.82272423412E+01  0.24738158041E+02  0.27539614230E+02  0.41800000000E+01 0. -1.
        -11    1    3    3    0    0 -0.21998295682E+02 -0.23605654945E+02  0.32467203997E+02  0.45774133456E+02  0.00000000000E+00 0. -1.
         11    1    3    3    0    0 -0.33029417587E+02 -0.14570723467E+02 -0.61845050887E+02  0.71610465210E+02  0.00000000000E+00 0.  1.
</event>
<event>
 8    1  0.6965441E-009  0.1295481E+03  0.7561462E-02  0.1228128E+00
         -2   -1    0    0    0  501 -0.00000000000E+00  0.00000000000E+00  0.36012570982E+03  0.36012570982E+03  0.00000000000E+00 0. -1.
          2   -1    0    0  501    0  0.00000000000E+00 -0.00000000000E+00 -0.10070049201E+03  0.10070049201E+03  0.00000000000E+00 0.  1.
         25    2    1    2    0    0 -0.76838572953E+02  0.16985608782E+02  0.30023511391E+03  0.33465441482E+03  0.12513902884E+03 0.  0.
         23    2    1    2    0    0  0.76838572953E+02 -0.16985608782E+02 -0.40809896092E+02  0.12617178701E+03  0.89784157951E+02 0.  0.
          5    1    3    3  502    0  0.18980181439E+02 -0.27788251020E+02  0.12868997377E+03  0.13308274092E+03  0.41800000000E+01 0.  1.
         -5    1    3    3    0  502 -0.95818754392E+02  0.44773859802E+02  0.17154514013E+03  0.20157167390E+03  0.41800000000E+01 0.  1.
        -11    1    4    4    0    0  0.47664423197E+02 -0.54119192321E+02 -0.22874316777E+02  0.75657244096E+02  0.00000000000E+00 0.  1.
         11    1    4    4    0    0  0.29174149756E+02  0.37133583539E+02 -0.17935579314E+02  0.50514542913E+02  0.00000000000E+00 0. -1.
</event>
<event>
 8    1  0.6965441E-009  0.2462838E+03  0.7561462E-02  0.1115676E+00
          2   -1    0    0  501    0  0.00000000000E+00  0.00000000000E+00  0.10461977843E+04  0.10461977843E+04  0.00000000000E+00 0. -1.
         -2   -1    0    0    0  501 -0.00000000000E+00 -0.00000000000E+00 -0.68125683031E+02  0.68125683031E+02  0.00000000000E+00 0.  1.
         25    2    1    2    0    0 -0.44929376296E+02  0.23030497577E+03  0.64050985328E+03  0.69351407968E+03  0.12509946380E+03 0.  0.
         23    2    1    2    0    0  0.44929376296E+02 -0.23030497577E+03  0.33756224797E+03  0.42080938764E+03  0.89851203387E+02 0.  0.
          5    1    3    3  502    0 -0.59018435873E+02  0.72178435195E+02  0.13871626077E+03  0.16719023800E+03  0.41800000000E+01 0. -1.
         -5    1    3    3    0  502  0.14089059577E+02  0.15812654057E+03  0.50179359251E+03  0.52632384168E+03  0.41800000000E+01 0. -1.
        -11    1    4    4    0    0  0.49093376750E+02 -0.11488061921E+03  0.11377656601E+03  0.16897580680E+03  0.00000000000E+00 0.  1.
         11    1    4    4    0    0 -0.41640004540E+01 -0.11542435656E+03  0.22378568196E+03  0.25183358083E+03  0.00000000000E+00 0. -1.
</event>
<event>
 8    1  0.6965441E-009  0.1313593E+03  0.7561462E-02  0.1225453E+00
          2   -1    0    0  501    0  0.00000000000E+00  0.00000000000E+00  0.11022493570E+04  0.11022493570E+04  0.00000000000E+00 0. -1.
         -2   -1    0    0    0  501 -0.00000000000E+00 -0.00000000000E+00 -0.16738038515E+02  0.16738038515E+02  0.00000000000E+00 0.  1.
         25    2    1    2    0    0  0.46875610744E+02 -0.58225883371E+02  0.46642671487E+03  0.48866044578E+03  0.12509026560E+03 0.  0.
         23    2    1    2    0    0 -0.46875610744E+02  0.58225883371E+02  0.61908460366E+03  0.63032694978E+03  0.91971412699E+02 0.  0.
          5    1    3    3  502    0 -0.92888296826E+00 -0.88408045350E+02  0.30411508912E+03  0.31673380801E+03  0.41800000000E+01 0.  1.
         -5    1    3    3    0  502  0.47804493712E+02  0.30182161979E+02  0.16231162575E+03  0.17192663777E+03  0.41800000000E+01 0.  1.
        -11    1    4    4    0    0 -0.62953846189E+02  0.64276675721E+01  0.37369869566E+03  0.37901875520E+03  0.00000000000E+00 0.  1.
         11    1    4    4    0    0  0.16078235446E+02  0.51798215799E+02  0.24538590800E+03  0.25130819457E+03  0.00000000000E+00 0. -1.
</event>
<event>
 8    1  0.6965441E-009  0.9809070E+02  0.7561462E-02  0.1284363E+00
         -3   -1    0    0    0  501 -0.00000000000E+00  0.00000000000E+00  0.18113891137E+03  0.18113891137E+03  0.00000000000E+00 0.  1.
          3   -1    0    0  501    0  0.00000000000E+00 -0.00000000000E+00 -0.66247698190E+02  0.66247698190E+02  0.00000000000E+00 0. -1.
         25    2    1    2    0    0  0.20731900030E+02 -0.25736860438E+00  0.90848538689E+02  0.15598696439E+03  0.12509435703E+03 0.  0.
         23    2    1    2    0    0 -0.20731900030E+02  0.25736860438E+00  0.24042674491E+02  0.91399645167E+02  0.85708616967E+02 0.  0.
          5    1    3    3  502    0 -0.37348837203E+02  0.26132183145E+02  0.78503895858E+02  0.90874422701E+02  0.41800000000E+01 0.  1.
         -5    1    3    3    0  502  0.58080737233E+02 -0.26389551750E+02  0.12344642831E+02  0.65112541693E+02  0.41800000000E+01 0.  1.
        -11    1    4    4    0    0  0.16369060583E+02 -0.32880661825E+02  0.19127652838E+02  0.41411968916E+02  0.00000000000E+00 0.  1.
         11    1    4    4    0    0 -0.37100960613E+02  0.33138030429E+02  0.49150216531E+01  0.49987676251E+02  0.00000000000E+00 0. -1.
</event>
<event>
 8    1  0.6965441E-009  0.2697112E+03  0.7561462E-02  0.1101445E+00
         -2   -1    0    0    0  501 -0.00000000000E+00  0.00000000000E+00  0.10889833110E+03  0.10889833110E+03  0.00000000000E+00 0.  1.
          2   -1    0    0  501    0  0.00000000000E+00 -0.00000000000E+00 -0.91993827936E+03  0.91993827936E+03  0.00000000000E+00 0. -1.
         25    2    1    2    0    0 -0.23342341275E+03  0.90670773902E+02 -0.67307097595E+03  0.72895778203E+03  0.12508889019E+03 0.  0.
         23    2    1    2    0    0  0.23342341275E+03 -0.90670773902E+02 -0.13796897232E+03  0.29987882843E+03  0.90466543860E+02 0.  0.
          5    1    3    3  502    0 -0.15729991214E+03  0.13612479713E+01 -0.45244422350E+03  0.47902856191E+03  0.41800000000E+01 0.  1.
         -5    1    3    3    0  502 -0.76123500616E+02  0.89309525931E+02 -0.22062675246E+03  0.24992922012E+03  0.41800000000E+01 0.  1.
        -11    1    4    4    0    0  0.31165566351E+02  0.17005090532E+02 -0.30451296134E+02  0.46773358510E+02  0.00000000000E+00 0. -1.
         11    1    4    4    0    0  0.20225784640E+03 -0.10767586443E+03 -0.10751767618E+03  0.25310546992E+03  0.00000000000E+00 0.  1.
</event>
<event>
 8    1  0.6965441E-009  0.1092055E+03  0.7561462E-02  0.1262048E+00
         -1   -1    0    0    0  501 -0.00000000000E+00  0.00000000000E+00  0.36663862408E+02  0.36663862408E+02  0.00000000000E+00 0.  1.
          1   -1    0    0  501    0  0.00000000000E+00 -0.00000000000E+00 -0.45675943301E+03  0.45675943301E+03  0.00000000000E+00 0. -1.
         25    2    1    2    0    0  0.57431543178E+02  0.31526781313E+02 -0.21265976620E+03  0.25527225453E+03  0.12508967857E+03 0.  0.
         23    2    1    2    0    0 -0.57431543178E+02 -0.31526781313E+02 -0.20743580441E+03  0.23815104089E+03  0.96922573397E+02 0.  0.
          5    1    3    3  502    0  0.79933820409E+02  0.39185543698E+01 -0.20283053533E+03  0.21808821421E+03  0.41800000000E+01 0. -1.
         -5    1    3    3    0  502 -0.22502277232E+02  0.27608226943E+02 -0.98292308653E+01  0.37184040326E+02  0.41800000000E+01 0. -1.
        -11    1    4    4    0    0 -0.55138350473E+02 -0.55555418109E+02 -0.19676088186E+03  0.21175808557E+03  0.00000000000E+00 0. -1.
         11    1    4    4    0    0 -0.22931927045E+01  0.24028636796E+02 -0.10674922551E+02  0.26392955321E+02  0.00000000000E+00 0.  1.
</event>
<event>
 8    1  0.6965441E-009  0.1771203E+03  0.7561462E-02  0.1170619E+00
          2   -1    0    0  501    0  0.00000000000E+00  0.00000000000E+00  0.50269224732E+03  0.50269224732E+03  0.00000000000E+00 0. -1.
         -2   -1    0    0    0  501 -0.00000000000E+00 -0.00000000000E+00 -0.69261497434E+02  0.69261497434E+02  0.00000000000E+00 0.  1.
         25    2    1    2    0    0  0.12419462122E+02 -0.14691605446E+03  0.17861064806E+03  0.26323011827E+03  0.12509900666E+03 0.  0.
         23    2    1    2    0    0 -0.12419462122E+02  0.14691605446E+03  0.25482010183E+03  0.30872362648E+03  0.92943117847E+02 0.  0.
          5    1    3    3  502    0 -0.50152928041E+02 -0.60458044486E+02  0.40020565646E+02  0.88258763921E+02  0.41800000000E+01 0. -1.
         -5    1    3    3    0  502  0.62572390163E+02 -0.86458009979E+02  0.13859008241E+03  0.17497135435E+03  0.41800000000E+01 0. -1.
        -11    1    4    4    0    0 -0.47029561185E+02  0.99616917668E+02  0.20071836679E+03  0.22896107241E+03  0.00000000000E+00 0. -1.
         11    1    4    4    0    0  0.34610099063E+02  0.47299136797E+02  0.54101735040E+02  0.79762554079E+02  0.00000000000E+00 0.  1.
</event>
<event>
 8    1  0.6965441E-009  0.9102658E+02  0.7561462E-02  0.1300385E+00
          2   -1    0    0  501    0  0.00000000000E+00  0.00000000000E+00  0.26273003447E+03  0.26273003447E+03  0.00000000000E+00 0. -1.
         -2   -1    0    0    0  501 -0.00000000000E+00 -0.00000000000E+00 -0.60982668842E+02  0.60982668842E+02  0.00000000000E+00 0.  1.
         25    2    1    2    0    0  0.35729052114E+02 -0.24571314296E+02  0.15100466580E+03  0.20083886333E+03  0.12511404908E+03 0.  0.
         23    2    1    2    0    0 -0.35729052114E+02  0.24571314296E+02  0.50742699828E+02  0.12287383999E+03  0.10316416197E+03 0.  0.
          5    1    3    3  502    0 -0.74014317839E+00 -0.63814486691E+02  0.12656593483E+03  0.14180706887E+03  0.41800000000E+01 0.  1.
         -5    1    3    3    0  502  0.36469195293E+02  0.39243172395E+02  0.24438730972E+02  0.59031794454E+02  0.41800000000E+01 0.  1.
        -11    1    4    4    0    0  0.38884983178E+01 -0.10658847811E+02 -0.26706715024E+02  0.29016893066E+02  0.00000000000E+00 0.  1.
         11    1    4    4    0    0 -0.39617550432E+02  0.35230162107E+02  0.77449414852E+02  0.93856946921E+02  0.00000000000E+00 0. -1.
</event>
<event>
 8    1  0.6965441E-009  0.8919636E+02  0.7561462E-02  0.1304810E+00
          2   -1    0    0  501    0  0.00000000000E+00  0.00000000000E+00  0.65426494807E+03  0.65426494807E+03  0.00000000000E+00 0. -1.
         -2   -1    0    0    0  501 -0.00000000000E+00 -0.00000000000E+00 -0.31708141194E+02  0.31708141194E+02  0.00000000000E+00 0.  1.
         25    2    1    2    0    0  0.38357748678E+00  0.12028188690E+02  0.55276785472E+03  0.56687313728E+03  0.12509207848E+03 0.  0.
         23    2    1    2    0    0 -0.38357748678E+00 -0.12028188690E+02  0.69788952154E+02  0.11909995199E+03  0.95757382304E+02 0.  0.
          5    1    3    3  502    0 -0.28456752796E+02 -0.47568859056E+02  0.32183145625E+03  0.32659691022E+03  0.41800000000E+01 0. -1.
         -5    1    3    3    0  502  0.28840330282E+02  0.59597047746E+02  0.23093639847E+03  0.24027622706E+03  0.41800000000E+01 0. -1.
        -11    1    4    4    0    0  0.12251620572E+02  0.19200373919E+02 -0.15398655953E+02  0.27493184073E+02  0.00000000000E+00 0.  1.
         11    1    4    4    0    0 -0.12635198059E+02 -0.31228562609E+02  0.85187608107E+02  0.91606767914E+02  0.00000000000E+00 0. -1.
</event>
<event>
 8    1  0.6965441E-009  0.1435369E+03  0.7561462E-02  0.1208648E+00
         -2   -1    0    0    0  501 -0.00000000000E+00  0.00000000000E+00  0.93345814680E+02  0.93345814680E+02  0.00000000000E+00 0.  1.
          2   -1    0    0  501    0  0.00000000000E+00 -0.00000000000E+00 -0.28145992820E+03  0.28145992820E+03  0.00000000000E+00 0. -1.
         25    2    1    2    0    0  0.80386088721E+02 -0.84425670699E+02 -0.12724234894E+03  0.21313895947E+03  0.12509190040E+03 0.  0.
         23    2    1    2    0    0 -0.80386088721E+02  0.84425670699E+02 -0.60871764571E+02  0.16166678341E+03  0.94027442817E+02 0.  0.
          5    1    3    3  502    0 -0.22077234571E+02 -0.48163091516E+02 -0.11634107984E+02  0.54405078249E+02  0.41800000000E+01 0. -1.
         -5    1    3    3    0  502  0.10246332329E+03 -0.36262579184E+02 -0.11560824096E+03  0.15873388122E+03  0.41800000000E+01 0. -1.
        -11    1    4    4    0    0 -0.65666240299E+02  0.36730129583E+02 -0.78494879896E+02  0.10873179712E+03  0.00000000000E+00 0. -1.
         11    1    4    4    0    0 -0.14719848422E+02  0.47695541116E+02  0.17623115325E+02  0.52934986292E+02  0.00000000000E+00 0.  1.
</event>
<event>
 8    1  0.6965441E-009  0.1185572E+03  0.7561462E-02  0.1245496E+00
          1   -1    0    0  501    0  0.00000000000E+00  0.00000000000E+00  0.13049318086E+03  0.13049318086E+03  0.00000000000E+00 0. -1.
         -1   -1    0    0    0  501 -0.00000000000E+00 -0.00000000000E+00 -0.23586119747E+03  0.23586119747E+03  0.00000000000E+00 0.  1.
         25    2    1    2    0    0 -0.28784794523E+02  0.94477700533E+02 -0.15632397896E+03  0.22324724215E+03  0.12509014524E+03 0.  0.
         23    2    1    2    0    0  0.28784794523E+02 -0.94477700533E+02  0.50955962346E+02  0.14310713618E+03  0.90158427409E+02 0.  0.
          5    1    3    3  502    0 -0.50606962245E+02  0.76482756839E+02 -0.34436405773E+02  0.98051084461E+02  0.41800000000E+01 0. -1.
         -5    1    3    3    0  502  0.21822167722E+02  0.17994943694E+02 -0.12188757319E+03  0.12519615769E+03  0.41800000000E+01 0. -1.
        -11    1    4    4    0    0  0.45904305919E+02 -0.86290920315E+02  0.66798867285E+02  0.11838672603E+03  0.00000000000E+00 0. -1.
         11    1    4    4    0    0 -0.17119511396E+02 -0.81867802184E+01 -0.15842904938E+02  0.24720410144E+02  0.00000000000E+00 0.  1.
</event>
<event>
 7    1  0.6965441E-009  0.8306845E+02  0.7561462E-02  0.1320562E+00
         -2   -1    0    0    0  501 -0.00000000000E+00  0.00000000000E+00  0.27059083061E+02  0.27059083061E+02  0.00000000000E+00 0.  1.
          2   -1    0    0  501    0  0.00000000000E+00 -0.00000000000E+00 -0.50557827890E+03  0.50557827890E+03  0.00000000000E+00 0. -1.
         25    2    1    2    0    0  0.24982734415E+01 -0.70586291670E+02 -0.25145935726E+03  0.28960062806E+03  0.12509216394E+03 0.  0.
          5    1    3    3  502    0  0.16237818463E+02  0.30604109309E+01 -0.19488422417E+03  0.19562813216E+03  0.41800000000E+01 0. -1.
         -5    1    3    3    0  502 -0.13739545021E+02 -0.73646702601E+02 -0.56575133093E+02  0.93972495901E+02  0.41800000000E+01 0. -1.
        -11    1    1    2    0    0 -0.12435926069E+02  0.41363914268E+02 -0.64858044539E+02  0.77924268378E+02  0.00000000000E+00 0.  1.
         11    1    1    2    0    0  0.99376526277E+01  0.29222377402E+02 -0.16220179404E+03  0.16511246552E+03  0.00000000000E+00 0. -1.
</event>
<event>
 8    1  0.6965441E-009  0.8800418E+02  0.7561462E-02  0.1307758E+00
         -2   -1    0    0    0  501 -0.00000000000E+00  0.00000000000E+00  0.79198370715E+02  0.79198370715E+02  0.00000000000E+00 0.  1.
          2   -1    0    0  501    0  0.00000000000E+00 -0.00000000000E+00 -0.21423089881E+03  0.21423089881E+03  0.00000000000E+00 0. -1.
         25    2    1    2    0    0 -0.69203577924E+02 -0.29307976367E+02 -0.52607068445E+02  0.15511992509E+03  0.12508634950E+03 0.  0.
         23    2    1    2    0    0  0.69203577924E+02  0.29307976367E+02 -0.82425459648E+02  0.13830934444E+03  0.81776681787E+02 0.  0.
          5    1    3    3  502    0  0.54512088298E+01 -0.16299358410E+02  0.34996855542E+02  0.39212715541E+02  0.41800000000E+01 0. -1.
         -5    1    3    3    0  502 -0.74654786754E+02 -0.13008617956E+02 -0.87603923986E+02  0.11590720954E+03  0.41800000000E+01 0. -1.
        -11    1    4    4    0    0  0.44071189239E+01  0.15579537309E+02 -0.68810518844E+02  0.70689689373E+02  0.00000000000E+00 0. -1.
         11    1    4    4    0    0  0.64796459000E+02  0.13728439057E+02 -0.13614940803E+02  0.67619655064E+02  0.00000000000E+00 0.  1.
</event>
<event>
 8    1  0.6965441E-009  0.1006490E+03  0.7561462E-02  0.1278937E+00
          2   -1    0    0  501    0  0.00000000000E+00  0.00000000000E+00  0.10712790358E+03  0.10712790358E+03  0.00000000000E+00 0. -1.
         -2   -1    0    0    0  501 -0.00000000000E+00 -0.00000000000E+00 -0.12801737126E+03  0.12801737126E+03  0.00000000000E+00 0.  1.
         25    2    1    2    0    0 -0.18697319351E+02  0.37074842008E+02 -0.12418209992E+02  0.13238422065E+03  0.12508891349E+03 0.  0.
         23    2    1    2    0    0  0.18697319351E+02 -0.37074842008E+02 -0.84712576950E+01  0.10276105419E+03  0.93615908850E+02 0.  0.
          5    1    3    3  502    0 -0.50591316779E+02 -0.19851290725E+02  0.21657337413E+02  0.58652090676E+02  0.41800000000E+01 0.  1.
         -5    1    3    3    0  502  0.31893997428E+02  0.56926132734E+02 -0.34075547405E+02  0.73732129977E+02  0.41800000000E+01 0.  1.
        -11    1    4    4    0    0  0.22941020549E+02  0.16121942620E+02  0.26804306652E+02  0.38790183201E+02  0.00000000000E+00 0. -1.
         11    1    4    4    0    0 -0.42437011987E+01 -0.53196784628E+02 -0.35275564347E+02  0.63970870986E+02  0.00000000000E+00 0.  1.
</event>
<event>
 8    1  0.6965441E-009  0.2059885E+03  0.7561462E-02  0.1144783E+00
         -2   -1    0    0    0  501 -0.00000000000E+00  0.00000000000E+00  0.40717338448E+03  0.40717338448E+03  0.00000000000E+00 0.  1.
          2   -1    0    0  501    0  0.00000000000E+00 -0.00000000000E+00 -0.21826694840E+03  0.21826694840E+03  0.00000000000E+00 0. -1.
         25    2    1    2    0    0 -0.16938224694E+03 -0.59616612261E+02  0.31809680363E+03  0.38610555142E+03  0.12508970509E+03 0.  0.
         23    2    1    2    0    0  0.16938224694E+03  0.59616612261E+02 -0.12919036756E+03  0.23933478146E+03  0.91359184058E+02 0.  0.
          5    1    3    3  502    0 -0.18972549944E+03 -0.54157435925E+02  0.28528948728E+03  0.34689531124E+03  0.41800000000E+01 0. -1.
         -5    1    3    3    0  502  0.20343252509E+02 -0.54591763362E+01  0.32807316349E+02  0.39210240180E+02  0.41800000000E+01 0. -1.
        -11    1    4    4    0    0  0.22933795066E+02 -0.16360535387E+02 -0.47520658189E+02  0.55243452363E+02  0.00000000000E+00 0. -1.
         11    1    4    4    0    0  0.14644845187E+03  0.75977147648E+02 -0.81669709369E+02  0.18409132910E+03  0.00000000000E+00 0.  1.
</event>
<event>
 8    1  0.6965441E-009  0.1200959E+03  0.7561462E-02  0.1242939E+00
          2   -1    0    0  501    0  0.00000000000E+00  0.00000000000E+00  0.51165701114E+03  0.51165701114E+03  0.00000000000E+00 0.  1.
         -2   -1    0    0    0  501 -0.00000000000E+00 -0.00000000000E+00 -0.34403641803E+02  0.34403641803E+02  0.00000000000E+00 0. -1.
         25    2    1    2    0    0  0.64847053552E+02  0.37314957472E+02  0.30324806250E+03  0.33645761518E+03  0.12508714162E+03 0.  0.
         23    2    1    2    0    0 -0.64847053552E+02 -0.37314957472E+02  0.17400530683E+03  0.20960303776E+03  0.89766587467E+02 0.  0.
          5    1    3    3  502    0  0.98638407178E+02  0.46634304166E+02  0.20874380935E+03  0.23557534684E+03  0.41800000000E+01 0. -1.
         -5    1    3    3    0  502 -0.33791353626E+02 -0.93193466941E+01  0.94504253154E+02  0.10088226835E+03  0.41800000000E+01 0. -1.
        -11    1    4    4    0    0 -0.41429004938E+02 -0.53183594741E+02  0.16752666354E+03  0.18058250246E+03  0.00000000000E+00 0.  1.
         11    1    4    4    0    0 -0.23418048614E+02  0.15868637270E+02  0.64786432917E+01  0.29020535291E+02  0.00000000000E+00 0. -1.
</event>
<event>
 8    1  0.6965441E-009  0.1083680E+03  0.7561462E-02  0.1263622E+00
          2   -1    0    0  501    0  0.00000000000E+00  0.00000000000E+00  0.10607476241E+03  0.10607476241E+03  0.00000000000E+00 0. -1.
         -2   -1    0    0    0  501 -0.00000000000E+00 -0.00000000000E+00 -0.13335478194E+03  0.13335478194E+03  0.00000000000E+00 0.  1.
         25    2    1    2    0    0 -0.36716721693E+02  0.32873778279E+01 -0.26133122696E+02  0.13300025231E+03  0.12508877850E+03 0.  0.
         23    2    1    2    0    0  0.36716721693E+02 -0.32873778279E+01 -0.11468968274E+01  0.10642929204E+03  0.99834634906E+02 0.  0.
          5    1    3    3  502    0 -0.69404321250E+02 -0.17523341925E+02 -0.49892638846E+02  0.87354308030E+02  0.41800000000E+01 0.  1.
         -5    1    3    3    0  502  0.32687599558E+02  0.20810719753E+02  0.23759516149E+02  0.45645944279E+02  0.41800000000E+01 0.  1.
        -11    1    4    4    0    0 -0.20922829403E+02 -0.34620192791E+02  0.38478160017E+01  0.40634077165E+02  0.00000000000E+00 0. -1.
         11    1    4    4    0    0  0.57639551096E+02  0.31332814963E+02 -0.49947128291E+01  0.65795214874E+02  0.00000000000E+00 0.  1.
</event>
<event>
 7    1  0.6965441E-009  0.1066095E+03  0.7561462E-02  0.1266981E+00
         -2   -1    0    0    0  501 -0.00000000000E+00  0.00000000000E+00  0.76205964437E+02  0.76205964437E+02  0.00000000000E+00 0.  1.
          2   -1    0    0  501    0  0.00000000000E+00 -0.00000000000E+00 -0.33139836109E+03  0.33139836109E+03  0.00000000000E+00 0. -1.
         25    2    1    2    0    0 -0.42694625507E+02 -0.16200563584E+02 -0.48029801779E+02  0.14156137347E+03  0.12508985287E+03 0.  0.
          5    1    3    3  502    0 -0.14161096106E+02 -0.78099691155E+01 -0.89116188180E+02  0.90668074074E+02  0.41800000000E+01 0.  1.
         -5    1    3    3    0  502 -0.28533529401E+02 -0.83905944681E+01  0.41086386401E+02  0.50893299393E+02  0.41800000000E+01 0.  1.
        -11    1    1    2    0    0 -0.15252056286E+02 -0.64977464315E+02 -0.73709092063E+02  0.99437047133E+02  0.00000000000E+00 0.  1.
         11    1    1    2    0    0  0.57946681793E+02  0.81178027898E+02 -0.13345350281E+03  0.16660590493E+03  0.00000000000E+00 0. -1.
</event>
<event>
 8    1  0.6965441E-009  0.1043589E+03  0.7561462E-02  0.1271388E+00
         -2   -1    0    0    0  501 -0.00000000000E+00  0.00000000000E+00  0.12711054323E+02  0.12711054323E+02  0.00000000000E+00 0.  1.
          2   -1    0    0  501    0  0.00000000000E+00 -0.00000000000E+00 -0.10278134196E+04  0.10278134196E+04  0.00000000000E+00 0. -1.
         25    2    1    2    0    0  0.18623070089E+02 -0.92698658527E+01 -0.72453324750E+03  0.73554743617E+03  0.12509538351E+03 0.  0.
         23    2    1    2    0    0 -0.18623070089E+02  0.92698658527E+01 -0.29056911782E+03  0.30497703779E+03  0.90265343281E+02 0.  0.
          5    1    3    3  502    0  0.53115102138E+02 -0.47960572866E+02 -0.33694592600E+03  0.34448724225E+03  0.41800000000E+01 0.  1.
         -5    1    3    3    0  502 -0.34492032048E+02  0.38690707014E+02 -0.38758732150E+03  0.39106019392E+03  0.41800000000E+01 0.  1.
        -11    1    4    4    0    0 -0.25036714263E+02 -0.33477733860E+02 -0.82750404554E+02  0.92710437273E+02  0.00000000000E+00 0.  1.
         11    1    4    4    0    0  0.64136441740E+01  0.42747599712E+02 -0.20781871326E+03  0.21226660052E+03  0.00000000000E+00 0. -1.
</event>
<event>
 8    1  0.6965441E-009  0.1822196E+03  0.7561462E-02  0.1165672E+00
         -2   -1    0    0    0  501 -0.00000000000E+00  0.00000000000E+00  0.96546489762E+02  0.96546489762E+02  0.00000000000E+00 0.  1.
          2   -1    0    0  501    0  0.00000000000E+00 -0.00000000000E+00 -0.35766718578E+03  0.35766718578E+03  0.00000000000E+00 0. -1.
         25    2    1    2    0    0 -0.14404392165E+03  0.42110472469E+02 -0.13518345025E+03  0.23757189989E+03  0.12507557372E+03 0.  0.
         23    2    1    2    0    0  0.14404392165E+03 -0.42110472469E+02 -0.12593724577E+03  0.21664177566E+03  0.92474460431E+02 0.  0.
          5    1    3    3  502    0  0.14650889506E+02  0.32881225641E+02 -0.28141560978E+02  0.45882931655E+02  0.41800000000E+01 0.  1.
         -5    1    3    3    0  502 -0.15869481115E+03  0.92292468275E+01 -0.10704188927E+03  0.19168896824E+03  0.41800000000E+01 0.  1.
        -11    1    4    4    0    0  0.13321210479E+03 -0.80662534054E+01 -0.71156050075E+02  0.15124057911E+03  0.00000000000E+00 0.  1.
         11    1    4    4    0    0  0.10831816857E+02 -0.34044219064E+02 -0.54781195695E+02  0.65401196547E+02  0.00000000000E+00 0. -1.
</event>
<event>
 8    1  0.6965441E-009  0.9801447E+02  0.7561462E-02  0.1284528E+00
          4   -1    0    0  501    0  0.00000000000E+00  0.00000000000E+00  0.10136457479E+03  0.10136457479E+03  0.00000000000E+00 0. -1.
         -4   -1    0    0    0  501 -0.00000000000E+00 -0.00000000000E+00 -0.15226906097E+03  0.15226906097E+03  0.00000000000E+00 0.  1.
         25    2    1    2    0    0 -0.26876599604E+01  0.28783432815E+02 -0.84299584635E+02  0.15359057519E+03  0.12509170755E+03 0.  0.
         23    2    1    2    0    0  0.26876599604E+01 -0.28783432815E+02  0.33395098454E+02  0.10004306057E+03  0.89764535571E+02 0.  0.
          5    1    3    3  502    0 -0.40879101766E+02 -0.25993502385E+02 -0.69904973540E+02  0.85152456530E+02  0.41800000000E+01 0.  1.
         -5    1    3    3    0  502  0.38191441806E+02  0.54776935200E+02 -0.14394611095E+02  0.68438118660E+02  0.41800000000E+01 0.  1.
        -11    1    4    4    0    0  0.69626538811E+01 -0.54240136093E+02 -0.37453305549E+01  0.54813305077E+02  0.00000000000E+00 0.  1.
         11    1    4    4    0    0 -0.42749939207E+01  0.25456703278E+02  0.37140429009E+02  0.45229755491E+02  0.00000000000E+00 0. -1.
</event>
<event>
 8    1  0.6965441E-009  0.2983787E+03  0.7561462E-02  0.1086054E+00
          4   -1    0    0  501    0  0.00000000000E+00  0.00000000000E+00  0.16417359961E+03  0.16417359961E+03  0.00000000000E+00 0. -1.
         -4   -1    0    0    0  501 -0.00000000000E+00 -0.00000000000E+00 -0.60650668659E+03  0.60650668659E+03  0.00000000000E+00 0.  1.
         25    2    1    2    0    0 -0.25329461341E+03  0.15081939711E+03 -0.25743802480E+03  0.41088473232E+03  0.12508906790E+03 0.  0.
         23    2    1    2    0    0  0.25329461341E+03 -0.15081939711E+03 -0.18489506218E+03  0.35979555388E+03  0.91443998393E+02 0.  0.
          5    1    3    3  502    0 -0.12469739943E+03  0.39161855577E+02 -0.44385776434E+02  0.13809656733E+03  0.41800000000E+01 0. -1.
         -5    1    3    3    0  502 -0.12859721398E+03  0.11165754154E+03 -0.21305224836E+03  0.27278816499E+03  0.41800000000E+01 0. -1.
        -11    1    4    4    0    0  0.97128642489E+02 -0.45423732994E+02 -0.19273365286E+02  0.10894379891E+03  0.00000000000E+00 0. -1.
         11    1    4    4    0    0  0.15616597092E+03 -0.10539566412E+03 -0.16562169689E+03  0.25085175497E+03  0.00000000000E+00 0.  1.
</event>
<event>
 8    1  0.6965441E-009  0.2895124E+03  0.7561462E-02  0.1090604E+00
         -2   -1    0    0    0  501 -0.00000000000E+00  0.00000000000E+00  0.10126433535E+04  0.10126433535E+04  0.00000000000E+00 0.  1.
          2   -1    0    0  501    0  0.00000000000E+00 -0.00000000000E+00 -0.92330992703E+02  0.92330992703E+02  0.00000000000E+00 0. -1.
         25    2    1    2    0    0 -0.12641424419E+03 -0.25224217148E+03  0.39396918384E+03  0.50046483661E+03  0.12508661266E+03 0.  0.
         23    2    1    2    0    0  0.12641424419E+03  0.25224217148E+03  0.52634317694E+03  0.60450950957E+03  0.93743976038E+02 0.  0.
          5    1    3    3  502    0 -0.96244688911E+02 -0.13533681027E+03  0.31504841532E+03  0.35616298060E+03  0.41800000000E+01 0. -1.
         -5    1    3    3    0  502 -0.30169555276E+02 -0.11690536121E+03  0.78920768523E+02  0.14430185601E+03  0.41800000000E+01 0. -1.
        -11    1    4    4    0    0 -0.10420750029E+02  0.16367733468E+02  0.13381195921E+02  0.23570132251E+02  0.00000000000E+00 0. -1.
         11    1    4    4    0    0  0.13683499422E+03  0.23587443801E+03  0.51296198102E+03  0.58093937732E+03  0.00000000000E+00 0.  1.
</event>
<event>
 8    1  0.6965441E-009  0.1436729E+03  0.7561462E-02  0.1208471E+00
         -2   -1    0    0    0  501 -0.00000000000E+00  0.00000000000E+00  0.14711720778E+03  0.14711720778E+03  0.00000000000E+00 0.  1.
          2   -1    0    0  501    0  0.00000000000E+00 -0.00000000000E+00 -0.25243377728E+03  0.25243377728E+03  0.00000000000E+00 0. -1.
         25    2    1    2    0    0  0.56276676977E+02  0.11010994342E+03 -0.15813114319E+03  0.23652418589E+03  0.12508784135E+03 0.  0.
         23    2    1    2    0    0 -0.56276676977E+02 -0.11010994342E+03  0.52814573686E+02  0.16302679916E+03  0.92179683444E+02 0.  0.
          5    1    3    3  502    0  0.74656244561E+02  0.58660787754E+02 -0.15477993129E+03  0.18162858366E+03  0.41800000000E+01 0. -1.
         -5    1    3    3    0  502 -0.18379567583E+02  0.51449155668E+02 -0.33512119029E+01  0.54895602235E+02  0.41800000000E+01 0. -1.
        -11    1    4    4    0    0 -0.31261872671E+02 -0.78395607625E+01  0.47763592295E+02  0.57620518436E+02  0.00000000000E+00 0.  1.
         11    1    4    4    0    0 -0.25014804306E+02 -0.10227038266E+03  0.50509813914E+01  0.10540628073E+03  0.00000000000E+00 0. -1.
</event>
<event>
 8    1  0.6965441E-009  0.8142005E+02  0.7561462E-02  0.1325069E+00
          1   -1    0    0  501    0  0.00000000000E+00  0.00000000000E+00  0.53336719480E+03  0.53336719480E+03  0.00000000000E+00 0. -1.
         -1   -1    0    0    0  501 -0.00000000000E+00 -0.00000000000E+00 -0.27496862683E+02  0.27496862683E+02  0.00000000000E+00 0.  1.
         25    2    1    2    0    0  0.37018541094E+02 -0.13072606044E+02  0.37103614680E+03  0.39351928492E+03  0.12509332499E+03 0.  0.
         23    2    1    2    0    0 -0.37018541094E+02  0.13072606044E+02  0.13483418531E+03  0.16734477256E+03  0.91009614661E+02 0.  0.
          5    1    3    3  502    0  0.42521776181E+02  0.29719392747E+02  0.59791185662E+02  0.79270436089E+02  0.41800000000E+01 0.  1.
         -5    1    3    3    0  502 -0.55032350872E+01 -0.42791998791E+02  0.31124496114E+03  0.31424884883E+03  0.41800000000E+01 0.  1.
        -11    1    4    4    0    0 -0.80847640718E+01  0.31912390120E+02  0.12797727804E+03  0.13214366329E+03  0.00000000000E+00 0. -1.
         11    1    4    4    0    0 -0.28933777022E+02 -0.18839784075E+02  0.68569072774E+01  0.35201109275E+02  0.00000000000E+00 0.  1.
</event>
<event>
 8    1  0.6965441E-009  0.1037104E+03  0.7561462E-02  0.1272682E+00
         -2   -1    0    0    0  501 -0.00000000000E+00  0.00000000000E+00  0.55167061784E+02  0.55167061784E+02  0.00000000000E+00 0.  1.
          2   -1    0    0  501    0  0.00000000000E+00 -0.00000000000E+00 -0.31055917297E+03  0.31055917297E+03  0.00000000000E+00 0. -1.
         25    2    1    2    0    0  0.79911732745E+01  0.70180946770E+02 -0.16862888559E+03  0.22152212021E+03  0.12508846689E+03 0.  0.
         23    2    1    2    0    0 -0.79911732745E+01 -0.70180946770E+02 -0.86763225591E+02  0.14420411454E+03  0.90982114696E+02 0.  0.
          5    1    3    3  502    0  0.36590770713E+02  0.25235618593E+02 -0.16156561487E+03  0.16762052755E+03  0.41800000000E+01 0.  1.
         -5    1    3    3    0  502 -0.28599597438E+02  0.44945328177E+02 -0.70632707197E+01  0.53901592665E+02  0.41800000000E+01 0.  1.
        -11    1    4    4    0    0 -0.40439052922E+02 -0.64894354886E+02 -0.37977306345E+02  0.85374879763E+02  0.00000000000E+00 0.  1.
         11    1    4    4    0    0  0.32447879648E+02 -0.52865918843E+01 -0.48785919246E+02  0.58829234774E+02  0.00000000000E+00 0. -1.
</event>
<event>
 8    1  0.6965441E-009  0.1665162E+03  0.7561462E-02  0.1181530E+00
          1   -1    0    0  501    0  0.00000000000E+00  0.00000000000E+00  0.96104359561E+02  0.96104359561E+02  0.00000000000E+00 0. -1.
         -1   -1    0    0    0  501 -0.00000000000E+00 -0.00000000000E+00 -0.37776822204E+03  0.37776822204E+03  0.00000000000E+00 0.  1.
         25    2    1    2    0    0 -0.40715034907E+02 -0.13896960886E+03 -0.70212999249E+02  0.20383579054E+03  0.12509555542E+03 0.  0.
         23    2    1    2    0    0  0.40715034907E+02  0.13896960886E+03 -0.21145086323E+03  0.27003679106E+03  0.85077227936E+02 0.  0.
          5    1    3    3  502    0  0.19685583092E+02 -0.11954049018E+03 -0.70532368555E+02  0.14024884452E+03  0.41800000000E+01 0.  1.
         -5    1    3    3    0  502 -0.60400617999E+02 -0.19429118676E+02  0.31936930612E+00  0.63586946018E+02  0.41800000000E+01 0.  1.
        -11    1    4    4    0    0  0.15725671403E+02  0.14903885547E+02  0.21353376570E+01  0.21771132548E+02  0.00000000000E+00 0. -1.
         11    1    4    4    0    0  0.24989363504E+02  0.12406572331E+03 -0.21358620088E+03  0.24826565851E+03  0.00000000000E+00 0.  1.
</event>
<event>
 8    1  0.6965441E-009  0.1385078E+03  0.7561462E-02  0.1215351E+00
         -2   -1    0    0    0  501 -0.00000000000E+00  0.00000000000E+00  0.57389137805E+02  0.57389137805E+02  0.00000000000E+00 0.  1.
          2   -1    0    0  501    0  0.00000000000E+00 -0.00000000000E+00 -0.40876342393E+03  0.40876342393E+03  0.00000000000E+00 0. -1.
         25    2    1    2    0    0 -0.10736466139E+03 -0.54567441941E+01 -0.20671107765E+03  0.26445130552E+03  0.12509227312E+03 0.  0.
         23    2    1    2    0    0  0.10736466139E+03  0.54567441941E+01 -0.14466320847E+03  0.20170125621E+03  0.90548364424E+02 0.  0.
          5    1    3    3  502    0 -0.12265830652E+03 -0.23728840303E+01 -0.21401910654E+03  0.24672320746E+03  0.41800000000E+01 0.  1.
         -5    1    3    3    0  502  0.15293645128E+02 -0.30838601638E+01  0.73080288824E+01  0.17728098063E+02  0.41800000000E+01 0.  1.
        -11    1    4    4    0    0  0.18708450407E+02 -0.35748115681E+02 -0.26205590880E+02  0.48110985074E+02  0.00000000000E+00 0.  1.
         11    1    4    4    0    0  0.88656210983E+02  0.41204859875E+02 -0.11845761759E+03  0.15359027114E+03  0.00000000000E+00 0. -1.
</event>
<event>
 8    1  0.6965441E-009  0.1267967E+03  0.7561462E-02  0.1232288E+00
          1   -1    0    0  501    0  0.00000000000E+00  0.00000000000E+00  0.60961135290E+02  0.60961135290E+02  0.00000000000E+00 0. -1.
         -1   -1    0    0    0  501 -0.00000000000E+00 -0.00000000000E+00 -0.30680662908E+03  0.30680662908E+03  0.00000000000E+00 0.  1.
         25    2    1    2    0    0 -0.58087606002E+02 -0.38530256286E+02 -0.18040868261E+03  0.23033329881E+03  0.12508950858E+03 0.  0.
         23    2    1    2    0    0  0.58087606002E+02  0.38530256286E+02 -0.65436811172E+02  0.13743446556E+03  0.98729455817E+02 0.  0.
          5    1    3    3  502    0 -0.58506711744E+02  0.30823628774E+02 -0.12495229362E+03  0.14143436461E+03  0.41800000000E+01 0.  1.
         -5    1    3    3    0  502  0.41910574173E+00 -0.69353885060E+02 -0.55456388990E+02  0.88898934203E+02  0.41800000000E+01 0.  1.
        -11    1    4    4    0    0  0.11670787534E+02  0.63897433544E+02 -0.51055375866E+02  0.82618041008E+02  0.00000000000E+00 0.  1.
         11    1    4    4    0    0  0.46416818468E+02 -0.25367177258E+02 -0.14381435305E+02  0.54816424548E+02  0.00000000000E+00 0. -1.
</event>
<event>
 8    1  0.6965441E-009  0.1492814E+03  0.7561462E-02  0.1201359E+00
          1   -1    0    0  501    0  0.00000000000E+00  0.00000000000E+00  0.19444279680E+03  0.19444279680E+03  0.00000000000E+00 0. -1.
         -1   -1    0    0    0  501 -0.00000000000E+00 -0.00000000000E+00 -0.16701174046E+03  0.16701174046E+03  0.00000000000E+00 0.  1.
         25    2    1    2    0    0  0.10660188656E+03  0.78047721866E+02 -0.40486375735E+02  0.18639447131E+03  0.12509333798E+03 0.  0.
         23    2    1    2    0    0 -0.10660188656E+03 -0.78047721866E+02  0.67917432081E+02  0.17506006595E+03  0.92616629198E+02 0.  0.
          5    1    3    3  502    0 -0.13474646131E+02  0.35719731236E+02 -0.44706542658E+02  0.58937362041E+02  0.41800000000E+01 0. -1.
         -5    1    3    3    0  502  0.12007653269E+03  0.42327990631E+02  0.42201669231E+01  0.12745710927E+03  0.41800000000E+01 0. -1.
        -11    1    4    4    0    0 -0.47092487111E+02 -0.42612910288E+02 -0.16741084041E+02  0.65679725642E+02  0.00000000000E+00 0.  1.
         11    1    4    4    0    0 -0.59509399448E+02 -0.35434811578E+02  0.84658516122E+02  0.10938034031E+03  0.00000000000E+00 0. -1.
</event>
<event>
 8    1  0.6965441E-009  0.1335477E+03  0.7561462E-02  0.1222284E+00
         -1   -1    0    0    0  501 -0.00000000000E+00  0.00000000000E+00  0.20100661154E+02  0.20100661154E+02  0.00000000000E+00 0.  1.
          1   -1    0    0  501    0  0.00000000000E+00 -0.00000000000E+00 -0.95585749653E+03  0.95585749653E+03  0.00000000000E+00 0. -1.
         25    2    1    2    0    0  0.26444590618E+02 -0.74326312657E+02 -0.61319639724E+03  0.63077793369E+03  0.12508901998E+03 0.  0.
         23    2    1    2    0    0 -0.26444590618E+02  0.74326312657E+02 -0.32256043814E+03  0.34518022400E+03  0.94236052861E+02 0.  0.
          5    1    3    3  502    0 -0.40135095639E+02  0.68398452430E+01 -0.22071796574E+03  0.22448051628E+03  0.41800000000E+01 0. -1.
         -5    1    3    3    0  502  0.66579686257E+02 -0.81166157900E+02 -0.39247843149E+03  0.40629741742E+03  0.41800000000E+01 0. -1.
        -11    1    4    4    0    0 -0.60284921192E+02  0.37055365283E+02 -0.21666405026E+03  0.22792692358E+03  0.00000000000E+00 0. -1.
         11    1    4    4    0    0  0.33840330574E+02  0.37270947375E+02 -0.10589638788E+03  0.11725330042E+03  0.00000000000E+00 0.  1.
</event>
<event>
 8    1  0.6965441E-009  0.8844885E+02  0.7561462E-02  0.1306652E+00
          1   -1    0    0  501    0  0.00000000000E+00  0.00000000000E+00  0.73646522409E+03  0.73646522409E+03  0.00000000000E+00 0. -1.
         -1   -1    0    0    0  501 -0.00000000000E+00 -0.00000000000E+00 -0.30347824597E+02  0.30347824597E+02  0.00000000000E+00 0.  1.
         25    2    1    2    0    0 -0.24551816255E+02  0.46360053476E+02  0.60919441823E+03  0.62411288154E+03  0.12508798288E+03 0.  0.
         23    2    1    2    0    0  0.24551816255E+02 -0.46360053476E+02  0.96922981264E+02  0.14270016715E+03  0.90648922595E+02 0.  0.
          5    1    3    3  502    0  0.15882195132E+02  0.66885127179E+02  0.51392961106E+03  0.51852384890E+03  0.41800000000E+01 0.  1.
         -5    1    3    3    0  502 -0.40434011387E+02 -0.20525073703E+02  0.95264807178E+02  0.10558903264E+03  0.41800000000E+01 0.  1.
        -11    1    4    4    0    0 -0.29400138933E+01 -0.30717390831E+02 -0.90095499711E+01  0.32146131522E+02  0.00000000000E+00 0.  1.
         11    1    4    4    0    0  0.27491830149E+02 -0.15642662645E+02  0.10593253123E+03  0.11055403563E+03  0.00000000000E+00 0. -1.
</event>
<event>
 8    1  0.6965441E-009  0.1800334E+03  0.7561462E-02  0.1167771E+00
         -2   -1    0    0    0  501 -0.00000000000E+00  0.00000000000E+00  0.40654327256E+03  0.40654327256E+03  0.00000000000E+00 0.  1.
          2   -1    0    0  501    0  0.00000000000E+00 -0.00000000000E+00 -0.17279400504E+03  0.17279400504E+03  0.00000000000E+00 0. -1.
         25    2    1    2    0    0 -0.78642134306E+01 -0.15928281169E+03  0.31894128428E+03  0.37789080755E+03  0.12508021290E+03 0.  0.
         23    2    1    2    0    0  0.78642134306E+01  0.15928281169E+03 -0.85192016755E+02  0.20144647005E+03  0.88826463529E+02 0.  0.
          5    1    3    3  502    0 -0.41747120428E+02 -0.46743729575E+01  0.91451547996E+02  0.10072502101E+03  0.41800000000E+01 0. -1.
         -5    1    3    3    0  502  0.33882906998E+02 -0.15460843874E+03  0.22748973628E+03  0.27716578654E+03  0.41800000000E+01 0. -1.
        -11    1    4    4    0    0  0.71133068048E+01  0.10984552547E+03 -0.10114965556E+03  0.14949211156E+03  0.00000000000E+00 0. -1.
         11    1    4    4    0    0  0.75090662575E+00  0.49437286218E+02  0.15957638803E+02  0.51954358485E+02  0.00000000000E+00 0.  1.
</event>
<event>
 8    1  0.6965441E-009  0.2445584E+03  0.7561462E-02  0.1116793E+00
         -1   -1    0    0    0  501 -0.00000000000E+00  0.00000000000E+00  0.66724804664E+03  0.66724804664E+03  0.00000000000E+00 0.  1.
          1   -1    0    0  501    0  0.00000000000E+00 -0.00000000000E+00 -0.95557348390E+02  0.95557348390E+02  0.00000000000E+00 0. -1.
         25    2    1    2    0    0  0.18935508234E+03 -0.12585528793E+03  0.31529285808E+03  0.40835258510E+03  0.12508935483E+03 0.  0.
         23    2    1    2    0    0 -0.18935508234E+03  0.12585528793E+03  0.25639784017E+03  0.35445280993E+03  0.90565121941E+02 0.  0.
          5    1    3    3  502    0  0.17483528171E+02  0.24067335049E+02  0.24488802627E+02  0.38756731387E+02  0.41800000000E+01 0.  1.
         -5    1    3    3    0  502  0.17187155417E+03 -0.14992262298E+03  0.29080405545E+03  0.36959585371E+03  0.41800000000E+01 0.  1.
        -11    1    4    4    0    0 -0.92081370645E+02  0.85498745585E+02  0.19666302792E+03  0.23337814994E+03  0.00000000000E+00 0.  1.
         11    1    4    4    0    0 -0.97273711699E+02  0.40356542350E+02  0.59734812252E+02  0.12107466000E+03  0.00000000000E+00 0. -1.
</event>
<event>
 8    1  0.6965441E-009  0.2046349E+03  0.7561462E-02  0.1145886E+00
         -1   -1    0    0    0  501 -0.00000000000E+00  0.00000000000E+00  0.11354369008E+03  0.11354369008E+03  0.00000000000E+00 0.  1.
          1   -1    0    0  501    0  0.00000000000E+00 -0.00000000000E+00 -0.39426838201E+03  0.39426838201E+03  0.00000000000E+00 0. -1.
         25    2    1    2    0    0  0.68560979637E+02 -0.15997767568E+03 -0.20076787199E+03  0.29368035515E+03  0.12508776092E+03 0.  0.
         23    2    1    2    0    0 -0.68560979637E+02  0.15997767568E+03 -0.79956819937E+02  0.21413171694E+03  0.95738364834E+02 0.  0.
          5    1    3    3  502    0 -0.95118739255E+01 -0.12709655085E+03 -0.13980457585E+03  0.18922685013E+03  0.41800000000E+01 0.  1.
         -5    1    3    3    0  502  0.78072853562E+02 -0.32881124832E+02 -0.60963296145E+02  0.10445350502E+03  0.41800000000E+01 0.  1.
        -11    1    4    4    0    0  0.16776842378E+02  0.73677568138E+02 -0.44487126913E+02  0.87686663455E+02  0.00000000000E+00 0.  1.
         11    1    4    4    0    0 -0.85337822015E+02  0.86300107547E+02 -0.35469693024E+02  0.12644505349E+03  0.00000000000E+00 0. -1.
</event>
<event>
 8    1  0.6965441E-009  0.9004331E+02  0.7561462E-02  0.1302747E+00
          2   -1    0    0  501    0  0.00000000000E+00  0.00000000000E+00  0.34230132143E+03  0.34230132143E+03  0.00000000000E+00 0.  1.
         -2   -1    0    0    0  501 -0.00000000000E+00 -0.00000000000E+00 -0.37789618169E+02  0.37789618169E+02  0.00000000000E+00 0. -1.
         25    2    1    2    0    0 -0.19294238218E+02 -0.11024101822E+02  0.24064990040E+03  0.27212797274E+03  0.12508980989E+03 0.  0.
         23    2    1    2    0    0  0.19294238218E+02  0.11024101822E+02  0.63861802858E+02  0.10796296685E+03  0.84165752524E+02 0.  0.
          5    1    3    3  502    0  0.37518275466E+02  0.26027087142E+01  0.19284627050E+03  0.19652366659E+03  0.41800000000E+01 0.  1.
         -5    1    3    3    0  502 -0.56812513684E+02 -0.13626810536E+02  0.47803629902E+02  0.75604306149E+02  0.41800000000E+01 0.  1.
        -11    1    4    4    0    0  0.75406764068E+01  0.46083432344E+02  0.20562223892E+02  0.51023029983E+02  0.00000000000E+00 0. -1.
         11    1    4    4    0    0  0.11753561812E+02 -0.35059330523E+02  0.43299578966E+02  0.56939936869E+02  0.00000000000E+00 0.  1.
</event>
<event>
 8    1  0.6965441E-009  0.1110454E+03  0.7561462E-02  0.1258646E+00
         -1   -1    0    0    0  501 -0.00000000000E+00  0.00000000000E+00  0.31093626261E+02  0.31093626261E+02  0.00000000000E+00 0.  1.
          1   -1    0    0  501    0  0.00000000000E+00 -0.00000000000E+00 -0.95752470043E+03  0.95752470043E+03  0.00000000000E+00 0. -1.
         25    2    1    2    0    0 -0.56840115338E+02  0.62831739522E+02 -0.78431610059E+03  0.79873248297E+03  0.12507280879E+03 0.  0.
         23    2    1    2    0    0  0.56840115338E+02 -0.62831739522E+02 -0.14211497357E+03  0.18988584372E+03  0.93173718012E+02 0.  0.
          5    1    3    3  502    0 -0.52622474290E+02 -0.82220655221E+01 -0.57759130837E+03  0.58005682400E+03  0.41800000000E+01 0.  1.
         -5    1    3    3    0  502 -0.42176410477E+01  0.71053805044E+02 -0.20672479222E+03  0.21867565897E+03  0.41800000000E+01 0.  1.
        -11    1    4    4    0    0  0.40120186018E+02 -0.91651445892E+01 -0.12427514778E+03  0.13091196109E+03  0.00000000000E+00 0. -1.
         11    1    4    4    0    0  0.16719929320E+02 -0.53666594933E+02 -0.17839825800E+02  0.58973882632E+02  0.00000000000E+00 0.  1.
</event>
<event>
 8    1  0.6965441E-009  0.7985872E+02  0.7561462E-02  0.1329453E+00
         -3   -1    0    0    0  501 -0.00000000000E+00  0.00000000000E+00  0.38154248080E+02  0.38154248080E+02  0.00000000000E+00 0.  1.
          3   -1    0    0  501    0  0.00000000000E+00 -0.00000000000E+00 -0.40058411094E+03  0.40058411094E+03  0.00000000000E+00 0. -1.
         25    2    1    2    0    0 -0.26664183110E+02  0.51228320606E+02 -0.24117652777E+03  0.27775800983E+03  0.12509226589E+03 0.  0.
         23    2    1    2    0    0  0.26664183110E+02 -0.51228320606E+02 -0.12125333510E+03  0.16098034920E+03  0.88752363697E+02 0.  0.
          5    1    3    3  502    0 -0.29592628609E+01  0.36441322741E+02 -0.19306533515E+01  0.36850061902E+02  0.41800000000E+01 0. -1.
         -5    1    3    3    0  502 -0.23704920249E+02  0.14786997866E+02 -0.23924587442E+03  0.24090794793E+03  0.41800000000E+01 0. -1.
        -11    1    4    4    0    0  0.38392997025E+02 -0.65666450852E+02 -0.59755239083E+02  0.96730520447E+02  0.00000000000E+00 0.  1.
         11    1    4    4    0    0 -0.11728813915E+02  0.14438130245E+02 -0.61498096014E+02  0.64249828749E+02  0.00000000000E+00 0. -1.
</event>
<event>
 8    1  0.6965441E-009  0.8180452E+02  0.7561462E-02  0.1324007E+00
         -2   -1    0    0    0  501 -0.00000000000E+00  0.00000000000E+00  0.44037755765E+02  0.44037755765E+02  0.00000000000E+00 0. -1.
          2   -1    0    0  501    0  0.00000000000E+00 -0.00000000000E+00 -0.30757743204E+03  0.30757743204E+03  0.00000000000E+00 0.  1.
         25    2    1    2    0    0  0.36182841741E+01  0.16367337861E+02 -0.90070809775E+02  0.15505186292E+03  0.12508935883E+03 0.  0.
         23    2    1    2    0    0 -0.36182841741E+01 -0.16367337861E+02 -0.17346886650E+03  0.19656332489E+03  0.90910457688E+02 0.  0.
          5    1    3    3  502    0  0.28408190971E+02  0.32480906942E+02  0.14957619860E+02  0.45861066515E+02  0.41800000000E+01 0.  1.
         -5    1    3    3    0  502 -0.24789906797E+02 -0.16113569081E+02 -0.10502842963E+03  0.10919079640E+03  0.41800000000E+01 0.  1.
        -11    1    4    4    0    0  0.34764093963E+02 -0.33576418082E+02 -0.11300948506E+03  0.12291078795E+03  0.00000000000E+00 0.  1.
         11    1    4    4    0    0 -0.38382378137E+02  0.17209080222E+02 -0.60459381436E+02  0.73652536936E+02  0.00000000000E+00 0. -1.
</event>
<event>
 8    1  0.6965441E-009  0.3233256E+03  0.7561462E-02  0.1074129E+00
         -1   -1    0    0    0  501 -0.00000000000E+00  0.00000000000E+00  0.10552055411E+03  0.10552055411E+03  0.00000000000E+00 0.  1.
          1   -1    0    0  501    0  0.00000000000E+00 -0.00000000000E+00 -0.12759113367E+04  0.12759113367E+04  0.00000000000E+00 0. -1.
         25    2    1    2    0    0 -0.24603769286E+03  0.19674061872E+03 -0.88569063049E+03  0.94833357857E+03  0.12508903205E+03 0.  0.
         23    2    1    2    0    0  0.24603769286E+03 -0.19674061872E+03 -0.28470015214E+03  0.43309831228E+03  0.85314442538E+02 0.  0.
          5    1    3    3  502    0  0.30756640938E+01 -0.71700757922E+01 -0.40245463920E+01  0.97231203914E+01  0.41800000000E+01 0. -1.
         -5    1    3    3    0  502 -0.24911335696E+03  0.20391069452E+03 -0.88166608410E+03  0.93861045818E+03  0.41800000000E+01 0. -1.
        -11    1    4    4    0    0  0.15368382401E+03 -0.10860256031E+03 -0.11428413247E+03  0.22016833742E+03  0.00000000000E+00 0. -1.
         11    1    4    4    0    0  0.92353868852E+02 -0.88138058416E+02 -0.17041601967E+03  0.21292997486E+03  0.00000000000E+00 0.  1.
</event>
<event>
 8    1  0.6965441E-009  0.1148277E+03  0.7561462E-02  0.1251882E+00
         -2   -1    0    0    0  501 -0.00000000000E+00  0.00000000000E+00  0.58465832596E+02  0.58465832596E+02  0.00000000000E+00 0.  1.
          2   -1    0    0  501    0  0.00000000000E+00 -0.00000000000E+00 -0.41571890715E+03  0.41571890715E+03  0.00000000000E+00 0. -1.
         25    2    1    2    0    0  0.65312018818E+02 -0.41034161702E+02 -0.31323099676E+03  0.34599215299E+03  0.12508976926E+03 0.  0.
         23    2    1    2    0    0 -0.65312018818E+02  0.41034161702E+02 -0.44022077791E+02  0.12819258675E+03  0.92444219590E+02 0.  0.
          5    1    3    3  502    0  0.15612158825E+02  0.23112355781E+02 -0.22215583221E+03  0.22393884584E+03  0.41800000000E+01 0. -1.
         -5    1    3    3    0  502  0.49699859993E+02 -0.64146517482E+02 -0.91075164548E+02  0.12205330715E+03  0.41800000000E+01 0. -1.
        -11    1    4    4    0    0 -0.47534582181E+02  0.70948249796E+02 -0.27906000130E+02  0.89843950801E+02  0.00000000000E+00 0.  1.
         11    1    4    4    0    0 -0.17777436637E+02 -0.29914088094E+02 -0.16116077662E+02  0.38348635948E+02  0.00000000000E+00 0. -1.
</event>
<event>
 8    1  0.6965441E-009  0.1050483E+03  0.7561462E-02  0.1270025E+00
         -1   -1    0    0    0  501 -0.00000000000E+00  0.00000000000E+00  0.11313480202E+02  0.11313480202E+02  0.00000000000E+00 0.  1.
          1   -1    0    0  501    0  0.00000000000E+00 -0.00000000000E+00 -0.21521038978E+04  0.21521038978E+04  0.00000000000E+00 0. -1.
         25    2    1    2    0    0  0.75710740424E+02  0.27520140291E+02 -0.16985247766E+04  0.17050289974E+04  0.12509192994E+03 0.  0.
         23    2    1    2    0    0 -0.75710740424E+02 -0.27520140291E+02 -0.44226564096E+03  0.45838838056E+03  0.89618836853E+02 0.  0.
          5    1    3    3  502    0  0.64752305830E+02  0.41318805859E+02 -0.46117814042E+03  0.46754984165E+03  0.41800000000E+01 0. -1.
         -5    1    3    3    0  502  0.10958434594E+02 -0.13798665567E+02 -0.12373466362E+04  0.12374791558E+04  0.41800000000E+01 0. -1.
        -11    1    4    4    0    0 -0.21892071482E+02 -0.51636847914E+02 -0.14799021871E+03  0.15826159259E+03  0.00000000000E+00 0.  1.
         11    1    4    4    0    0 -0.53818668943E+02  0.24116707623E+02 -0.29427542225E+03  0.30012678796E+03  0.00000000000E+00 0. -1.
</event>
<event>
 8    1  0.6965441E-009  0.2047492E+03  0.7561462E-02  0.1145793E+00
         -2   -1    0    0    0  501 -0.00000000000E+00  0.00000000000E+00  0.60346314137E+02  0.60346314137E+02  0.00000000000E+00 0.  1.
          2   -1    0    0  501    0  0.00000000000E+00 -0.00000000000E+00 -0.80424432987E+03  0.80424432987E+03  0.00000000000E+00 0. -1.
         25    2    1    2    0    0  0.16257452930E+03  0.71863228369E+02 -0.52723695581E+03  0.57028194074E+03  0.12509149931E+03 0.  0.
         23    2    1    2    0    0 -0.16257452930E+03 -0.71863228369E+02 -0.21666105993E+03  0.29430870326E+03  0.89893252027E+02 0.  0.
          5    1    3    3  502    0  0.27194775843E+02  0.74068280924E+02 -0.15139926752E+03  0.17077727214E+03  0.41800000000E+01 0. -1.
         -5    1    3    3    0  502  0.13537975346E+03 -0.22050525550E+01 -0.37583768829E+03  0.39950466861E+03  0.41800000000E+01 0. -1.
        -11    1    4    4    0    0 -0.13519014626E+02  0.16820635401E+02 -0.80949896241E+01  0.23048348938E+02  0.00000000000E+00 0.  1.
         11    1    4    4    0    0 -0.14905551467E+03 -0.88683863770E+02 -0.20856607030E+03  0.27126035433E+03  0.00000000000E+00 0. -1.
</event>
<event>
 8    1  0.6965441E-009  0.1112968E+03  0.7561462E-02  0.1258187E+00
          2   -1    0    0  501    0  0.00000000000E+00  0.00000000000E+00  0.22433477842E+03  0.22433477842E+03  0.00000000000E+00 0. -1.
         -2   -1    0    0    0  501 -0.00000000000E+00 -0.00000000000E+00 -0.90748276254E+02  0.90748276254E+02  0.00000000000E+00 0.  1.
         25    2    1    2    0    0  0.15265575523E+02  0.55675804957E+02  0.14897639390E+03  0.20291466366E+03  0.12509021438E+03 0.  0.
         23    2    1    2    0    0 -0.15265575523E+02 -0.55675804957E+02 -0.15389891744E+02  0.11216839101E+03  0.94931902544E+02 0.  0.
          5    1    3    3  502    0 -0.24563018254E+02  0.80279733036E+02  0.63421827685E+02  0.10529946832E+03  0.41800000000E+01 0.  1.
         -5    1    3    3    0  502  0.39828593777E+02 -0.24603928079E+02  0.85554566220E+02  0.97615195335E+02  0.41800000000E+01 0.  1.
        -11    1    4    4    0    0 -0.43954292223E+02 -0.34510896695E+02  0.22409068482E+02  0.60209203165E+02  0.00000000000E+00 0. -1.
         11    1    4    4    0    0  0.28688716700E+02 -0.21164908262E+02 -0.37798960225E+02  0.51959187847E+02  0.00000000000E+00 0.  1.
</event>
<event>
 7    1  0.6965441E-009  0.1231467E+03  0.7561462E-02  0.1237994E+00
          3   -1    0    0  501    0  0.00000000000E+00  0.00000000000E+00  0.17190719808E+03  0.17190719808E+03  0.00000000000E+00 0. -1.
         -3   -1    0    0    0  501 -0.00000000000E+00 -0.00000000000E+00 -0.11799228421E+03  0.11799228421E+03  0.00000000000E+00 0.  1.
         23    2    1    2    0    0 -0.80197542230E+02  0.40447617697E+02  0.46254172557E+02  0.13595240570E+03  0.90972262695E+02 0.  0.
          5    1    1    2  502    0  0.74599378385E+01 -0.66580273030E+02 -0.22614741683E+02  0.70834189278E+02  0.41800000000E+01 0. -1.
         -5    1    1    2    0  502  0.72737604391E+02  0.26132655333E+02  0.30275482999E+02  0.83112887317E+02  0.41800000000E+01 0. -1.
        -11    1    3    3    0    0 -0.54260246473E+02  0.50328925239E+02 -0.85701580297E+01  0.74502501110E+02  0.00000000000E+00 0.  1.
         11    1    3    3    0    0 -0.25937295757E+02 -0.98813075418E+01  0.54824330587E+02  0.61449904591E+02  0.00000000000E+00 0. -1.
</event>
<event>
 8    1  0.6965441E-009  0.1236558E+03  0.7561462E-02  0.1237185E+00
          4   -1    0    0  501    0  0.00000000000E+00  0.00000000000E+00  0.39207739503E+03  0.39207739503E+03  0.00000000000E+00 0. -1.
         -4   -1    0    0    0  501 -0.00000000000E+00 -0.00000000000E+00 -0.44478461735E+02  0.44478461735E+02  0.00000000000E+00 0.  1.
         25    2    1    2    0    0 -0.63935111549E+01  0.64120113010E+02  0.12879769112E+03  0.19075769468E+03  0.12508951581E+03 0.  0.
         23    2    1    2    0    0  0.63935111549E+01 -0.64120113010E+02  0.21880124218E+03  0.24579816209E+03  0.91599601691E+02 0.  0.
          5    1    3    3  502    0  0.40620926823E+02  0.80719924870E+02  0.77810762081E+02  0.11932205606E+03  0.41800000000E+01 0. -1.
         -5    1    3    3    0  502 -0.47014437977E+02 -0.16599811860E+02  0.50986929038E+02  0.71435638619E+02  0.41800000000E+01 0. -1.
        -11    1    4    4    0    0  0.45030436876E+02 -0.45174685250E+02  0.92438363729E+02  0.11230914264E+03  0.00000000000E+00 0.  1.
         11    1    4    4    0    0 -0.38636925721E+02 -0.18945427760E+02  0.12636287845E+03  0.13348901944E+03  0.00000000000E+00 0. -1.
</event>
<event>
 8    1  0.6965441E-009  0.1255854E+03  0.7561462E-02  0.1234157E+00
          2   -1    0    0  501    0  0.00000000000E+00  0.00000000000E+00  0.11142796014E+04  0.11142796014E+04  0.00000000000E+00 0. -1.
         -2   -1    0    0    0  501 -0.00000000000E+00 -0.00000000000E+00 -0.15555643284E+02  0.15555643284E+02  0.00000000000E+00 0.  1.
         25    2    1    2    0    0  0.47836351811E+02  0.31661501983E+02  0.70866217264E+03  0.72190109645E+03  0.12509336858E+03 0.  0.
         23    2    1    2    0    0 -0.47836351811E+02 -0.31661501983E+02  0.39006178546E+03  0.40793414822E+03  0.10474400004E+03 0.  0.
          5    1    3    3  502    0  0.88614008956E+02  0.67564682774E+01  0.42502317646E+03  0.43423526501E+03  0.41800000000E+01 0.  1.
         -5    1    3    3    0  502 -0.40777657145E+02  0.24905033706E+02  0.28363899618E+03  0.28766583144E+03  0.41800000000E+01 0.  1.
        -11    1    4    4    0    0 -0.44230358714E+02  0.29373711148E+02  0.12313898703E+03  0.13409828360E+03  0.00000000000E+00 0. -1.
         11    1    4    4    0    0 -0.36059930967E+01 -0.61035213131E+02  0.26692279843E+03  0.27383586462E+03  0.00000000000E+00 0.  1.
</event>
<event>
 8    1  0.6965441E-009  0.8717159E+02  0.7561462E-02  0.1309849E+00
          1   -1    0    0  501    0  0.00000000000E+00  0.00000000000E+00  0.57611604081E+03  0.57611604081E+03  0.00000000000E+00 0. -1.
         -1   -1    0    0    0  501 -0.00000000000E+00 -0.00000000000E+00 -0.44984603034E+02  0.44984603034E+02  0.00000000000E+00 0.  1.
         25    2    1    2    0    0  0.41718856509E+02 -0.30817147496E+02  0.48716683362E+03  0.50563847649E+03  0.12509430667E+03 0.  0.
         23    2    1    2    0    0 -0.41718856509E+02  0.30817147496E+02  0.43964604153E+02  0.11546216735E+03  0.93319162569E+02 0.  0.
          5    1    3    3  502    0  0.79446637053E+02 -0.26188953035E+02  0.42070132203E+03  0.42895769506E+03  0.41800000000E+01 0. -1.
         -5    1    3    3    0  502 -0.37727780544E+02 -0.46281944613E+01  0.66465511593E+02  0.76680781425E+02  0.41800000000E+01 0. -1.
        -11    1    4    4    0    0 -0.31237831081E+02  0.19046349233E+02 -0.25264343239E+02  0.44461810007E+02  0.00000000000E+00 0.  1.
         11    1    4    4    0    0 -0.10481025428E+02  0.11770798263E+02  0.69228947393E+02  0.71000357343E+02  0.00000000000E+00 0. -1.
</event>
<event>
 8    1  0.6965441E-009  0.1062779E+03  0.7561462E-02  0.1267622E+00
         -2   -1    0    0    0  501 -0.00000000000E+00  0.00000000000E+00  0.52685949000E+02  0.52685949000E+02  0.00000000000E+00 0. -1.
          2   -1    0    0  501    0  0.00000000000E+00 -0.00000000000E+00 -0.25687148011E+03  0.25687148011E+03  0.00000000000E+00 0.  1.
         25    2    1    2    0    0 -0.14622615594E+02  0.83242930950E+01 -0.16505987161E+03  0.20778504816E+03  0.12508697086E+03 0.  0.
         23    2    1    2    0    0  0.14622615594E+02 -0.83242930950E+01 -0.39125659493E+02  0.10177238095E+03  0.92432059104E+02 0.  0.
          5    1    3    3  502    0 -0.18830679569E+02 -0.54127040126E+02 -0.11092289420E+03  0.12492274342E+03  0.41800000000E+01 0.  1.
         -5    1    3    3    0  502  0.42080639757E+01  0.62451333221E+02 -0.54136977414E+02  0.82862304742E+02  0.41800000000E+01 0.  1.
        -11    1    4    4    0    0 -0.65039780311E+01  0.39524928017E+02 -0.78158972892E+01  0.40811884487E+02  0.00000000000E+00 0. -1.
         11    1    4    4    0    0  0.21126593625E+02 -0.47849221112E+02 -0.31309762204E+02  0.60960496458E+02  0.00000000000E+00 0.  1.
</event>
<event>
 8    1  0.6965441E-009  0.8849282E+02  0.7561462E-02  0.1306543E+00
         -2   -1    0    0    0  501 -0.00000000000E+00  0.00000000000E+00  0.26696005797E+02  0.26696005797E+02  0.00000000000E+00 0.  1.
          2   -1    0    0  501    0  0.00000000000E+00 -0.00000000000E+00 -0.46879750438E+03  0.46879750438E+03  0.00000000000E+00 0. -1.
         25    2    1    2    0    0  0.16501317408E+02 -0.24068090195E+02 -0.27552536645E+03  0.30399601630E+03  0.12509110249E+03 0.  0.
         23    2    1    2    0    0 -0.16501317408E+02  0.24068090195E+02 -0.16657613213E+03  0.19149749388E+03  0.89844954927E+02 0.  0.
          5    1    3    3  502    0  0.47793667995E+02  0.23155245289E+02 -0.21282417638E+03  0.21939006936E+03  0.41800000000E+01 0.  1.
         -5    1    3    3    0  502 -0.31292350587E+02 -0.47223335484E+02 -0.62701190080E+02  0.84605946936E+02  0.41800000000E+01 0.  1.
        -11    1    4    4    0    0  0.24297998578E+01 -0.19371958821E+02 -0.13049515690E+01  0.19567309844E+02  0.00000000000E+00 0.  1.
         11    1    4    4    0    0 -0.18931117266E+02  0.43440049016E+02 -0.16527118056E+03  0.17193018404E+03  0.00000000000E+00 0. -1.
</event>
<event>
 8    1  0.6965441E-009  0.1278616E+03  0.7561462E-02  0.1230664E+00
         -1   -1    0    0    0  501 -0.00000000000E+00  0.00000000000E+00  0.44581510778E+02  0.44581510778E+02  0.00000000000E+00 0.  1.
          1   -1    0    0  501    0  0.00000000000E+00 -0.00000000000E+00 -0.50083921649E+03  0.50083921649E+03  0.00000000000E+00 0. -1.
         25    2    1    2    0    0 -0.40490063501E+02 -0.86893261860E+02 -0.17807537396E+03  0.23779708723E+03  0.12508689653E+03 0.  0.
         23    2    1    2    0    0  0.40490063501E+02  0.86893261860E+02 -0.27818233175E+03  0.30762364004E+03  0.89760848998E+02 0.  0.
          5    1    3    3  502    0 -0.92601527505E+01 -0.91974077856E+02 -0.48745930549E+02  0.10458785576E+03  0.41800000000E+01 0. -1.
         -5    1    3    3    0  502 -0.31229910750E+02  0.50808159960E+01 -0.12932944341E+03  0.13320923147E+03  0.41800000000E+01 0. -1.
        -11    1    4    4    0    0  0.39551252380E+02 -0.45625786863E+01 -0.88438754754E+02  0.96987277679E+02  0.00000000000E+00 0. -1.
         11    1    4    4    0    0  0.93881112084E+00  0.91455840546E+02 -0.18974357700E+03  0.21063636236E+03  0.00000000000E+00 0.  1.
</event>
<event>
 8    1  0.6965441E-009  0.1172784E+03  0.7561462E-02  0.1247656E+00
          4   -1    0    0  501    0  0.00000000000E+00  0.00000000000E+00  0.13640273004E+03  0.13640273004E+03  0.00000000000E+00 0. -1.
         -4   -1    0    0    0  501 -0.00000000000E+00 -0.00000000000E+00 -0.13174545977E+03  0.13174545977E+03  0.00000000000E+00 0.  1.
         25    2    1    2    0    0 -0.15088181970E+02  0.75546149979E+02  0.18116020008E+02  0.14803190964E+03  0.12510148712E+03 0.  0.
         23    2    1    2    0    0  0.15088181970E+02 -0.75546149979E+02 -0.13458749739E+02  0.12011628018E+03  0.91169670434E+02 0.  0.
          5    1    3    3  502    0 -0.31451874430E+02  0.88980514514E+02 -0.26803749153E+02  0.98197076010E+02  0.41800000000E+01 0. -1.
         -5    1    3    3    0  502  0.16363692460E+02 -0.13434364535E+02  0.44919769161E+02  0.49834833629E+02  0.41800000000E+01 0. -1.
        -11    1    4    4    0    0  0.52597781874E+02 -0.53373924927E+02 -0.15739670345E+01  0.74951850494E+02  0.00000000000E+00 0.  1.
         11    1    4    4    0    0 -0.37509599903E+02 -0.22172225052E+02 -0.11884782705E+02  0.45164429683E+02  0.00000000000E+00 0. -1.
</event>
<event>
 8    1  0.6965441E-009  0.1086245E+03  0.7561462E-02  0.1263138E+00
         -3   -1    0    0    0  501 -0.00000000000E+00  0.00000000000E+00  0.26625193832E+03  0.26625193832E+03  0.00000000000E+00 0.  1.
          3   -1    0    0  501    0  0.00000000000E+00 -0.00000000000E+00 -0.53556092792E+02  0.53556092792E+02  0.00000000000E+00 0. -1.
         25    2    1    2    0    0  0.25530194148E+01 -0.32226330244E+02  0.17132724006E+03  0.21458065405E+03  0.12508708821E+03 0.  0.
         23    2    1    2    0    0 -0.25530194148E+01  0.32226330244E+02  0.41368605468E+02  0.10522737706E+03  0.91194216345E+02 0.  0.
          5    1    3    3  502    0 -0.60121680562E+02 -0.26745219963E+02  0.93677192482E+02  0.11455484300E+03  0.41800000000E+01 0. -1.
         -5    1    3    3    0  502  0.62674699977E+02 -0.54811102818E+01  0.77650047574E+02  0.10002581105E+03  0.41800000000E+01 0. -1.
        -11    1    4    4    0    0 -0.26130126718E+02  0.51538927770E+02  0.46688971600E+02  0.74289330775E+02  0.00000000000E+00 0.  1.
         11    1    4    4    0    0  0.23577107303E+02 -0.19312597526E+02 -0.53203661323E+01  0.30938046282E+02  0.00000000000E+00 0. -1.
</event>
<event>
 8    1  0.6965441E-009  0.1154557E+03  0.7561462E-02  0.1250788E+00
          2   -1    0    0  501    0  0.00000000000E+00  0.00000000000E+00  0.19501276196E+02  0.19501276196E+02  0.00000000000E+00 0. -1.
         -2   -1    0    0    0  501 -0.00000000000E+00 -0.00000000000E+00 -0.10699734352E+04  0.10699734352E+04  0.00000000000E+00 0.  1.
         25    2    1    2    0    0 -0.30475293483E+02 -0.71859582037E+02 -0.77492545002E+03  0.78882974034E+03  0.12510141134E+03 0.  0.
         23    2    1    2    0    0  0.30475293483E+02  0.71859582037E+02 -0.27554670895E+03  0.30064497101E+03  0.91481510377E+02 0.  0.
          5    1    3    3  502    0 -0.50425045767E+02 -0.14352806434E+02 -0.62145016637E+03  0.62367176462E+03  0.41800000000E+01 0. -1.
         -5    1    3    3    0  502  0.19949752284E+02 -0.57506775603E+02 -0.15347528364E+03  0.16515797573E+03  0.41800000000E+01 0. -1.
        -11    1    4    4    0    0  0.41645318287E+02  0.88184886478E+02 -0.19940574536E+03  0.22197648079E+03  0.00000000000E+00 0. -1.
         11    1    4    4    0    0 -0.11170024803E+02 -0.16325304441E+02 -0.76140963583E+02  0.78668490227E+02  0.00000000000E+00 0.  1.
</event>
<event>
 8    1  0.6965441E-009  0.1375728E+03  0.7561462E-02  0.1216633E+00
          2   -1    0    0  501    0  0.00000000000E+00  0.00000000000E+00  0.23760362484E+04  0.23760362484E+04  0.00000000000E+00 0. -1.
         -2   -1    0    0    0  501 -0.00000000000E+00 -0.00000000000E+00 -0.13183635703E+02  0.13183635703E+02  0.00000000000E+00 0.  1.
         25    2    1    2    0    0 -0.88583529685E+02 -0.74277713177E+02  0.17646995262E+04  0.17729002664E+04  0.12508683474E+03 0.  0.
         23    2    1    2    0    0  0.88583529685E+02  0.74277713177E+02  0.59815308649E+03  0.61631961775E+03  0.93265942034E+02 0.  0.
          5    1    3    3  502    0 -0.45821695309E+02 -0.54556700868E+01  0.17187875487E+03  0.17801452433E+03  0.41800000000E+01 0. -1.
         -5    1    3    3    0  502 -0.42761834375E+02 -0.68822043090E+02  0.15928207714E+04  0.15948857420E+04  0.41800000000E+01 0. -1.
        -11    1    4    4    0    0 -0.16583430925E+00  0.57324148363E+02  0.26517895337E+03  0.27130418869E+03  0.00000000000E+00 0.  1.
         11    1    4    4    0    0  0.88749363994E+02  0.16953564814E+02  0.33297413311E+03  0.34501542906E+03  0.00000000000E+00 0. -1.
</event>
<event>
 8    1  0.6965441E-009  0.8253465E+02  0.7561462E-02  0.1322009E+00
          1   -1    0    0  501    0  0.00000000000E+00  0.00000000000E+00  0.10077564800E+04  0.10077564800E+04  0.00000000000E+00 0. -1.
         -1   -1    0    0    0  501 -0.00000000000E+00 -0.00000000000E+00 -0.19761271851E+02  0.19761271851E+02  0.00000000000E+00 0.  1.
         25    2    1    2    0    0 -0.31775006478E+01  0.18632450582E+01  0.86612788170E+03  0.87512218232E+03  0.12509100022E+03 0.  0.
         23    2    1    2    0    0  0.31775006478E+01 -0.18632450582E+01  0.12186732642E+03  0.15239556950E+03  0.91428639730E+02 0.  0.
          5    1    3    3  502    0 -0.21790017092E+02 -0.36547483167E+02  0.75180492619E+03  0.75301968289E+03  0.41800000000E+01 0. -1.
         -5    1    3    3    0  502  0.18612516444E+02  0.38410728225E+02  0.11432295550E+03  0.12210249943E+03  0.41800000000E+01 0. -1.
        -11    1    4    4    0    0  0.38024394548E+02  0.14797767001E+02  0.10001431534E+03  0.10801709014E+03  0.00000000000E+00 0. -1.
         11    1    4    4    0    0 -0.34846893900E+02 -0.16661012059E+02  0.21853011074E+02  0.44378479360E+02  0.00000000000E+00 0.  1.
</event>
<event>
 8    1  0.6965441E-009  0.9113446E+02  0.7561462E-02  0.1300127E+00
          2   -1    0    0  501    0  0.00000000000E+00  0.00000000000E+00  0.16689096852E+04  0.16689096852E+04  0.00000000000E+00 0.  1.
         -2   -1    0    0    0  501 -0.00000000000E+00 -0.00000000000E+00 -0.12376078237E+02  0.12376078237E+02  0.00000000000E+00 0. -1.
         25    2    1    2    0    0 -0.31136546781E+02 -0.16585809471E+01  0.14288830076E+04  0.14346870400E+04  0.12509203776E+03 0.  0.
         23    2    1    2    0    0  0.31136546781E+02  0.16585809471E+01  0.22765059939E+03  0.24659872346E+03  0.89520386353E+02 0.  0.
          5    1    3    3  502    0 -0.11747720410E+02  0.61384736030E+02  0.73440341919E+03  0.73706984016E+03  0.41800000000E+01 0.  1.
         -5    1    3    3    0  502 -0.19388826371E+02 -0.63043316977E+02  0.69447958837E+03  0.69761719980E+03  0.41800000000E+01 0.  1.
        -11    1    4    4    0    0  0.40373671126E+02 -0.68871404885E+01  0.23015267428E+03  0.23376851692E+03  0.00000000000E+00 0.  1.
         11    1    4    4    0    0 -0.92371243452E+01  0.85457214357E+01 -0.25020748925E+01  0.12830206537E+02  0.00000000000E+00 0. -1.
</event>
<event>
 8    1  0.6965441E-009  0.9403532E+02  0.7561462E-02  0.1293364E+00
          1   -1    0    0  501    0  0.00000000000E+00  0.00000000000E+00  0.12577568006E+03  0.12577568006E+03  0.00000000000E+00 0. -1.
         -1   -1    0    0    0  501 -0.00000000000E+00 -0.00000000000E+00 -0.99741460249E+02  0.99741460249E+02  0.00000000000E+00 0.  1.
         25    2    1    2    0    0 -0.27155212706E+02  0.34934262494E+01  0.23368822075E+02  0.13016719834E+03  0.12509111909E+03 0.  0.
         23    2    1    2    0    0  0.27155212706E+02 -0.34934262494E+01  0.26653977364E+01  0.95349941972E+02  0.91295659727E+02 0.  0.
          5    1    3    3  502    0 -0.61448716365E+01  0.56027728671E+02 -0.18706397392E+02  0.59533751191E+02  0.41800000000E+01 0.  1.
         -5    1    3    3    0  502 -0.21010341069E+02 -0.52534302421E+02  0.42075219468E+02  0.70633447148E+02  0.41800000000E+01 0.  1.
        -11    1    4    4    0    0  0.50628393532E+02 -0.69091313838E+01  0.29924499215E+02  0.59215251257E+02  0.00000000000E+00 0. -1.
         11    1    4    4    0    0 -0.23473180826E+02  0.34157051344E+01 -0.27259101478E+02  0.36134690715E+02  0.00000000000E+00 0.  1.
</event>
<event>
 8    1  0.6965441E-009  0.1054745E+03  0.7561462E-02  0.1269187E+00
          2   -1    0    0  501    0  0.00000000000E+00  0.00000000000E+00  0.33598666342E+03  0.33598666342E+03  0.00000000000E+00 0. -1.
         -2   -1    0    0    0  501 -0.00000000000E+00 -0.00000000000E+00 -0.48368593381E+02  0.48368593381E+02  0.00000000000E+00 0.  1.
         25    2    1    2    0    0 -0.35502879643E+02 -0.33405371018E+02  0.93547059715E+02  0.16363241297E+03  0.12509252943E+03 0.  0.
         23    2    1    2    0    0  0.35502879643E+02  0.33405371018E+02  0.19407101032E+03  0.22072284383E+03  0.93159237136E+02 0.  0.
          5    1    3    3  502    0  0.37156723499E+02  0.12857075253E+02  0.58356221428E+02  0.70490052239E+02  0.41800000000E+01 0. -1.
         -5    1    3    3    0  502 -0.72659603142E+02 -0.46262446271E+02  0.35190838286E+02  0.93142360734E+02  0.41800000000E+01 0. -1.
        -11    1    4    4    0    0  0.49567618329E+02  0.44996504658E+02  0.19080329524E+03  0.20220665590E+03  0.00000000000E+00 0. -1.
         11    1    4    4    0    0 -0.14064738686E+02 -0.11591133640E+02  0.32677150855E+01  0.18516187924E+02  0.00000000000E+00 0.  1.
</event>
<event>
 8    1  0.6965441E-009  0.2682956E+03  0.7561462E-02  0.1102259E+00
         -1   -1    0    0    0  501 -0.00000000000E+00  0.00000000000E+00  0.16709359012E+03  0.16709359012E+03  0.00000000000E+00 0.  1.
          1   -1    0    0  501    0  0.00000000000E+00 -0.00000000000E+00 -0.54160147273E+03  0.54160147273E+03  0.00000000000E+00 0. -1.
         25    2    1    2    0    0  0.12568269137E+03  0.23382590490E+03 -0.29698246490E+03  0.41751279552E+03  0.12509059618E+03 0.  0.
         23    2    1    2    0    0 -0.12568269137E+03 -0.23382590490E+03 -0.77525417712E+02  0.29118226732E+03  0.91138519288E+02 0.  0.
          5    1    3    3  502    0  0.95201156938E+02  0.18237042972E+03 -0.13841109147E+03  0.24798656528E+03  0.41800000000E+01 0.  1.
         -5    1    3    3    0  502  0.30481534432E+02  0.51455475185E+02 -0.15857137343E+03  0.16952623024E+03  0.41800000000E+01 0.  1.
        -11    1    4    4    0    0 -0.98588292323E+02 -0.21857662760E+03 -0.92078661508E+02  0.25685379775E+03  0.00000000000E+00 0. -1.
         11    1    4    4    0    0 -0.27094399047E+02 -0.15249277307E+02  0.14553243796E+02  0.34328469571E+02  0.00000000000E+00 0.  1.
</event>
<event>
 8    1  0.6965441E-009  0.9173889E+02  0.7561462E-02  0.1298695E+00
          1   -1    0    0  501    0  0.00000000000E+00  0.00000000000E+00  0.42069716456E+03  0.42069716456E+03  0.00000000000E+00 0. -1.
         -1   -1    0    0    0  501 -0.00000000000E+00 -0.00000000000E+00 -0.29881910262E+02  0.29881910262E+02  0.00000000000E+00 0.  1.
         25    2    1    2    0    0 -0.11102556697E+02 -0.18270579607E+02  0.26474702981E+03  0.29359163039E+03  0.12509186543E+03 0.  0.
         23    2    1    2    0    0  0.11102556697E+02  0.18270579607E+02  0.12606822449E+03  0.15698744443E+03  0.91075680839E+02 0.  0.
          5    1    3    3  502    0  0.23549086647E+02  0.42282744693E+02  0.59741383201E+02  0.76999319786E+02  0.41800000000E+01 0.  1.
         -5    1    3    3    0  502 -0.34651643344E+02 -0.60553324300E+02  0.20500564661E+03  0.21659231060E+03  0.41800000000E+01 0.  1.
        -11    1    4    4    0    0 -0.25185392920E+01 -0.22181196928E+02  0.10859524001E+03  0.11086602135E+03  0.00000000000E+00 0. -1.
         11    1    4    4    0    0  0.13621095989E+02  0.40451776534E+02  0.17472984477E+02  0.46121423084E+02  0.00000000000E+00 0.  1.
</event>
<event>
 8    1  0.6965441E-009  0.1707223E+03  0.7561462E-02  0.1177097E+00
          1   -1    0    0  501    0  0.00000000000E+00  0.00000000000E+00  0.78858178871E+03  0.78858178871E+03  0.00000000000E+00 0. -1.
         -1   -1    0    0    0  501 -0.00000000000E+00 -0.00000000000E+00 -0.39904462991E+02  0.39904462991E+02  0.00000000000E+00 0.  1.
         25    2    1    2    0    0 -0.73942356188E+02  0.11357092319E+03  0.31585374617E+03  0.36575499866E+03  0.12508918198E+03 0.  0.
         23    2    1    2    0    0  0.73942356188E+02 -0.11357092319E+03  0.43282357955E+03  0.46273125304E+03  0.91750394487E+02 0.  0.
          5    1    3    3  502    0 -0.93998201153E+02  0.12330864533E+03  0.30108028063E+03  0.33868494448E+03  0.41800000000E+01 0. -1.
         -5    1    3    3    0  502  0.20055844964E+02 -0.97377221390E+01  0.14773465538E+02  0.27070054187E+02  0.41800000000E+01 0. -1.
        -11    1    4    4    0    0  0.57299695268E+02 -0.92828123398E+01  0.15205312462E+03  0.16275619309E+03  0.00000000000E+00 0. -1.
         11    1    4    4    0    0  0.16642660920E+02 -0.10428811085E+03  0.28077045493E+03  0.29997505995E+03  0.00000000000E+00 0.  1.
</event>
<event>
 8    1  0.6965441E-009  0.1256959E+03  0.7561462E-02  0.1233986E+00
          2   -1    0    0  501    0  0.00000000000E+00  0.00000000000E+00  0.25272852344E+03  0.25272852344E+03  0.00000000000E+00 0. -1.
         -2   -1    0    0    0  501 -0.00000000000E+00 -0.00000000000E+00 -0.84393115700E+02  0.84393115700E+02  0.00000000000E+00 0.  1.
         25    2    1    2    0    0 -0.79164864570E+02  0.16273431490E+02  0.14697472768E+03  0.20924214493E+03  0.12509518090E+03 0.  0.
         23    2    1    2    0    0  0.79164864570E+02 -0.16273431490E+02  0.21360680067E+02  0.12787949421E+03  0.96772857931E+02 0.  0.
          5    1    3    3  502    0 -0.97443146821E+02  0.49200901983E+02  0.12250233068E+03  0.16413466739E+03  0.41800000000E+01 0.  1.
         -5    1    3    3    0  502  0.18278282251E+02 -0.32927470492E+02  0.24472396997E+02  0.45107477538E+02  0.41800000000E+01 0.  1.
        -11    1    4    4    0    0  0.89213502052E+02 -0.52852395174E+01 -0.13113671680E+02  0.90326912324E+02  0.00000000000E+00 0.  1.
         11    1    4    4    0    0 -0.10048637482E+02 -0.10988191973E+02  0.34474351747E+02  0.37552581888E+02  0.00000000000E+00 0. -1.
</event>
<event>
 8    1  0.6965441E-009  0.8574510E+02  0.7561462E-02  0.1313495E+00
         -1   -1    0    0    0  501 -0.00000000000E+00  0.00000000000E+00  0.25091885412E+02  0.25091885412E+02  0.00000000000E+00 0.  1.
          1   -1    0    0  501    0  0.00000000000E+00 -0.00000000000E+00 -0.50373647656E+03  0.50373647656E+03  0.00000000000E+00 0. -1.
         25    2    1    2    0    0  0.26664420054E+01 -0.89274885304E+01 -0.33716404466E+03  0.35973993353E+03  0.12508563787E+03 0.  0.
         23    2    1    2    0    0 -0.26664420054E+01  0.89274885304E+01 -0.14148054649E+03  0.16908842844E+03  0.92126769367E+02 0.  0.
          5    1    3    3  502    0 -0.86464607240E+01 -0.48060336669E+02 -0.30143930415E+03  0.30539758305E+03  0.41800000000E+01 0. -1.
         -5    1    3    3    0  502  0.11312902729E+02  0.39132848139E+02 -0.35724740508E+02  0.54342350483E+02  0.41800000000E+01 0. -1.
        -11    1    4    4    0    0  0.37536557717E+02 -0.71866448494E+01 -0.27295179046E+02  0.46964537990E+02  0.00000000000E+00 0. -1.
         11    1    4    4    0    0 -0.40202999723E+02  0.16114133380E+02 -0.11418536744E+03  0.12212389045E+03  0.00000000000E+00 0.  1.
</event>
<event>
 8    1  0.6965441E-009  0.1068903E+03  0.7561462E-02  0.1266439E+00
         -2   -1    0    0    0  501 -0.00000000000E+00  0.00000000000E+00  0.26211448273E+03  0.26211448273E+03  0.00000000000E+00 0.  1.
          2   -1    0    0  501    0  0.00000000000E+00 -0.00000000000E+00 -0.56686422192E+02  0.56686422192E+02  0.00000000000E+00 0. -1.
         25    2    1    2    0    0  0.44653013501E+02  0.31565535377E+02  0.10717419289E+03  0.17356321312E+03  0.12509039407E+03 0.  0.
         23    2    1    2    0    0 -0.44653013501E+02 -0.31565535377E+02  0.98253867651E+02  0.14523769180E+03  0.91923283088E+02 0.  0.
          5    1    3    3  502    0 -0.57384020620E+01 -0.42881185911E+02  0.18553499775E+02  0.47259180244E+02  0.41800000000E+01 0.  1.
         -5    1    3    3    0  502  0.50391415563E+02  0.74446721288E+02  0.88620693112E+02  0.12630403288E+03  0.41800000000E+01 0.  1.
        -11    1    4    4    0    0 -0.59254664172E+02 -0.25564098261E+02  0.23256340707E+02  0.68596616018E+02  0.00000000000E+00 0. -1.
         11    1    4    4    0    0  0.14601650671E+02 -0.60014371154E+01  0.74997526945E+02  0.76641075786E+02  0.00000000000E+00 0.  1.
</event>
<event>
 8    1  0.6965441E-009  0.1064561E+03  0.7561462E-02  0.1267277E+00
          1   -1    0    0  501    0  0.00000000000E+00  0.00000000000E+00  0.24843657086E+03  0.24843657086E+03  0.00000000000E+00 0. -1.
         -1   -1    0    0    0  501 -0.00000000000E+00 -0.00000000000E+00 -0.97213611141E+02  0.97213611141E+02  0.00000000000E+00 0.  1.
         25    2    1    2    0    0 -0.41954325320E+01 -0.79652767500E+02 -0.33898392904E+01  0.14839211931E+03  0.12508623041E+03 0.  0.
         23    2    1    2    0    0  0.41954325320E+01  0.79652767500E+02  0.15461279901E+03  0.19725806270E+03  0.92970213808E+02 0.  0.
          5    1    3    3  502    0 -0.55025357192E+02 -0.34932774347E+02  0.31052825104E+02  0.72317625823E+02  0.41800000000E+01 0.  1.
         -5    1    3    3    0  502  0.50829924660E+02 -0.44719993153E+02 -0.34442664394E+02  0.76074493486E+02  0.41800000000E+01 0.  1.
        -11    1    4    4    0    0  0.93044404800E+00  0.27075973954E+02 -0.64079490852E+01  0.27839466647E+02  0.00000000000E+00 0.  1.
         11    1    4    4    0    0  0.32649884840E+01  0.52576793545E+02  0.16102074810E+03  0.16941859605E+03  0.00000000000E+00 0. -1.
</event>
<event>
 8    1  0.6965441E-009  0.7190326E+02  0.7561462E-02  0.1353738E+00
          4   -1    0    0  501    0  0.00000000000E+00  0.00000000000E+00  0.15607935591E+03  0.15607935591E+03  0.00000000000E+00 0. -1.
         -4   -1    0    0    0  501 -0.00000000000E+00 -0.00000000000E+00 -0.10361066645E+03  0.10361066645E+03  0.00000000000E+00 0.  1.
         25    2    1    2    0    0  0.58997000388E+02 -0.18908159883E+02  0.23299297459E+02  0.14152238209E+03  0.12509021866E+03 0.  0.
         23    2    1    2    0    0 -0.58997000388E+02  0.18908159883E+02  0.29169391999E+02  0.11816764028E+03  0.96304585635E+02 0.  0.
          5    1    3    3  502    0  0.28016015010E+02  0.15943778273E+02  0.68890046466E+02  0.76173565393E+02  0.41800000000E+01 0. -1.
         -5    1    3    3    0  502  0.30980985377E+02 -0.34851938156E+02 -0.45590749007E+02  0.65348816693E+02  0.41800000000E+01 0. -1.
        -11    1    4    4    0    0 -0.38377862922E+02  0.31023903459E+01  0.64015448332E+02  0.74702495363E+02  0.00000000000E+00 0. -1.
         11    1    4    4    0    0 -0.20619137466E+02  0.15805769537E+02 -0.34846056333E+02  0.43465144914E+02  0.00000000000E+00 0.  1.
</event>
<event>
 8    1  0.6965441E-009  0.2628852E+03  0.7561462E-02  0.1105422E+00
          1   -1    0    0  501    0  0.00000000000E+00  0.00000000000E+00  0.39369383036E+03  0.39369383036E+03  0.00000000000E+00 0. -1.
         -1   -1    0    0    0  501 -0.00000000000E+00 -0.00000000000E+00 -0.19525048402E+03  0.19525048402E+03  0.00000000000E+00 0.  1.
         25    2    1    2    0    0 -0.78554629470E+02  0.23555031337E+03  0.40287552489E+02  0.28093642595E+03  0.12508960228E+03 0.  0.
         23    2    1    2    0    0  0.78554629470E+02 -0.23555031337E+03  0.15815579385E+03  0.30800788844E+03  0.90558402548E+02 0.  0.
          5    1    3    3  502    0 -0.41062174709E+02  0.23607148049E+03  0.41347444465E+02  0.24319319410E+03  0.41800000000E+01 0. -1.
         -5    1    3    3    0  502 -0.37492454761E+02 -0.52116712019E+00 -0.10598919754E+01  0.37743231846E+02  0.41800000000E+01 0. -1.
        -11    1    4    4    0    0  0.13007397308E+02 -0.47205784512E+02 -0.64979641152E+01  0.49394352044E+02  0.00000000000E+00 0.  1.
         11    1    4    4    0    0  0.65547232162E+02 -0.18834452886E+03  0.16465375796E+03  0.25861353640E+03  0.00000000000E+00 0. -1.
</event>
<event>
 8    1  0.6965441E-009  0.1363646E+03  0.7561462E-02  0.1218306E+00
          4   -1    0    0  501    0  0.00000000000E+00  0.00000000000E+00  0.35733132664E+02  0.35733132664E+02  0.00000000000E+00 0.  1.
         -4   -1    0    0    0  501 -0.00000000000E+00 -0.00000000000E+00 -0.84828131845E+03  0.84828131845E+03  0.00000000000E+00 0. -1.
         25    2    1    2    0    0 -0.81766605280E+02 -0.44205221576E+02 -0.68679115627E+03  0.70425090758E+03  0.12508944457E+03 0.  0.
         23    2    1    2    0    0  0.81766605280E+02  0.44205221576E+02 -0.12575702951E+03  0.17976354353E+03  0.88657891678E+02 0.  0.
          5    1    3    3  502    0  0.32080947227E+02 -0.10694052279E+02 -0.21833366951E+03  0.22097650004E+03  0.41800000000E+01 0.  1.
         -5    1    3    3    0  502 -0.11384755251E+03 -0.33511169298E+02 -0.46845748676E+03  0.48327440754E+03  0.41800000000E+01 0.  1.
        -11    1    4    4    0    0  0.17930075069E+02 -0.21701752848E+02 -0.61826483823E+02  0.67933554084E+02  0.00000000000E+00 0. -1.
         11    1    4    4    0    0  0.63836530211E+02  0.65906974424E+02 -0.63930545689E+02  0.11182998944E+03  0.00000000000E+00 0.  1.
</event>
<event>
 8    1  0.6965441E-009  0.1238060E+03  0.7561462E-02  0.1236947E+00
         -4   -1    0    0    0  501 -0.00000000000E+00  0.00000000000E+00  0.35314724323E+03  0.35314724323E+03  0.00000000000E+00 0.  1.
          4   -1    0    0  501    0  0.00000000000E+00 -0.00000000000E+00 -0.43805849980E+02  0.43805849980E+02  0.00000000000E+00 0. -1.
         25    2    1    2    0    0  0.45154323382E+02 -0.43103583409E+02  0.18031800621E+03  0.22817390266E+03  0.12510761235E+03 0.  0.
         23    2    1    2    0    0 -0.45154323382E+02  0.43103583409E+02  0.12902338703E+03  0.16877919054E+03  0.89120979217E+02 0.  0.
          5    1    3    3  502    0  0.56628871933E+02  0.30999844617E+02  0.81521950045E+02  0.10407266808E+03  0.41800000000E+01 0.  1.
         -5    1    3    3    0  502 -0.11474548550E+02 -0.74103428026E+02  0.98796056170E+02  0.12410123458E+03  0.41800000000E+01 0.  1.
        -11    1    4    4    0    0  0.14260304912E+02 -0.17748503931E+02  0.18592755987E+02  0.29394833954E+02  0.00000000000E+00 0. -1.
         11    1    4    4    0    0 -0.59414628294E+02  0.60852087341E+02  0.11043063104E+03  0.13938435659E+03  0.00000000000E+00 0.  1.
</event>
<event>
 8    1  0.6965441E-009  0.1661281E+03  0.7561462E-02  0.1181947E+00
         -1   -1    0    0    0  501 -0.00000000000E+00  0.00000000000E+00  0.38574484754E+03  0.38574484754E+03  0.00000000000E+00 0.  1.
          1   -1    0    0  501    0  0.00000000000E+00 -0.00000000000E+00 -0.86473843232E+02  0.86473843232E+02  0.00000000000E+00 0. -1.
         25    2    1    2    0    0  0.13263519465E+03 -0.54034776846E+02  0.20198003355E+03  0.27741045019E+03  0.12509505166E+03 0.  0.
         23    2    1    2    0    0 -0.13263519465E+03  0.54034776846E+02  0.97290970760E+02  0.19480824059E+03  0.89290904582E+02 0.  0.
          5    1    3    3  502    0  0.14470201529E+03 -0.19684941234E+02  0.18822008752E+03  0.23826549033E+03  0.41800000000E+01 0.  1.
         -5    1    3    3    0  502 -0.12066820637E+02 -0.34349835612E+02  0.13759946035E+02  0.39144959851E+02  0.41800000000E+01 0.  1.
        -11    1    4    4    0    0 -0.96513989158E+02  0.17405016446E+02  0.17123731775E+02  0.99554542290E+02  0.00000000000E+00 0. -1.
         11    1    4    4    0    0 -0.36121205494E+02  0.36629760400E+02  0.80167238985E+02  0.95253698300E+02  0.00000000000E+00 0.  1.
</event>
<event>
 8    1  0.6965441E-009  0.2088632E+03  0.7561462E-02  0.1142469E+00
          2   -1    0    0  501    0  0.00000000000E+00  0.00000000000E+00  0.11428631052E+04  0.11428631052E+04  0.00000000000E+00 0. -1.
         -2   -1    0    0    0  501 -0.00000000000E+00 -0.00000000000E+00 -0.40520609868E+02  0.40520609868E+02  0.00000000000E+00 0.  1.
         25    2    1    2    0    0 -0.18034619378E+03  0.35435525414E+02  0.65012074726E+03  0.68708395055E+03  0.12508774129E+03 0.  0.
         23    2    1    2    0    0  0.18034619378E+03 -0.35435525414E+02  0.45222174810E+03  0.49629976453E+03  0.89602013114E+02 0.  0.
          5    1    3    3  502    0 -0.89593184350E+02 -0.44786243979E+02  0.32483603676E+03  0.33995392263E+03  0.41800000000E+01 0. -1.
         -5    1    3    3    0  502 -0.90753009430E+02  0.80221769392E+02  0.32528471049E+03  0.34713002792E+03  0.41800000000E+01 0. -1.
        -11    1    4    4    0    0  0.10449779940E+02 -0.23787763506E+02  0.23650346897E+02  0.35133950842E+02  0.00000000000E+00 0. -1.
         11    1    4    4    0    0  0.16989641384E+03 -0.11647761907E+02  0.42857140120E+03  0.46116581369E+03  0.00000000000E+00 0.  1.
</event>
<event>
 8    1  0.6965441E-009  0.2050058E+03  0.7561462E-02  0.1145583E+00
          4   -1    0    0  501    0  0.00000000000E+00  0.00000000000E+00  0.40363545017E+03  0.40363545017E+03  0.00000000000E+00 0. -1.
         -4   -1    0    0    0  501 -0.00000000000E+00 -0.00000000000E+00 -0.11966667850E+03  0.11966667850E+03  0.00000000000E+00 0.  1.
         25    2    1    2    0    0 -0.40280526345E+02  0.18080182241E+03  0.20398416796E+03  0.30260071253E+03  0.12508329488E+03 0.  0.
         23    2    1    2    0    0  0.40280526345E+02 -0.18080182241E+03  0.79984603710E+02  0.22070141613E+03  0.89441368856E+02 0.  0.
          5    1    3    3  502    0 -0.76554442152E+02  0.15592570990E+03  0.13228206810E+03  0.21837909141E+03  0.41800000000E+01 0.  1.
         -5    1    3    3    0  502  0.36273915807E+02  0.24876112505E+02  0.71702099858E+02  0.84221621128E+02  0.41800000000E+01 0.  1.
        -11    1    4    4    0    0  0.52001786082E+02 -0.13175611608E+03  0.21156169824E+02  0.14321816715E+03  0.00000000000E+00 0.  1.
         11    1    4    4    0    0 -0.11721259736E+02 -0.49045706324E+02  0.58828433886E+02  0.77483248978E+02  0.00000000000E+00 0. -1.
</event>
<event>
 8    1  0.6965441E-009  0.8389730E+02  0.7561462E-02  0.1318342E+00
          1   -1    0    0  501    0  0.00000000000E+00  0.00000000000E+00  0.10660315366E+04  0.10660315366E+04  0.00000000000E+00 0. -1.
         -1   -1    0    0    0  501 -0.00000000000E+00 -0.00000000000E+00 -0.23288174820E+02  0.23288174820E+02  0.00000000000E+00 0.  1.
         25    2    1    2    0    0  0.36340283879E+02  0.25151365156E+02  0.91483254706E+03  0.92440123276E+03  0.12508334246E+03 0.  0.
         23    2    1    2    0    0 -0.36340283879E+02 -0.25151365156E+02  0.12791081469E+03  0.16491847864E+03  0.94253491597E+02 0.  0.
          5    1    3    3  502    0  0.50219721671E+02  0.56216479950E+02  0.32834926130E+03  0.33691693762E+03  0.41800000000E+01 0. -1.
         -5    1    3    3    0  502 -0.13879437791E+02 -0.31065114794E+02  0.58648328577E+03  0.58748429514E+03  0.41800000000E+01 0. -1.
        -11    1    4    4    0    0 -0.38410696492E+02 -0.61459091486E+01  0.13794680660E+03  0.14332646391E+03  0.00000000000E+00 0. -1.
         11    1    4    4    0    0  0.20704126122E+01 -0.19005456007E+02 -0.10035991909E+02  0.21592014729E+02  0.00000000000E+00 0.  1.
</event>
<event>
 8    1  0.6965441E-009  0.1080066E+03  0.7561462E-02  0.1264307E+00
         -4   -1    0    0    0  501 -0.00000000000E+00  0.00000000000E+00  0.27859411325E+02  0.27859411325E+02  0.00000000000E+00 0.  1.
          4   -1    0    0  501    0  0.00000000000E+00 -0.00000000000E+00 -0.68970083086E+03  0.68970083086E+03  0.00000000000E+00 0. -1.
         25    2    1    2    0    0 -0.27527802728E+02  0.80684530775E+02 -0.33855709210E+03  0.37085956080E+03  0.12509250895E+03 0.  0.
         23    2    1    2    0    0  0.27527802728E+02 -0.80684530775E+02 -0.32328432744E+03  0.34670068139E+03  0.91765095106E+02 0.  0.
          5    1    3    3  502    0  0.12145237362E+02 -0.18590092974E+01  0.60117750131E+01  0.14303025727E+02  0.41800000000E+01 0. -1.
         -5    1    3    3    0  502 -0.39673040090E+02  0.82543540072E+02 -0.34456886711E+03  0.35655653507E+03  0.41800000000E+01 0. -1.
        -11    1    4    4    0    0 -0.14324315404E+02  0.56614902337E+01 -0.84489971976E+01  0.17567698686E+02  0.00000000000E+00 0.  1.
         11    1    4    4    0    0  0.41852118132E+02 -0.86346021009E+02 -0.31483533024E+03  0.32913298270E+03  0.00000000000E+00 0. -1.
</event>
<event>
 8    1  0.6965441E-009  0.9693674E+02  0.7561462E-02  0.1286873E+00
         -1   -1    0    0    0  501 -0.00000000000E+00  0.00000000000E+00  0.17392081628E+02  0.17392081628E+02  0.00000000000E+00 0.  1.
          1   -1    0    0  501    0  0.00000000000E+00 -0.00000000000E+00 -0.73114370181E+03  0.73114370181E+03  0.00000000000E+00 0. -1.
         25    2    1    2    0    0  0.30165986774E+02 -0.11197010260E+02 -0.40304503521E+03  0.42323716070E+03  0.12509609901E+03 0.  0.
         23    2    1    2    0    0 -0.30165986774E+02  0.11197010260E+02 -0.31070658496E+03  0.32529862274E+03  0.90803371180E+02 0.  0.
          5    1    3    3  502    0  0.17712643706E+02  0.40586693880E+02 -0.32865434259E+03  0.33165066979E+03  0.41800000000E+01 0. -1.
         -5    1    3    3    0  502  0.12453343069E+02 -0.51783704140E+02 -0.74390692623E+02  0.91586490909E+02  0.41800000000E+01 0. -1.
        -11    1    4    4    0    0  0.29856752833E+02  0.19077853289E+02 -0.10133496298E+03  0.10735066324E+03  0.00000000000E+00 0.  1.
         11    1    4    4    0    0 -0.60022739607E+02 -0.78808430284E+01 -0.20937162199E+03  0.21794795950E+03  0.00000000000E+00 0. -1.
</event>
<event>
 8    1  0.6965441E-009  0.8671280E+02  0.7561462E-02  0.1311013E+00
         -1   -1    0    0    0  501 -0.00000000000E+00  0.00000000000E+00  0.19984300091E+03  0.19984300091E+03  0.00000000000E+00 0.  1.
          1   -1    0    0  501    0  0.00000000000E+00 -0.00000000000E+00 -0.65705159825E+02  0.65705159825E+02  0.00000000000E+00 0. -1.
         25    2    1    2    0    0 -0.47809835145E+01 -0.33495956137E+02  0.57360457277E+02  0.14171109997E+03  0.12508787677E+03 0.  0.
         23    2    1    2    0    0  0.47809835145E+01  0.33495956137E+02  0.76777383813E+02  0.12383706077E+03  0.91082457557E+02 0.  0.
          5    1    3    3  502    0 -0.42762876488E+02 -0.27977589890E+02 -0.20171980789E+02  0.55098006775E+02  0.41800000000E+01 0. -1.
         -5    1    3    3    0  502  0.37981892974E+02 -0.55183662479E+01  0.77532438066E+02  0.86613093193E+02  0.41800000000E+01 0. -1.
        -11    1    4    4    0    0 -0.28660158722E+02 -0.84693245655E+01 -0.34047868599E+00  0.29887289645E+02  0.00000000000E+00 0. -1.
         11    1    4    4    0    0  0.33441142236E+02  0.41965280703E+02  0.77117862499E+02  0.93949771128E+02  0.00000000000E+00 0.  1.
</event>
<event>
 8    1  0.6965441E-009  0.1700638E+03  0.7561462E-02  0.1177781E+00
          2   -1    0    0  501    0  0.00000000000E+00  0.00000000000E+00  0.50490024890E+03  0.50490024890E+03  0.00000000000E+00 0. -1.
         -2   -1    0    0    0  501 -0.00000000000E+00 -0.00000000000E+00 -0.77083292607E+02  0.77083292607E+02  0.00000000000E+00 0.  1.
         25    2    1    2    0    0  0.13422995942E+03 -0.11623470383E+02  0.36441558533E+03  0.40816488311E+03  0.12508823247E+03 0.  0.
         23    2    1    2    0    0 -0.13422995942E+03  0.11623470383E+02  0.63401370963E+02  0.17381865840E+03  0.89668305976E+02 0.  0.
          5    1    3    3  502    0  0.15545706277E+03  0.39941738968E+01  0.28966925033E+03  0.32879872077E+03  0.41800000000E+01 0.  1.
         -5    1    3    3    0  502 -0.21227103349E+02 -0.15617644280E+02  0.74746334999E+02  0.79366162344E+02  0.41800000000E+01 0.  1.
        -11    1    4    4    0    0 -0.13600748699E+03  0.30116553457E+02  0.42037528116E+02  0.14550669084E+03  0.00000000000E+00 0.  1.
         11    1    4    4    0    0  0.17775275651E+01 -0.18493083074E+02  0.21363842847E+02  0.28311967558E+02  0.00000000000E+00 0. -1.
</event>
<event>
 8    1  0.6965441E-009  0.1159948E+03  0.7561462E-02  0.1249854E+00
          1   -1    0    0  501    0  0.00000000000E+00  0.00000000000E+00  0.29177513138E+03  0.29177513138E+03  0.00000000000E+00 0. -1.
         -1   -1    0    0    0  501 -0.00000000000E+00 -0.00000000000E+00 -0.48561759225E+02  0.48561759225E+02  0.00000000000E+00 0.  1.
         25    2    1    2    0    0  0.23453424524E+02 -0.42551688405E+02  0.12737136404E+03  0.18501711842E+03  0.12508861029E+03 0.  0.
         23    2    1    2    0    0 -0.23453424524E+02  0.42551688405E+02  0.11584200812E+03  0.15531977218E+03  0.91346327121E+02 0.  0.
          5    1    3    3  502    0 -0.40759837330E+02 -0.51326387405E+02  0.42817016151E+02  0.78399819229E+02  0.41800000000E+01 0. -1.
         -5    1    3    3    0  502  0.64213261854E+02  0.87746989997E+01  0.84554347887E+02  0.10661729919E+03  0.41800000000E+01 0. -1.
        -11    1    4    4    0    0  0.33637787307E+02  0.77890639393E+01  0.25427827817E+02  0.42880586277E+02  0.00000000000E+00 0.  1.
         11    1    4    4    0    0 -0.57091211831E+02  0.34762624466E+02  0.90414180301E+02  0.11243918591E+03  0.00000000000E+00 0. -1.
</event>
<event>
 8    1  0.6965441E-009  0.8680610E+02  0.7561462E-02  0.1310776E+00
         -2   -1    0    0    0  501 -0.00000000000E+00  0.00000000000E+00  0.29844340265E+02  0.29844340265E+02  0.00000000000E+00 0.  1.
          2   -1    0    0  501    0  0.00000000000E+00 -0.00000000000E+00 -0.50900451096E+03  0.50900451096E+03  0.00000000000E+00 0. -1.
         25    2    1    2    0    0 -0.81454426537E+01 -0.24850820801E+02 -0.38471126517E+03  0.40540017686E+03  0.12515044672E+03 0.  0.
         23    2    1    2    0    0  0.81454426537E+01  0.24850820801E+02 -0.94448905520E+02  0.13344867437E+03  0.90576163564E+02 0.  0.
          5    1    3    3  502    0 -0.22284494075E+02 -0.68420398983E+02 -0.30470443791E+03  0.31311374380E+03  0.41800000000E+01 0.  1.
         -5    1    3    3    0  502  0.14139051421E+02  0.43569578181E+02 -0.80006827263E+02  0.92286433059E+02  0.41800000000E+01 0.  1.
        -11    1    4    4    0    0  0.10264989520E+02 -0.13593313150E+02  0.11612094336E+02  0.20615259084E+02  0.00000000000E+00 0.  1.
         11    1    4    4    0    0 -0.21195468658E+01  0.38444133951E+02 -0.10606099986E+03  0.11283341528E+03  0.00000000000E+00 0. -1.
</event>
<event>
 8    1  0.6965441E-009  0.1255299E+03  0.7561462E-02  0.1234243E+00
          2   -1    0    0  501    0  0.00000000000E+00  0.00000000000E+00  0.94036632886E+02  0.94036632886E+02  0.00000000000E+00 0. -1.
         -2   -1    0    0    0  501 -0.00000000000E+00 -0.00000000000E+00 -0.27907324577E+03  0.27907324577E+03  0.00000000000E+00 0.  1.
         25    2    1    2    0    0 -0.10276905826E+03  0.31965987124E+02 -0.15915400934E+03  0.22926039465E+03  0.12508807377E+03 0.  0.
         23    2    1    2    0    0  0.10276905826E+03 -0.31965987124E+02 -0.25882603544E+02  0.14384948400E+03  0.91866540223E+02 0.  0.
          5    1    3    3  502    0 -0.70435987353E+02  0.32524492844E+02 -0.17612540794E+03  0.19250117576E+03  0.41800000000E+01 0.  1.
         -5    1    3    3    0  502 -0.32333070906E+02 -0.55850571956E+00  0.16971398601E+02  0.36759218889E+02  0.41800000000E+01 0.  1.
        -11    1    4    4    0    0 -0.30948509677E+00 -0.37527879185E+02 -0.13488856229E+02  0.39879653202E+02  0.00000000000E+00 0. -1.
         11    1    4    4    0    0  0.10307854336E+03  0.55618920606E+01 -0.12393747315E+02  0.10396983080E+03  0.00000000000E+00 0.  1.
</event>
<event>
 8    1  0.6965441E-009  0.1116857E+03  0.7561462E-02  0.1257480E+00
          2   -1    0    0  501    0  0.00000000000E+00  0.00000000000E+00  0.70139178277E+02  0.70139178277E+02  0.00000000000E+00 0. -1.
         -2   -1    0    0    0  501 -0.00000000000E+00 -0.00000000000E+00 -0.18723360706E+03  0.18723360706E+03  0.00000000000E+00 0.  1.
         25    2    1    2    0    0  0.27986035403E+02 -0.28245393215E+02 -0.76077776876E+02  0.15171291189E+03  0.12509180263E+03 0.  0.
         23    2    1    2    0    0 -0.27986035403E+02  0.28245393215E+02 -0.41016651912E+02  0.10565987345E+03  0.88885447109E+02 0.  0.
          5    1    3    3  502    0 -0.48506727073E+02 -0.15372012018E+02 -0.15978528604E+02  0.53497542945E+02  0.41800000000E+01 0. -1.
         -5    1    3    3    0  502  0.76492762476E+02 -0.12873381197E+02 -0.60099248272E+02  0.98215368947E+02  0.41800000000E+01 0. -1.
        -11    1    4    4    0    0  0.31089927606E+02  0.12393300402E+02 -0.26766931327E+02  0.42856109320E+02  0.00000000000E+00 0.  1.
         11    1    4    4    0    0 -0.59075963009E+02  0.15852092813E+02 -0.14249720584E+02  0.62803764129E+02  0.00000000000E+00 0. -1.
</event>
<event>
 7    1  0.6965441E-009  0.1235554E+03  0.7561462E-02  0.1237344E+00
         -3   -1    0    0    0  501 -0.00000000000E+00  0.00000000000E+00  0.24338229831E+03  0.24338229831E+03  0.00000000000E+00 0.  1.
          3   -1    0    0  501    0  0.00000000000E+00 -0.00000000000E+00 -0.84992915417E+02  0.84992915417E+02  0.00000000000E+00 0. -1.
         23    2    1    2    0    0 -0.80630866524E+02 -0.27588793958E+02  0.11883473920E+03  0.17202733110E+03  0.90604796871E+02 0.  0.
          5    1    1    2  502    0 -0.32723149584E+02  0.11592554040E+02  0.19550239066E+02  0.40060904576E+02  0.41800000000E+01 0.  1.
         -5    1    1    2    0  502  0.11335401611E+03  0.15996239918E+02  0.20004404624E+02  0.11628697805E+03  0.41800000000E+01 0.  1.
        -11    1    3    3    0    0 -0.62291843541E-02 -0.16160223096E+02 -0.10443094691E+02  0.19240869940E+02  0.00000000000E+00 0. -1.
         11    1    3    3    0    0 -0.80624637339E+02 -0.11428570862E+02  0.12927783389E+03  0.15278646116E+03  0.00000000000E+00 0.  1.
</event>
<event>
 8    1  0.6965441E-009  0.1148460E+03  0.7561462E-02  0.1251850E+00
         -1   -1    0    0    0  501 -0.00000000000E+00  0.00000000000E+00  0.17361492315E+02  0.17361492315E+02  0.00000000000E+00 0.  1.
          1   -1    0    0  501    0  0.00000000000E+00 -0.00000000000E+00 -0.10712687458E+04  0.10712687458E+04  0.00000000000E+00 0. -1.
         25    2    1    2    0    0 -0.13993762466E+02  0.40259686490E+02 -0.86009535283E+03  0.87018877091E+03  0.12509122002E+03 0.  0.
         23    2    1    2    0    0  0.13993762466E+02 -0.40259686490E+02 -0.19381190070E+03  0.21844146724E+03  0.91306922048E+02 0.  0.
          5    1    3    3  502    0  0.47986926787E+02 -0.99905060501E+01 -0.24191611082E+03  0.24686723645E+03  0.41800000000E+01 0.  1.
         -5    1    3    3    0  502 -0.61980689252E+02  0.50250192540E+02 -0.61817924200E+03  0.62332153447E+03  0.41800000000E+01 0.  1.
        -11    1    4    4    0    0  0.52767991134E+02 -0.29046225318E+02 -0.10980401261E+03  0.12524003066E+03  0.00000000000E+00 0. -1.
         11    1    4    4    0    0 -0.38774228669E+02 -0.11213461171E+02 -0.84007888088E+02  0.93201436584E+02  0.00000000000E+00 0.  1.
</event>
<event>
 8    1  0.6965441E-009  0.1328695E+03  0.7561462E-02  0.1223259E+00
          1   -1    0    0  501    0  0.00000000000E+00  0.00000000000E+00  0.53228780582E+03  0.53228780582E+03  0.00000000000E+00 0. -1.
         -1   -1    0    0    0  501 -0.00000000000E+00 -0.00000000000E+00 -0.36422871075E+02  0.36422871075E+02  0.00000000000E+00 0.  1.
         25    2    1    2    0    0 -0.44777315402E+02 -0.71926993121E+02  0.30416161169E+03  0.33961928075E+03  0.12509384284E+03 0.  0.
         23    2    1    2    0    0  0.44777315402E+02  0.71926993121E+02  0.19170332305E+03  0.22909139614E+03  0.92488936650E+02 0.  0.
          5    1    3    3  502    0 -0.53848836437E+02  0.16527200840E+02  0.16522087224E+03  0.17460886168E+03  0.41800000000E+01 0.  1.
         -5    1    3    3    0  502  0.90715210344E+01 -0.88454193961E+02  0.13894073945E+03  0.16501041907E+03  0.41800000000E+01 0.  1.
        -11    1    4    4    0    0  0.51785289075E+02  0.88336452836E+02  0.13370538608E+03  0.16841073401E+03  0.00000000000E+00 0. -1.
         11    1    4    4    0    0 -0.70079736723E+01 -0.16409459715E+02  0.57997936978E+02  0.60680662132E+02  0.00000000000E+00 0.  1.
</event>
<event>
 8    1  0.6965441E-009  0.9234624E+02  0.7561462E-02  0.1297267E+00
          2   -1    0    0  501    0  0.00000000000E+00  0.00000000000E+00  0.92441557169E+02  0.92441557169E+02  0.00000000000E+00 0. -1.
         -2   -1    0    0    0  501 -0.00000000000E+00 -0.00000000000E+00 -0.14293735566E+03  0.14293735566E+03  0.00000000000E+00 0.  1.
         25    2    1    2    0    0 -0.20410558087E+02  0.24063890608E+02 -0.10215904905E+02  0.12941181439E+03  0.12508953305E+03 0.  0.
         23    2    1    2    0    0  0.20410558087E+02 -0.24063890608E+02 -0.40279893585E+02  0.10596709844E+03  0.92794905094E+02 0.  0.
          5    1    3    3  502    0  0.39407108465E+02 -0.28161614541E+02  0.34089369853E+01  0.48734894916E+02  0.41800000000E+01 0.  1.
         -5    1    3    3    0  502 -0.59817666551E+02  0.52225505148E+02 -0.13624841890E+02  0.80676919476E+02  0.41800000000E+01 0.  1.
        -11    1    4    4    0    0  0.33407432695E+02 -0.27324940052E+02 -0.64897793165E+02  0.77938645522E+02  0.00000000000E+00 0.  1.
         11    1    4    4    0    0 -0.12996874608E+02  0.32610494446E+01  0.24617899580E+02  0.28028452915E+02  0.00000000000E+00 0. -1.
</event>
<event>
 8    1  0.6965441E-009  0.1158842E+03  0.7561462E-02  0.1250046E+00
          2   -1    0    0  501    0  0.00000000000E+00  0.00000000000E+00  0.70747958866E+03  0.70747958866E+03  0.00000000000E+00 0. -1.
         -2   -1    0    0    0  501 -0.00000000000E+00 -0.00000000000E+00 -0.19845723560E+02  0.19845723560E+02  0.00000000000E+00 0.  1.
         25    2    1    2    0    0 -0.15068355637E+02  0.48278439629E+02  0.38902607778E+03  0.41176112269E+03  0.12509224555E+03 0.  0.
         23    2    1    2    0    0  0.15068355637E+02 -0.48278439629E+02  0.29860778732E+03  0.31556418952E+03  0.88635681221E+02 0.  0.
          5    1    3    3  502    0 -0.50742141988E+02 -0.22209911317E+02  0.17342819056E+03  0.18210671271E+03  0.41800000000E+01 0. -1.
         -5    1    3    3    0  502  0.35673786351E+02  0.70488350946E+02  0.21559788722E+03  0.22965440999E+03  0.41800000000E+01 0. -1.
        -11    1    4    4    0    0  0.10881066917E+02  0.23138549816E+02  0.12860377440E+03  0.13112101622E+03  0.00000000000E+00 0. -1.
         11    1    4    4    0    0  0.41872887203E+01 -0.71416989445E+02  0.17000401292E+03  0.18444317330E+03  0.00000000000E+00 0.  1.
</event>
<event>
 8    1  0.6965441E-009  0.1536736E+03  0.7561462E-02  0.1196030E+00
          2   -1    0    0  501    0  0.00000000000E+00  0.00000000000E+00  0.27810497643E+02  0.27810497643E+02  0.00000000000E+00 0. -1.
         -2   -1    0    0    0  501 -0.00000000000E+00 -0.00000000000E+00 -0.94524765518E+03  0.94524765518E+03  0.00000000000E+00 0.  1.
         25    2    1    2    0    0  0.83865887578E+02 -0.69550316879E+02 -0.34378427054E+03  0.38171376552E+03  0.12508813069E+03 0.  0.
         23    2    1    2    0    0 -0.83865887578E+02  0.69550316879E+02 -0.57365288700E+03  0.59134438731E+03  0.93486982834E+02 0.  0.
          5    1    3    3  502    0 -0.15778558603E+02  0.22894001316E+02 -0.40127135990E+02  0.48997526984E+02  0.41800000000E+01 0. -1.
         -5    1    3    3    0  502  0.99644446181E+02 -0.92444318195E+02 -0.30365713455E+03  0.33271623854E+03  0.41800000000E+01 0. -1.
        -11    1    4    4    0    0  0.20629352451E+02  0.93721708157E+01 -0.10605693012E+03  0.10845035820E+03  0.00000000000E+00 0.  1.
         11    1    4    4    0    0 -0.10449524003E+03  0.60178146063E+02 -0.46759595688E+03  0.48289402911E+03  0.00000000000E+00 0. -1.
</event>
<event>
 7    1  0.6965441E-009  0.2303920E+03  0.7561462E-02  0.1126364E+00
          1   -1    0    0  501    0  0.00000000000E+00  0.00000000000E+00  0.12468797086E+04  0.12468797086E+04  0.00000000000E+00 0. -1.
         -1   -1    0    0    0  501 -0.00000000000E+00 -0.00000000000E+00 -0.46988368067E+02  0.46988368067E+02  0.00000000000E+00 0.  1.
         23    2    1    2    0    0  0.20488171055E+03 -0.56628100242E+02  0.50476384498E+03  0.55540261918E+03  0.92207771590E+02 0.  0.
          5    1    1    2  502    0 -0.21542515882E+03  0.72856232491E+02  0.66065361170E+03  0.69871073894E+03  0.41800000000E+01 0.  1.
         -5    1    1    2    0  502  0.10543448277E+02 -0.16228132249E+02  0.34473883818E+02  0.39754718504E+02  0.41800000000E+01 0.  1.
        -11    1    3    3    0    0  0.16839192608E+03 -0.54466882524E+02  0.47908756613E+03  0.51073219801E+03  0.00000000000E+00 0.  1.
         11    1    3    3    0    0  0.36489784466E+02 -0.21612177178E+01  0.25676278853E+02  0.44670421177E+02  0.00000000000E+00 0. -1.
</event>
<event>
 8    1  0.6965441E-009  0.1252164E+03  0.7561462E-02  0.1234731E+00
          2   -1    0    0  501    0  0.00000000000E+00  0.00000000000E+00  0.14907916908E+03  0.14907916908E+03  0.00000000000E+00 0. -1.
         -2   -1    0    0    0  501 -0.00000000000E+00 -0.00000000000E+00 -0.19232045895E+03  0.19232045895E+03  0.00000000000E+00 0.  1.
         25    2    1    2    0    0  0.49239548495E+02 -0.81363402118E+02  0.66209413120E+02  0.17051531506E+03  0.12508896812E+03 0.  0.
         23    2    1    2    0    0 -0.49239548495E+02  0.81363402118E+02 -0.10945070299E+03  0.17088431296E+03  0.90429285591E+02 0.  0.
          5    1    3    3  502    0  0.10596007369E+02 -0.10728959046E+03  0.31772929502E+02  0.11247365488E+03  0.41800000000E+01 0. -1.
         -5    1    3    3    0  502  0.38643541126E+02  0.25926188342E+02  0.34436483618E+02  0.58041660182E+02  0.41800000000E+01 0. -1.
        -11    1    4    4    0    0 -0.20697825648E+02  0.23616692384E+02 -0.10117897047E+03  0.10594022942E+03  0.00000000000E+00 0.  1.
         11    1    4    4    0    0 -0.28541722847E+02  0.57746709734E+02 -0.82717325225E+01  0.64944083541E+02  0.00000000000E+00 0. -1.
</event>
<event>
 8    1  0.6965441E-009  0.1177580E+03  0.7561462E-02  0.1246842E+00
          1   -1    0    0  501    0  0.00000000000E+00  0.00000000000E+00  0.12978107525E+03  0.12978107525E+03  0.00000000000E+00 0. -1.
         -1   -1    0    0    0  501 -0.00000000000E+00 -0.00000000000E+00 -0.17023193754E+03  0.17023193754E+03  0.00000000000E+00 0.  1.
         25    2    1    2    0    0  0.70442201519E+02 -0.72118508186E+02 -0.14202695803E+02  0.16128316680E+03  0.12508940942E+03 0.  0.
         23    2    1    2    0    0 -0.70442201519E+02  0.72118508186E+02 -0.26248166484E+02  0.13872984599E+03  0.91617798201E+02 0.  0.
          5    1    3    3  502    0  0.17935670087E+02 -0.74861132901E+02 -0.54916803035E+02  0.94653077796E+02  0.41800000000E+01 0.  1.
         -5    1    3    3    0  502  0.52506531431E+02  0.27426247152E+01  0.40714107232E+02  0.66630089006E+02  0.41800000000E+01 0.  1.
        -11    1    4    4    0    0 -0.58126817118E+02  0.38102047254E+02 -0.58054980347E+02  0.90558674992E+02  0.00000000000E+00 0.  1.
         11    1    4    4    0    0 -0.12315384400E+02  0.34016460932E+02  0.31806813863E+02  0.48171170999E+02  0.00000000000E+00 0. -1.
</event>
<event>
 8    1  0.6965441E-009  0.6856730E+02  0.7561462E-02  0.1365034E+00
          4   -1    0    0  501    0  0.00000000000E+00  0.00000000000E+00  0.15014619263E+03  0.15014619263E+03  0.00000000000E+00 0. -1.
         -4   -1    0    0    0  501 -0.00000000000E+00 -0.00000000000E+00 -0.81683288089E+02  0.81683288089E+02  0.00000000000E+00 0.  1.
         25    2    1    2    0    0 -0.14149734128E+02 -0.23905506690E+01  0.60441218505E+02  0.13966502254E+03  0.12508896002E+03 0.  0.
         23    2    1    2    0    0  0.14149734128E+02  0.23905506690E+01  0.80216860323E+01  0.92164458171E+02  0.90686328599E+02 0.  0.
          5    1    3    3  502    0  0.22269269070E+02  0.26965364948E+02  0.81054856880E+02  0.88376543695E+02  0.41800000000E+01 0. -1.
         -5    1    3    3    0  502 -0.36419003198E+02 -0.29355915617E+02 -0.20613638375E+02  0.51288478849E+02  0.41800000000E+01 0. -1.
        -11    1    4    4    0    0  0.56598851515E+01 -0.25331939904E+02 -0.32966337271E+02  0.41958561371E+02  0.00000000000E+00 0.  1.
         11    1    4    4    0    0  0.84898489765E+01  0.27722490573E+02  0.40988023303E+02  0.50205896800E+02  0.00000000000E+00 0. -1.
</event>
<event>
 8    1  0.6965441E-009  0.1255607E+03  0.7561462E-02  0.1234196E+00
          1   -1    0    0  501    0  0.00000000000E+00  0.00000000000E+00  0.39717569814E+03  0.39717569814E+03  0.00000000000E+00 0. -1.
         -1   -1    0    0    0  501 -0.00000000000E+00 -0.00000000000E+00 -0.51560948205E+02  0.51560948205E+02  0.00000000000E+00 0.  1.
         25    2    1    2    0    0 -0.82215794409E+02  0.43048220794E+02  0.20934901416E+03  0.26093686143E+03  0.12509376386E+03 0.  0.
         23    2    1    2    0    0  0.82215794409E+02 -0.43048220794E+02  0.13626573577E+03  0.18779978492E+03  0.89932320698E+02 0.  0.
          5    1    3    3  502    0 -0.79435983916E+02  0.39608161851E+00  0.20234958018E+03  0.21742368183E+03  0.41800000000E+01 0. -1.
         -5    1    3    3    0  502 -0.27798104925E+01  0.42652139176E+02  0.69994339847E+01  0.43513179598E+02  0.41800000000E+01 0. -1.
        -11    1    4    4    0    0  0.59513243989E+02 -0.70983492555E+02  0.89714012120E+02  0.12895381497E+03  0.00000000000E+00 0.  1.
         11    1    4    4    0    0  0.22702550420E+02  0.27935271760E+02  0.46551723650E+02  0.58845969944E+02  0.00000000000E+00 0. -1.
</event>
<event>
 7    1  0.6965441E-009  0.1436979E+03  0.7561462E-02  0.1208438E+00
          1   -1    0    0  501    0  0.00000000000E+00  0.00000000000E+00  0.11860572647E+03  0.11860572647E+03  0.00000000000E+00 0. -1.
         -1   -1    0    0    0  501 -0.00000000000E+00 -0.00000000000E+00 -0.28816852495E+03  0.28816852495E+03  0.00000000000E+00 0.  1.
         23    2    1    2    0    0 -0.10624546703E+03 -0.44341117317E+02  0.24521406542E+02  0.14881692393E+03  0.91054618332E+02 0.  0.
          5    1    1    2  502    0 -0.19284927357E+02  0.27173327394E+02 -0.82508426928E+02  0.89080924215E+02  0.41800000000E+01 0.  1.
         -5    1    1    2    0  502  0.12553039438E+03  0.17167789923E+02 -0.11157577810E+03  0.16887640327E+03  0.41800000000E+01 0.  1.
        -11    1    3    3    0    0 -0.88553379612E+02 -0.10911681502E+02 -0.18930836363E+02  0.91209332852E+02  0.00000000000E+00 0.  1.
         11    1    3    3    0    0 -0.17692087414E+02 -0.33429435814E+02  0.43452242905E+02  0.57607591074E+02  0.00000000000E+00 0. -1.
</event>
<event>
 8    1  0.6965441E-009  0.1501599E+03  0.7561462E-02  0.1200277E+00
          4   -1    0    0  501    0  0.00000000000E+00  0.00000000000E+00  0.27225482064E+03  0.27225482064E+03  0.00000000000E+00 0.  1.
         -4   -1    0    0    0  501 -0.00000000000E+00 -0.00000000000E+00 -0.94108057780E+02  0.94108057780E+02  0.00000000000E+00 0. -1.
         25    2    1    2    0    0 -0.47875363611E+02  0.10612830926E+03  0.96174618960E+02  0.19609006048E+03  0.12508591455E+03 0.  0.
         23    2    1    2    0    0  0.47875363611E+02 -0.10612830926E+03  0.81972143899E+02  0.17027281794E+03  0.93370935985E+02 0.  0.
          5    1    3    3  502    0  0.15663070793E+02  0.92492858697E+02  0.20244060960E+02  0.96060163964E+02  0.41800000000E+01 0. -1.
         -5    1    3    3    0  502 -0.63538434404E+02  0.13635450562E+02  0.75930558000E+02  0.10002989652E+03  0.41800000000E+01 0. -1.
        -11    1    4    4    0    0  0.65403903835E+02 -0.49515123822E+02  0.19819067430E+02  0.84393208007E+02  0.00000000000E+00 0. -1.
         11    1    4    4    0    0 -0.17528540224E+02 -0.56613185436E+02  0.62153076469E+02  0.85879609933E+02  0.00000000000E+00 0.  1.
</event>
<event>
 8    1  0.6965441E-009  0.1304761E+03  0.7561462E-02  0.1226751E+00
          1   -1    0    0  501    0  0.00000000000E+00  0.00000000000E+00  0.10866540997E+04  0.10866540997E+04  0.00000000000E+00 0. -1.
         -1   -1    0    0    0  501 -0.00000000000E+00 -0.00000000000E+00 -0.26988088336E+02  0.26988088336E+02  0.00000000000E+00 0.  1.
         25    2    1    2    0    0  0.39245837085E+02 -0.83228400915E+02  0.89343577934E+03  0.90683080206E+03  0.12508960513E+03 0.  0.
         23    2    1    2    0    0 -0.39245837085E+02  0.83228400915E+02  0.16623023203E+03  0.20681138599E+03  0.81677762482E+02 0.  0.
          5    1    3    3  502    0  0.66602973882E+02 -0.10009246751E+03  0.76322490518E+03  0.77264751761E+03  0.41800000000E+01 0. -1.
         -5    1    3    3    0  502 -0.27357136798E+02  0.16864066599E+02  0.13021087416E+03  0.13418328445E+03  0.41800000000E+01 0. -1.
        -11    1    4    4    0    0 -0.49163729519E+02  0.38540222903E+02  0.14174171460E+03  0.15489717473E+03  0.00000000000E+00 0. -1.
         11    1    4    4    0    0  0.99178924349E+01  0.44688178012E+02  0.24488517438E+02  0.51914211259E+02  0.00000000000E+00 0.  1.
</event>
<event>
 8    1  0.6965441E-009  0.1041992E+03  0.7561462E-02  0.1271705E+00
          2   -1    0    0  501    0  0.00000000000E+00  0.00000000000E+00  0.24573555837E+03  0.24573555837E+03  0.00000000000E+00 0. -1.
         -2   -1    0    0    0  501 -0.00000000000E+00 -0.00000000000E+00 -0.47323038584E+02  0.47323038584E+02  0.00000000000E+00 0.  1.
         25    2    1    2    0    0 -0.23062658891E+02  0.26082478082E+01  0.13228186442E+03  0.18353465502E+03  0.12509112178E+03 0.  0.
         23    2    1    2    0    0  0.23062658891E+02 -0.26082478082E+01  0.66130655368E+02  0.10952394193E+03  0.84163775370E+02 0.  0.
          5    1    3    3  502    0 -0.73922478493E+02  0.79413603951E+01  0.64449550507E+02  0.98482561868E+02  0.41800000000E+01 0.  1.
         -5    1    3    3    0  502  0.50859819602E+02 -0.53331125869E+01  0.67832313910E+02  0.85052093156E+02  0.41800000000E+01 0.  1.
        -11    1    4    4    0    0 -0.72044866666E+01  0.34210827667E+02  0.11009732741E+02  0.36653779789E+02  0.00000000000E+00 0. -1.
         11    1    4    4    0    0  0.30267145558E+02 -0.36819075475E+02  0.55120922627E+02  0.72870162140E+02  0.00000000000E+00 0.  1.
</event>
<event>
 8    1  0.6965441E-009  0.1144790E+03  0.7561462E-02  0.1252493E+00
          3   -1    0    0  501    0  0.00000000000E+00  0.00000000000E+00  0.13353615973E+03  0.13353615973E+03  0.00000000000E+00 0. -1.
         -3   -1    0    0    0  501 -0.00000000000E+00 -0.00000000000E+00 -0.15877863054E+03  0.15877863054E+03  0.00000000000E+00 0.  1.
         25    2    1    2    0    0 -0.94997615119E+02 -0.14511825007E+02  0.60180426463E+01  0.15785346831E+03  0.12508541352E+03 0.  0.
         23    2    1    2    0    0  0.94997615119E+02  0.14511825007E+02 -0.31260513459E+02  0.13446132197E+03  0.88698858281E+02 0.  0.
          5    1    3    3  502    0 -0.54522979909E+02  0.70715790017E+01 -0.57322345430E+02  0.79536697526E+02  0.41800000000E+01 0. -1.
         -5    1    3    3    0  502 -0.40474635210E+02 -0.21583404009E+02  0.63340388076E+02  0.78316770781E+02  0.41800000000E+01 0. -1.
        -11    1    4    4    0    0  0.42757769201E+02 -0.35398934247E+02 -0.27915881182E+02  0.62133789479E+02  0.00000000000E+00 0.  1.
         11    1    4    4    0    0  0.52239845918E+02  0.49910759254E+02 -0.33446322774E+01  0.72327532489E+02  0.00000000000E+00 0. -1.
</event>
<event>
 8    1  0.6965441E-009  0.1309452E+03  0.7561462E-02  0.1226060E+00
         -1   -1    0    0    0  501 -0.00000000000E+00  0.00000000000E+00  0.34267298653E+02  0.34267298653E+02  0.00000000000E+00 0. -1.
          1   -1    0    0  501    0  0.00000000000E+00 -0.00000000000E+00 -0.63070215486E+03  0.63070215486E+03  0.00000000000E+00 0.  1.
         25    2    1    2    0    0 -0.10025913631E+03  0.52349791088E+01 -0.27212388796E+03  0.31588062161E+03  0.12509938965E+03 0.  0.
         23    2    1    2    0    0  0.10025913631E+03 -0.52349791088E+01 -0.32431096824E+03  0.34908883190E+03  0.81277973733E+02 0.  0.
          5    1    3    3  502    0 -0.12270041940E+03 -0.19335579242E+02 -0.23506529994E+03  0.26589927639E+03  0.41800000000E+01 0. -1.
         -5    1    3    3    0  502  0.22441283094E+02  0.24570558351E+02 -0.37058588017E+02  0.49981345224E+02  0.41800000000E+01 0. -1.
        -11    1    4    4    0    0  0.70212736344E+02  0.90582629664E+01 -0.29904403408E+03  0.30730963993E+03  0.00000000000E+00 0.  1.
         11    1    4    4    0    0  0.30046399963E+02 -0.14293242075E+02 -0.25266934161E+02  0.41779191970E+02  0.00000000000E+00 0. -1.
</event>
<event>
 8    1  0.6965441E-009  0.2140770E+03  0.7561462E-02  0.1138377E+00
         -1   -1    0    0    0  501 -0.00000000000E+00  0.00000000000E+00  0.63429530443E+03  0.63429530443E+03  0.00000000000E+00 0.  1.
          1   -1    0    0  501    0  0.00000000000E+00 -0.00000000000E+00 -0.92624921373E+02  0.92624921373E+02  0.00000000000E+00 0. -1.
         25    2    1    2    0    0 -0.20360705031E+03  0.61684897888E+02  0.23811060846E+03  0.34293557178E+03  0.12508911609E+03 0.  0.
         23    2    1    2    0    0  0.20360705031E+03 -0.61684897888E+02  0.30355977460E+03  0.38398465403E+03  0.10017394978E+03 0.  0.
          5    1    3    3  502    0 -0.17500858193E+03  0.49522486315E+02  0.25018097107E+03  0.30933553156E+03  0.41800000000E+01 0. -1.
         -5    1    3    3    0  502 -0.28598468381E+02  0.12162411573E+02 -0.12070362610E+02  0.33600040216E+02  0.41800000000E+01 0. -1.
        -11    1    4    4    0    0  0.86409786030E+02 -0.41827177467E+02  0.21592580172E+03  0.23630513271E+03  0.00000000000E+00 0.  1.
         11    1    4    4    0    0  0.11719726428E+03 -0.19857720422E+02  0.87633972875E+02  0.14767952132E+03  0.00000000000E+00 0. -1.
</event>
<event>
 8    1  0.6965441E-009  0.1176180E+03  0.7561462E-02  0.1247079E+00
          2   -1    0    0  501    0  0.00000000000E+00  0.00000000000E+00  0.44972572604E+03  0.44972572604E+03  0.00000000000E+00 0.  1.
         -2   -1    0    0    0  501 -0.00000000000E+00 -0.00000000000E+00 -0.43773836076E+02  0.43773836076E+02  0.00000000000E+00 0. -1.
         25    2    1    2    0    0 -0.53590401589E+02  0.54578395409E+02  0.30296472661E+03  0.33658057707E+03  0.12509247342E+03 0.  0.
         23    2    1    2    0    0  0.53590401589E+02 -0.54578395409E+02  0.10298716336E+03  0.15691898504E+03  0.90368576746E+02 0.  0.
          5    1    3    3  502    0  0.31642962384E+02 -0.15062754028E+02  0.56410776380E+02  0.66541804297E+02  0.41800000000E+01 0.  1.
         -5    1    3    3    0  502 -0.85233363972E+02  0.69641149437E+02  0.24655395023E+03  0.27003877278E+03  0.41800000000E+01 0.  1.
        -11    1    4    4    0    0  0.15581904178E+02  0.72765466186E+01 -0.11972445723E+02  0.20954315190E+02  0.00000000000E+00 0. -1.
         11    1    4    4    0    0  0.38008497411E+02 -0.61854942028E+02  0.11495960908E+03  0.13596466985E+03  0.00000000000E+00 0.  1.
</event>
<event>
 8    1  0.6965441E-009  0.9948035E+02  0.7561462E-02  0.1281392E+00
          1   -1    0    0  501    0  0.00000000000E+00  0.00000000000E+00  0.39145204185E+03  0.39145204185E+03  0.00000000000E+00 0. -1.
         -1   -1    0    0    0  501 -0.00000000000E+00 -0.00000000000E+00 -0.39067101056E+02  0.39067101056E+02  0.00000000000E+00 0.  1.
         25    2    1    2    0    0  0.51225927334E+02  0.17950118080E+02  0.15582664407E+03  0.20706508709E+03  0.12509078672E+03 0.  0.
         23    2    1    2    0    0 -0.51225927334E+02 -0.17950118080E+02  0.19655829673E+03  0.22345405582E+03  0.91379695103E+02 0.  0.
          5    1    3    3  502    0  0.70765624566E+02  0.15913407155E+02  0.16837573264E+03  0.18338175997E+03  0.41800000000E+01 0.  1.
         -5    1    3    3    0  502 -0.19539697233E+02  0.20367109249E+01 -0.12549088577E+02  0.23683327119E+02  0.41800000000E+01 0.  1.
        -11    1    4    4    0    0 -0.67015335920E+02 -0.40792166184E+02  0.14850074416E+03  0.16795096632E+03  0.00000000000E+00 0.  1.
         11    1    4    4    0    0  0.15789408586E+02  0.22842048104E+02  0.48057552571E+02  0.55503089502E+02  0.00000000000E+00 0. -1.
</event>
<event>
 8    1  0.6965441E-009  0.2210581E+03  0.7561462E-02  0.1133097E+00
         -2   -1    0    0    0  501 -0.00000000000E+00  0.00000000000E+00  0.41876563127E+02  0.41876563127E+02  0.00000000000E+00 0.  1.
          2   -1    0    0  501    0  0.00000000000E+00 -0.00000000000E+00 -0.12523114326E+04  0.12523114326E+04  0.00000000000E+00 0. -1.
         25    2    1    2    0    0 -0.39310611707E+02  0.19845984905E+03 -0.59905430282E+03  0.64454908456E+03  0.12508328749E+03 0.  0.
         23    2    1    2    0    0  0.39310611707E+02 -0.19845984905E+03 -0.61138056664E+03  0.64963891115E+03  0.85515388907E+02 0.  0.
          5    1    3    3  502    0  0.38132166021E+02  0.12599769217E+03 -0.32840878314E+03  0.35383510533E+03  0.41800000000E+01 0. -1.
         -5    1    3    3    0  502 -0.77442777728E+02  0.72462156873E+02 -0.27064551968E+03  0.29071397924E+03  0.41800000000E+01 0. -1.
        -11    1    4    4    0    0 -0.29889127024E+01 -0.44607198700E+02 -0.55259340326E+02  0.71079747244E+02  0.00000000000E+00 0.  1.
         11    1    4    4    0    0  0.42299524409E+02 -0.15385265035E+03 -0.55612122631E+03  0.57855916390E+03  0.00000000000E+00 0. -1.
</event>
<event>
 8    1  0.6965441E-009  0.1315062E+03  0.7561462E-02  0.1225238E+00
         -4   -1    0    0    0  501 -0.00000000000E+00  0.00000000000E+00  0.15715018232E+03  0.15715018232E+03  0.00000000000E+00 0.  1.
          4   -1    0    0  501    0  0.00000000000E+00 -0.00000000000E+00 -0.11119461430E+03  0.11119461430E+03  0.00000000000E+00 0. -1.
         25    2    1    2    0    0  0.74613651337E+02 -0.84792480500E+01  0.14870342479E+02  0.14666106838E+03  0.12509695152E+03 0.  0.
         23    2    1    2    0    0 -0.74613651337E+02  0.84792480500E+01  0.31085225546E+02  0.12168372824E+03  0.90562375510E+02 0.  0.
          5    1    3    3  502    0  0.85798061956E+02 -0.52241470104E+02  0.96784093159E+01  0.10100308233E+03  0.41800000000E+01 0.  1.
         -5    1    3    3    0  502 -0.11184410619E+02  0.43762222054E+02  0.51919331627E+01  0.45657986048E+02  0.41800000000E+01 0.  1.
        -11    1    4    4    0    0 -0.93565904917E+02 -0.52448502076E+01  0.29431742776E+02  0.98225834175E+02  0.00000000000E+00 0.  1.
         11    1    4    4    0    0  0.18952253580E+02  0.13724098258E+02  0.16534827709E+01  0.23457894066E+02  0.00000000000E+00 0. -1.
</event>
<event>
 8    1  0.6965441E-009  0.7404724E+02  0.7561462E-02  0.1346847E+00
         -1   -1    0    0    0  501 -0.00000000000E+00  0.00000000000E+00  0.26009853672E+03  0.26009853672E+03  0.00000000000E+00 0.  1.
          1   -1    0    0  501    0  0.00000000000E+00 -0.00000000000E+00 -0.47706404196E+02  0.47706404196E+02  0.00000000000E+00 0. -1.
         25    2    1    2    0    0 -0.25851272805E+01  0.25837967306E+02  0.10496188958E+03  0.16534218650E+03  0.12508699747E+03 0.  0.
         23    2    1    2    0    0  0.25851272805E+01 -0.25837967306E+02  0.10743024294E+03  0.14246275442E+03  0.89889353426E+02 0.  0.
          5    1    3    3  502    0  0.13664908438E+02  0.38194704214E+02  0.12796387833E+03  0.13430484619E+03  0.41800000000E+01 0.  1.
         -5    1    3    3    0  502 -0.16250035718E+02 -0.12356736908E+02 -0.23001988743E+02  0.31037340318E+02  0.41800000000E+01 0.  1.
        -11    1    4    4    0    0 -0.39943324684E+02 -0.10950965419E+02  0.78959914425E+02  0.89163114102E+02  0.00000000000E+00 0.  1.
         11    1    4    4    0    0  0.42528451964E+02 -0.14887001887E+02  0.28470328520E+02  0.53299640315E+02  0.00000000000E+00 0. -1.
</event>
<event>
 8    1  0.6965441E-009  0.2660542E+03  0.7561462E-02  0.1103559E+00
          2   -1    0    0  501    0  0.00000000000E+00  0.00000000000E+00  0.26069050454E+04  0.26069050454E+04  0.00000000000E+00 0. -1.
         -2   -1    0    0    0  501 -0.00000000000E+00 -0.00000000000E+00 -0.27891393179E+02  0.27891393179E+02  0.00000000000E+00 0.  1.
         25    2    1    2    0    0 -0.82738458179E+02 -0.23212852390E+03  0.14014724579E+04  0.14284612466E+04  0.12508868358E+03 0.  0.
         23    2    1    2    0    0  0.82738458179E+02  0.23212852390E+03  0.11775411943E+04  0.12063351919E+04  0.88949575454E+02 0.  0.
          5    1    3    3  502    0 -0.78397279492E+01  0.12750018164E+02  0.16579091639E+03  0.16651764068E+03  0.41800000000E+01 0. -1.
         -5    1    3    3    0  502 -0.74898730229E+02 -0.24487854207E+03  0.12356815415E+04  0.12619436059E+04  0.41800000000E+01 0. -1.
        -11    1    4    4    0    0  0.32385240820E+02  0.19556733051E+03  0.94838270067E+03  0.96887828519E+03  0.00000000000E+00 0. -1.
         11    1    4    4    0    0  0.50353217358E+02  0.36561193388E+02  0.22915849363E+03  0.23745690675E+03  0.00000000000E+00 0.  1.
</event>
<event>
 7    1  0.6965441E-009  0.8958204E+02  0.7561462E-02  0.1303867E+00
         -1   -1    0    0    0  501 -0.00000000000E+00  0.00000000000E+00  0.88839026459E+02  0.88839026459E+02  0.00000000000E+00 0.  1.
          1   -1    0    0  501    0  0.00000000000E+00 -0.00000000000E+00 -0.22300197872E+03  0.22300197872E+03  0.00000000000E+00 0. -1.
         25    2    1    2    0    0  0.28357518650E+02 -0.27687089249E+02 -0.91777668831E+02  0.16012960268E+03  0.12509046880E+03 0.  0.
          5    1    3    3  502    0  0.32891750335E+02 -0.28805254131E+02 -0.12179110484E+03  0.12946874342E+03  0.41800000000E+01 0.  1.
         -5    1    3    3    0  502 -0.45342316849E+01  0.11181648820E+01  0.30013436007E+02  0.30660859261E+02  0.41800000000E+01 0.  1.
        -11    1    1    2    0    0 -0.34075722854E+02 -0.44786735394E+02  0.15959235327E+02  0.58495330989E+02  0.00000000000E+00 0. -1.
         11    1    1    2    0    0  0.57182042047E+01  0.72473824644E+02 -0.58344518753E+02  0.93216071502E+02  0.00000000000E+00 0.  1.
</event>
<event>
 8    1  0.6965441E-009  0.1419315E+03  0.7561462E-02  0.1210753E+00
          1   -1    0    0  501    0  0.00000000000E+00  0.00000000000E+00  0.54814310867E+02  0.54814310867E+02  0.00000000000E+00 0. -1.
         -1   -1    0    0    0  501 -0.00000000000E+00 -0.00000000000E+00 -0.40437986377E+03  0.40437986377E+03  0.00000000000E+00 0.  1.
         25    2    1    2    0    0  0.25496489074E+02  0.98724922673E+02 -0.18028584682E+03  0.24196575238E+03  0.12509099669E+03 0.  0.
         23    2    1    2    0    0 -0.25496489074E+02 -0.98724922673E+02 -0.16927970609E+03  0.21722842226E+03  0.90199153155E+02 0.  0.
          5    1    3    3  502    0  0.68926866674E+02  0.27120479169E+02 -0.10931602563E+03  0.13211320600E+03  0.41800000000E+01 0.  1.
         -5    1    3    3    0  502 -0.43430377600E+02  0.71604443504E+02 -0.70969821184E+02  0.10985254638E+03  0.41800000000E+01 0.  1.
        -11    1    4    4    0    0  0.25953153400E+02 -0.40741677151E+02 -0.27355177530E+02  0.55513567406E+02  0.00000000000E+00 0. -1.
         11    1    4    4    0    0 -0.51449642474E+02 -0.57983245522E+02 -0.14192452856E+03  0.16171485485E+03  0.00000000000E+00 0.  1.
</event>
<event>
 8    1  0.6965441E-009  0.1137159E+03  0.7561462E-02  0.1253839E+00
         -2   -1    0    0    0  501 -0.00000000000E+00  0.00000000000E+00  0.30533381225E+02  0.30533381225E+02  0.00000000000E+00 0.  1.
          2   -1    0    0  501    0  0.00000000000E+00 -0.00000000000E+00 -0.68018643376E+03  0.68018643376E+03  0.00000000000E+00 0. -1.
         25    2    1    2    0    0  0.47955340497E+02 -0.66133853733E+02 -0.23397572547E+03  0.27760661065E+03  0.12508952345E+03 0.  0.
         23    2    1    2    0    0 -0.47955340497E+02  0.66133853733E+02 -0.41567732707E+03  0.43311320434E+03  0.90144363327E+02 0.  0.
          5    1    3    3  502    0  0.25756901895E+02  0.17815722887E+02 -0.41240766938E+01  0.31863747203E+02  0.41800000000E+01 0. -1.
         -5    1    3    3    0  502  0.22198438602E+02 -0.83949576620E+02 -0.22985164878E+03  0.24574286345E+03  0.41800000000E+01 0. -1.
        -11    1    4    4    0    0 -0.51068613175E+02  0.92110187959E+01 -0.10357837133E+03  0.11585044293E+03  0.00000000000E+00 0.  1.
         11    1    4    4    0    0  0.31132726782E+01  0.56922834937E+02 -0.31209895574E+03  0.31726276141E+03  0.00000000000E+00 0. -1.
</event>
<event>
 8    1  0.6965441E-009  0.1221205E+03  0.7561462E-02  0.1239639E+00
         -1   -1    0    0    0  501 -0.00000000000E+00  0.00000000000E+00  0.70830789878E+02  0.70830789878E+02  0.00000000000E+00 0.  1.
          1   -1    0    0  501    0  0.00000000000E+00 -0.00000000000E+00 -0.37882649534E+03  0.37882649534E+03  0.00000000000E+00 0. -1.
         25    2    1    2    0    0  0.95961905658E+02 -0.71355263968E+02 -0.14011705561E+03  0.22266326570E+03  0.12508349046E+03 0.  0.
         23    2    1    2    0    0 -0.95961905658E+02  0.71355263968E+02 -0.16787864986E+03  0.22699401952E+03  0.95093547558E+02 0.  0.
          5    1    3    3  502    0  0.10610209082E+02 -0.17447758673E+02  0.22842464346E+02  0.30923314778E+02  0.41800000000E+01 0.  1.
         -5    1    3    3    0  502  0.85351696577E+02 -0.53907505295E+02 -0.16295951996E+03  0.19173995092E+03  0.41800000000E+01 0.  1.
        -11    1    4    4    0    0 -0.75394520609E+02  0.41369217607E+02 -0.17005882974E+03  0.19056692125E+03  0.00000000000E+00 0. -1.
         11    1    4    4    0    0 -0.20567385050E+02  0.29986046361E+02  0.21801798805E+01  0.36427098271E+02  0.00000000000E+00 0.  1.
</event>
<event>
 8    1  0.6965441E-009  0.1248623E+03  0.7561462E-02  0.1235285E+00
         -2   -1    0    0    0  501 -0.00000000000E+00  0.00000000000E+00  0.57964549821E+02  0.57964549821E+02  0.00000000000E+00 0.  1.
          2   -1    0    0  501    0  0.00000000000E+00 -0.00000000000E+00 -0.41233501427E+03  0.41233501427E+03  0.00000000000E+00 0. -1.
         25    2    1    2    0    0 -0.20839510583E+02 -0.83305988332E+02 -0.29642271050E+03  0.33299809317E+03  0.12508850410E+03 0.  0.
         23    2    1    2    0    0  0.20839510583E+02  0.83305988332E+02 -0.57947753946E+02  0.13730147092E+03  0.90108705667E+02 0.  0.
          5    1    3    3  502    0 -0.40361551714E+02  0.19751140723E+02 -0.68044332960E+02  0.81649654406E+02  0.41800000000E+01 0. -1.
         -5    1    3    3    0  502  0.19522041130E+02 -0.10305712905E+03 -0.22837837754E+03  0.25134843876E+03  0.41800000000E+01 0. -1.
        -11    1    4    4    0    0 -0.11468964209E+02  0.56467993309E+02  0.89495724086E+01  0.58311802019E+02  0.00000000000E+00 0.  1.
         11    1    4    4    0    0  0.32308474793E+02  0.26837995024E+02 -0.66897326354E+02  0.78989668905E+02  0.00000000000E+00 0. -1.
</event>
<event>
 8    1  0.6965441E-009  0.9154105E+02  0.7561462E-02  0.1299162E+00
          2   -1    0    0  501    0  0.00000000000E+00  0.00000000000E+00  0.96177237503E+02  0.96177237503E+02  0.00000000000E+00 0.  1.
         -2   -1    0    0    0  501 -0.00000000000E+00 -0.00000000000E+00 -0.14115574361E+03  0.14115574361E+03  0.00000000000E+00 0. -1.
         25    2    1    2    0    0 -0.36800210405E+02 -0.98829268203E+01 -0.51177216032E+02  0.14040742420E+03  0.12507281720E+03 0.  0.
         23    2    1    2    0    0  0.36800210405E+02  0.98829268203E+01  0.61987099269E+01  0.96925556908E+02  0.88905634516E+02 0.  0.
          5    1    3    3  502    0 -0.12434436449E+02 -0.67039669487E+02 -0.30271895417E+02  0.74718087147E+02  0.41800000000E+01 0. -1.
         -5    1    3    3    0  502 -0.24365773956E+02  0.57156742667E+02 -0.20905320614E+02  0.65689337055E+02  0.41800000000E+01 0. -1.
        -11    1    4    4    0    0  0.11719369788E+02 -0.13728707902E+02  0.42929351747E+02  0.46569843142E+02  0.00000000000E+00 0.  1.
         11    1    4    4    0    0  0.25080840617E+02  0.23611634722E+02 -0.36730641820E+02  0.50355713765E+02  0.00000000000E+00 0. -1.
</event>
<event>
 8    1  0.6965441E-009  0.9328224E+02  0.7561462E-02  0.1295092E+00
         -1   -1    0    0    0  501 -0.00000000000E+00  0.00000000000E+00  0.10941697813E+03  0.10941697813E+03  0.00000000000E+00 0.  1.
          1   -1    0    0  501    0  0.00000000000E+00 -0.00000000000E+00 -0.16590015523E+03  0.16590015523E+03  0.00000000000E+00 0. -1.
         25    2    1    2    0    0  0.15753553320E+02 -0.47892568958E+01  0.34144524537E+02  0.13072415875E+03  0.12510733672E+03 0.  0.
         23    2    1    2    0    0 -0.15753553320E+02  0.47892568958E+01 -0.90627701637E+02  0.14459297460E+03  0.11145688214E+03 0.  0.
          5    1    3    3  502    0  0.30756170354E+02 -0.60527554701E+02  0.14020620624E+02  0.69451976902E+02  0.41800000000E+01 0.  1.
         -5    1    3    3    0  502 -0.15002617034E+02  0.55738297805E+02  0.20123903913E+02  0.61272181851E+02  0.41800000000E+01 0.  1.
        -11    1    4    4    0    0  0.20409174473E+02 -0.85458679250E+01 -0.10202771524E+03  0.10439933399E+03  0.00000000000E+00 0. -1.
         11    1    4    4    0    0 -0.36162727793E+02  0.13335124821E+02  0.11400013600E+02  0.40193640610E+02  0.00000000000E+00 0.  1.
</event>
<event>
 8    1  0.6965441E-009  0.1274600E+03  0.7561462E-02  0.1231274E+00
          2   -1    0    0  501    0  0.00000000000E+00  0.00000000000E+00  0.36960389081E+03  0.36960389081E+03  0.00000000000E+00 0. -1.
         -2   -1    0    0    0  501 -0.00000000000E+00 -0.00000000000E+00 -0.54596072311E+02  0.54596072311E+02  0.00000000000E+00 0.  1.
         25    2    1    2    0    0 -0.57301237242E+02 -0.31987314984E+02  0.25743918206E+03  0.29364793592E+03  0.12509019825E+03 0.  0.
         23    2    1    2    0    0  0.57301237242E+02  0.31987314984E+02  0.57568636435E+02  0.13055202720E+03  0.97072466723E+02 0.  0.
          5    1    3    3  502    0  0.38744479296E+02 -0.21524855223E+02  0.84265717782E+02  0.95302873312E+02  0.41800000000E+01 0.  1.
         -5    1    3    3    0  502 -0.96045716538E+02 -0.10462459760E+02  0.17317346428E+03  0.19834506261E+03  0.41800000000E+01 0.  1.
        -11    1    4    4    0    0  0.60353641740E+02 -0.18493859810E+02  0.47468334497E+02  0.78979919612E+02  0.00000000000E+00 0.  1.
         11    1    4    4    0    0 -0.30524044987E+01  0.50481174794E+02  0.10100301938E+02  0.51572107587E+02  0.00000000000E+00 0. -1.
</event>
<event>
 8    1  0.6965441E-009  0.1106432E+03  0.7561462E-02  0.1259383E+00
          2   -1    0    0  501    0  0.00000000000E+00  0.00000000000E+00  0.47932045017E+03  0.47932045017E+03  0.00000000000E+00 0. -1.
         -2   -1    0    0    0  501 -0.00000000000E+00 -0.00000000000E+00 -0.67925645196E+02  0.67925645196E+02  0.00000000000E+00 0.  1.
         25    2    1    2    0    0  0.87740532692E+02  0.31080147292E+02  0.38428008696E+03  0.41471094767E+03  0.12509839430E+03 0.  0.
         23    2    1    2    0    0 -0.87740532692E+02 -0.31080147292E+02  0.27114718014E+02  0.13253514769E+03  0.90365816587E+02 0.  0.
          5    1    3    3  502    0  0.21039694499E+02  0.37347668165E+02  0.26240957155E+02  0.50433890335E+02  0.41800000000E+01 0. -1.
         -5    1    3    3    0  502  0.66700838194E+02 -0.62675208723E+01  0.35803912980E+03  0.36427705734E+03  0.41800000000E+01 0. -1.
        -11    1    4    4    0    0 -0.40998246455E+02  0.16682879879E+02  0.45239916939E+02  0.63291585366E+02  0.00000000000E+00 0. -1.
         11    1    4    4    0    0 -0.46742286238E+02 -0.47763027172E+02 -0.18125198925E+02  0.69243562325E+02  0.00000000000E+00 0.  1.
</event>
<event>
 8    1  0.6965441E-009  0.1149347E+03  0.7561462E-02  0.1251695E+00
         -2   -1    0    0    0  501 -0.00000000000E+00  0.00000000000E+00  0.17509687007E+02  0.17509687007E+02  0.00000000000E+00 0.  1.
          2   -1    0    0  501    0  0.00000000000E+00 -0.00000000000E+00 -0.12739664359E+04  0.12739664359E+04  0.00000000000E+00 0. -1.
         25    2    1    2    0    0  0.96039308025E+02 -0.33694884954E+02 -0.76158782126E+03  0.77847394927E+03  0.12508711461E+03 0.  0.
         23    2    1    2    0    0 -0.96039308025E+02  0.33694884954E+02 -0.49486892762E+03  0.51300217362E+03  0.88977978520E+02 0.  0.
          5    1    3    3  502    0  0.85014578414E+02 -0.28312957992E+02 -0.76016040450E+03  0.76543478828E+03  0.41800000000E+01 0.  1.
         -5    1    3    3    0  502  0.11024729611E+02 -0.53819269627E+01 -0.14274167601E+01  0.13039160994E+02  0.41800000000E+01 0.  1.
        -11    1    4    4    0    0 -0.16179076212E+01  0.32739676491E+02 -0.63983062562E+02  0.71891142268E+02  0.00000000000E+00 0.  1.
         11    1    4    4    0    0 -0.94421400403E+02  0.95520846367E+00 -0.43088586506E+03  0.44111103135E+03  0.00000000000E+00 0. -1.
</event>
<event>
 7    1  0.6965441E-009  0.9691085E+02  0.7561462E-02  0.1286929E+00
         -2   -1    0    0    0  501 -0.00000000000E+00  0.00000000000E+00  0.11526998392E+04  0.11526998392E+04  0.00000000000E+00 0.  1.
          2   -1    0    0  501    0  0.00000000000E+00 -0.00000000000E+00 -0.12195820685E+02  0.12195820685E+02  0.00000000000E+00 0. -1.
         25    2    1    2    0    0 -0.57351370375E+02  0.51393705159E+02  0.66707161439E+03  0.68305453965E+03  0.12509385599E+03 0.  0.
          5    1    3    3  502    0 -0.65930556844E+02  0.61559207690E+02  0.66213404064E+03  0.66826292322E+03  0.41800000000E+01 0. -1.
         -5    1    3    3    0  502  0.85791864691E+01 -0.10165502531E+02  0.49375737473E+01  0.14791616433E+02  0.41800000000E+01 0. -1.
        -11    1    1    2    0    0  0.25860739241E+02 -0.52008502421E+02  0.29960795259E+03  0.30518615207E+03  0.00000000000E+00 0.  1.
         11    1    1    2    0    0  0.31490631134E+02  0.61479726264E+00  0.17382445155E+03  0.17665496818E+03  0.00000000000E+00 0. -1.
</event>
<event>
 8    1  0.6965441E-009  0.1706110E+03  0.7561462E-02  0.1177212E+00
         -3   -1    0    0    0  501 -0.00000000000E+00  0.00000000000E+00  0.14794075202E+03  0.14794075202E+03  0.00000000000E+00 0. -1.
          3   -1    0    0  501    0  0.00000000000E+00 -0.00000000000E+00 -0.27723829677E+03  0.27723829677E+03  0.00000000000E+00 0.  1.
         25    2    1    2    0    0  0.10399513631E+03  0.11712957014E+03 -0.13901785565E+03  0.24394264144E+03  0.12509086117E+03 0.  0.
         23    2    1    2    0    0 -0.10399513631E+03 -0.11712957014E+03  0.97203109010E+01  0.18123640735E+03  0.90652227386E+02 0.  0.
          5    1    3    3  502    0  0.60410536994E+02  0.12577321245E+03 -0.14211637438E+03  0.19920559786E+03  0.41800000000E+01 0. -1.
         -5    1    3    3    0  502  0.43584599316E+02 -0.86436423181E+01  0.30985187329E+01  0.44737043582E+02  0.41800000000E+01 0. -1.
        -11    1    4    4    0    0 -0.51497056272E+02 -0.49956833622E+02  0.49492621973E+02  0.87161640989E+02  0.00000000000E+00 0.  1.
         11    1    4    4    0    0 -0.52498080039E+02 -0.67172736514E+02 -0.39772311072E+02  0.94074766365E+02  0.00000000000E+00 0. -1.
</event>
<event>
 8    1  0.6965441E-009  0.9577442E+02  0.7561462E-02  0.1289441E+00
          1   -1    0    0  501    0  0.00000000000E+00  0.00000000000E+00  0.50929917030E+02  0.50929917030E+02  0.00000000000E+00 0. -1.
         -1   -1    0    0    0  501 -0.00000000000E+00 -0.00000000000E+00 -0.46518752021E+03  0.46518752021E+03  0.00000000000E+00 0.  1.
         25    2    1    2    0    0 -0.72191461604E+02 -0.55911702018E+01 -0.35924710775E+03  0.38723252540E+03  0.12509067107E+03 0.  0.
         23    2    1    2    0    0  0.72191461604E+02  0.55911702018E+01 -0.55010495435E+02  0.12888491184E+03  0.91336178924E+02 0.  0.
          5    1    3    3  502    0 -0.77612025394E+02 -0.37626336111E+02 -0.33636811705E+03  0.34727561133E+03  0.41800000000E+01 0. -1.
         -5    1    3    3    0  502  0.54205637904E+01  0.32035165909E+02 -0.22878990694E+02  0.39956914067E+02  0.41800000000E+01 0. -1.
        -11    1    4    4    0    0  0.52080708403E+02  0.30969156485E+01  0.16372356488E+02  0.54681305135E+02  0.00000000000E+00 0. -1.
         11    1    4    4    0    0  0.20110753201E+02  0.24942545533E+01 -0.71382851923E+02  0.74203606710E+02  0.00000000000E+00 0.  1.
</event>
<event>
 8    1  0.6965441E-009  0.3543144E+03  0.7561462E-02  0.1060858E+00
         -2   -1    0    0    0  501 -0.00000000000E+00  0.00000000000E+00  0.73651517938E+03  0.73651517938E+03  0.00000000000E+00 0.  1.
          2   -1    0    0  501    0  0.00000000000E+00 -0.00000000000E+00 -0.22544166663E+03  0.22544166663E+03  0.00000000000E+00 0. -1.
         25    2    1    2    0    0 -0.21016523148E+03 -0.27121417947E+03  0.48386117415E+03  0.60621454968E+03  0.12509152138E+03 0.  0.
         23    2    1    2    0    0  0.21016523148E+03  0.27121417947E+03  0.27212338607E+02  0.35574229634E+03  0.89919488208E+02 0.  0.
          5    1    3    3  502    0 -0.66235090025E+02 -0.18689878957E+03  0.26520304164E+03  0.33116215120E+03  0.41800000000E+01 0.  1.
         -5    1    3    3    0  502 -0.14393014146E+03 -0.84315389900E+02  0.21865813251E+03  0.27505239847E+03  0.41800000000E+01 0.  1.
        -11    1    4    4    0    0  0.14583857165E+03  0.19912960113E+03  0.59470141963E+02  0.25388616506E+03  0.00000000000E+00 0.  1.
         11    1    4    4    0    0  0.64326659833E+02  0.72084578346E+02 -0.32257803357E+02  0.10185613127E+03  0.00000000000E+00 0. -1.
</event>
<event>
 7    1  0.6965441E-009  0.1404023E+03  0.7561462E-02  0.1212789E+00
         -3   -1    0    0    0  501 -0.00000000000E+00  0.00000000000E+00  0.26795860477E+03  0.26795860477E+03  0.00000000000E+00 0.  1.
          3   -1    0    0  501    0  0.00000000000E+00 -0.00000000000E+00 -0.10864601075E+03  0.10864601075E+03  0.00000000000E+00 0. -1.
         23    2    1    2    0    0  0.38799673676E+02 -0.12080143676E+03  0.11292350155E+03  0.19255083307E+03  0.90695668651E+02 0.  0.
          5    1    1    2  502    0 -0.24404588681E+02  0.14252643214E+01 -0.31978102040E+02  0.40468342407E+02  0.41800000000E+01 0. -1.
         -5    1    1    2    0  502 -0.14395084996E+02  0.11937617244E+03  0.78367194508E+02  0.14358544004E+03  0.41800000000E+01 0. -1.
        -11    1    3    3    0    0 -0.10996341098E+02 -0.32573809490E+02  0.78253182572E+02  0.85472411717E+02  0.00000000000E+00 0.  1.
         11    1    3    3    0    0  0.49796014774E+02 -0.88227627267E+02  0.34670318982E+02  0.10707842135E+03  0.00000000000E+00 0. -1.
</event>
<event>
 7    1  0.6965441E-009  0.1184849E+03  0.7561462E-02  0.1245618E+00
          1   -1    0    0  501    0  0.00000000000E+00  0.00000000000E+00  0.56210964917E+03  0.56210964917E+03  0.00000000000E+00 0. -1.
         -1   -1    0    0    0  501 -0.00000000000E+00 -0.00000000000E+00 -0.30095549515E+02  0.30095549515E+02  0.00000000000E+00 0.  1.
         23    2    1    2    0    0 -0.20638354895E+02 -0.61274628196E+02  0.15636680102E+03  0.19146910653E+03  0.89606476013E+02 0.  0.
          5    1    1    2  502    0 -0.49376998617E+02  0.13243424058E+02  0.10171066562E+03  0.11391228281E+03  0.41800000000E+01 0. -1.
         -5    1    1    2    0  502  0.70015353511E+02  0.48031204138E+02  0.27393663301E+03  0.28682380934E+03  0.41800000000E+01 0. -1.
        -11    1    3    3    0    0  0.29538436101E+02 -0.19701672601E+02  0.21040985736E+02  0.41272244806E+02  0.00000000000E+00 0. -1.
         11    1    3    3    0    0 -0.50176790996E+02 -0.41572955595E+02  0.13532581528E+03  0.15019686173E+03  0.00000000000E+00 0.  1.
</event>
<event>
 8    1  0.6965441E-009  0.1825192E+03  0.7561462E-02  0.1165387E+00
         -2   -1    0    0    0  501 -0.00000000000E+00  0.00000000000E+00  0.19185968507E+03  0.19185968507E+03  0.00000000000E+00 0.  1.
          2   -1    0    0  501    0  0.00000000000E+00 -0.00000000000E+00 -0.41534879844E+03  0.41534879844E+03  0.00000000000E+00 0. -1.
         25    2    1    2    0    0  0.97280402383E+02  0.12226141680E+03 -0.33846924513E+03  0.39322019543E+03  0.12509740792E+03 0.  0.
         23    2    1    2    0    0 -0.97280402383E+02 -0.12226141680E+03  0.11498013176E+03  0.21398828809E+03  0.90328434136E+02 0.  0.
          5    1    3    3  502    0 -0.20305118043E+02  0.30090326714E+02 -0.14045044142E+03  0.14512589182E+03  0.41800000000E+01 0.  1.
         -5    1    3    3    0  502  0.11758552043E+03  0.92171090085E+02 -0.19801880371E+03  0.24809430361E+03  0.41800000000E+01 0.  1.
        -11    1    4    4    0    0 -0.68499268106E+02 -0.17931256349E+02  0.58854263702E+02  0.92073362278E+02  0.00000000000E+00 0.  1.
         11    1    4    4    0    0 -0.28781134277E+02 -0.10433016045E+03  0.56125868055E+02  0.12191492581E+03  0.00000000000E+00 0. -1.
</event>
<event>
 8    1  0.6965441E-009  0.1134742E+03  0.7561462E-02  0.1254268E+00
          1   -1    0    0  501    0  0.00000000000E+00  0.00000000000E+00  0.10015710871E+03  0.10015710871E+03  0.00000000000E+00 0. -1.
         -1   -1    0    0    0  501 -0.00000000000E+00 -0.00000000000E+00 -0.13808488240E+03  0.13808488240E+03  0.00000000000E+00 0.  1.
         25    2    1    2    0    0  0.90477309156E+01  0.41236906648E+02 -0.50332521306E+02  0.14128656178E+03  0.12508471503E+03 0.  0.
         23    2    1    2    0    0 -0.90477309156E+01 -0.41236906648E+02  0.12404747619E+02  0.96955429327E+02  0.86395217506E+02 0.  0.
          5    1    3    3  502    0  0.64775748599E+02  0.59485374769E+01 -0.17518644524E+02  0.67495614751E+02  0.41800000000E+01 0. -1.
         -5    1    3    3    0  502 -0.55728017683E+02  0.35288369171E+02 -0.32813876782E+02  0.73790947027E+02  0.41800000000E+01 0. -1.
        -11    1    4    4    0    0  0.34870101413E+02 -0.38091817889E+02  0.11544195037E+02  0.52916717601E+02  0.00000000000E+00 0. -1.
         11    1    4    4    0    0 -0.43917832328E+02 -0.31450887592E+01  0.86055258162E+00  0.44038711726E+02  0.00000000000E+00 0.  1.
</event>
<event>
 8    1  0.6965441E-009  0.1567220E+03  0.7561462E-02  0.1192448E+00
          2   -1    0    0  501    0  0.00000000000E+00  0.00000000000E+00  0.12929236210E+04  0.12929236210E+04  0.00000000000E+00 0. -1.
         -2   -1    0    0    0  501 -0.00000000000E+00 -0.00000000000E+00 -0.25328486360E+02  0.25328486360E+02  0.00000000000E+00 0.  1.
         25    2    1    2    0    0  0.14258332551E+03  0.16704069652E+02  0.72291970727E+03  0.74757574741E+03  0.12509022465E+03 0.  0.
         23    2    1    2    0    0 -0.14258332551E+03 -0.16704069652E+02  0.54467542737E+03  0.57067635995E+03  0.91603253032E+02 0.  0.
          5    1    3    3  502    0  0.49874468828E+02 -0.17694117815E+02  0.73546092914E+02  0.90703057441E+02  0.41800000000E+01 0. -1.
         -5    1    3    3    0  502  0.92708856684E+02  0.34398187468E+02  0.64937361436E+03  0.65687268997E+03  0.41800000000E+01 0. -1.
        -11    1    4    4    0    0 -0.98612394682E+02  0.23974083117E+02  0.24703788146E+03  0.26707091927E+03  0.00000000000E+00 0.  1.
         11    1    4    4    0    0 -0.43970930830E+02 -0.40678152769E+02  0.29763754592E+03  0.30360544068E+03  0.00000000000E+00 0. -1.
</event>
<event>
 8    1  0.6965441E-009  0.1049254E+03  0.7561462E-02  0.1270267E+00
         -1   -1    0    0    0  501 -0.00000000000E+00  0.00000000000E+00  0.60321039122E+03  0.60321039122E+03  0.00000000000E+00 0.  1.
          1   -1    0    0  501    0  0.00000000000E+00 -0.00000000000E+00 -0.20449190534E+02  0.20449190534E+02  0.00000000000E+00 0. -1.
         25    2    1    2    0    0 -0.29126688873E+02 -0.21712246199E+02  0.33382617856E+03  0.35833991270E+03  0.12509112639E+03 0.  0.
         23    2    1    2    0    0  0.29126688873E+02  0.21712246199E+02  0.24893502212E+03  0.26531966905E+03  0.84297662519E+02 0.  0.
          5    1    3    3  502    0  0.41032858737E+02  0.21007229696E+02  0.93514118837E+02  0.10434252258E+03  0.41800000000E+01 0.  1.
         -5    1    3    3    0  502 -0.70159547609E+02 -0.42719475894E+02  0.24031205972E+03  0.25399739013E+03  0.41800000000E+01 0.  1.
        -11    1    4    4    0    0  0.41581380170E+01 -0.26605178537E+02  0.32754650728E+02  0.42402744971E+02  0.00000000000E+00 0. -1.
         11    1    4    4    0    0  0.24968550856E+02  0.48317424735E+02  0.21618037139E+03  0.22291692408E+03  0.00000000000E+00 0.  1.
</event>
<event>
 8    1  0.6965441E-009  0.1356875E+03  0.7561462E-02  0.1219252E+00
         -2   -1    0    0    0  501 -0.00000000000E+00  0.00000000000E+00  0.30171535659E+02  0.30171535659E+02  0.00000000000E+00 0.  1.
          2   -1    0    0  501    0  0.00000000000E+00 -0.00000000000E+00 -0.75162202209E+03  0.75162202209E+03  0.00000000000E+00 0. -1.
         25    2    1    2    0    0 -0.14887609618E+02  0.89620407599E+02 -0.46774157612E+03  0.49263472674E+03  0.12511328298E+03 0.  0.
         23    2    1    2    0    0  0.14887609618E+02 -0.89620407599E+02 -0.25370891032E+03  0.28915883102E+03  0.10483873331E+03 0.  0.
          5    1    3    3  502    0  0.34621001868E+01 -0.22552954979E+02 -0.19862472591E+02  0.30538698948E+02  0.41800000000E+01 0. -1.
         -5    1    3    3    0  502 -0.18349709805E+02  0.11217336258E+03 -0.44787910353E+03  0.46209602779E+03  0.41800000000E+01 0. -1.
        -11    1    4    4    0    0  0.45801279111E+02 -0.71411391645E+01 -0.55859592740E+02  0.72588202470E+02  0.00000000000E+00 0. -1.
         11    1    4    4    0    0 -0.30913669493E+02 -0.82479268434E+02 -0.19784931758E+03  0.21657062855E+03  0.00000000000E+00 0.  1.
</event>
<event>
 8    1  0.6965441E-009  0.1055614E+03  0.7561462E-02  0.1269017E+00
          1   -1    0    0  501    0  0.00000000000E+00  0.00000000000E+00  0.41847372996E+02  0.41847372996E+02  0.00000000000E+00 0. -1.
         -1   -1    0    0    0  501 -0.00000000000E+00 -0.00000000000E+00 -0.39603995389E+03  0.39603995389E+03  0.00000000000E+00 0.  1.
         25    2    1    2    0    0  0.21389006329E+02  0.43247468136E+01 -0.31431524991E+03  0.33899488226E+03  0.12508901170E+03 0.  0.
         23    2    1    2    0    0 -0.21389006329E+02 -0.43247468136E+01 -0.39877330982E+02  0.98892444621E+02  0.87825514801E+02 0.  0.
          5    1    3    3  502    0 -0.52572435994E+02  0.86617469471E-01 -0.13475036697E+03  0.14470315245E+03  0.41800000000E+01 0.  1.
         -5    1    3    3    0  502  0.73961442323E+02  0.42381293441E+01 -0.17956488293E+03  0.19429172981E+03  0.41800000000E+01 0.  1.
        -11    1    4    4    0    0  0.29061185948E+02  0.11583777800E+02 -0.33126795276E+02  0.45564470831E+02  0.00000000000E+00 0.  1.
         11    1    4    4    0    0 -0.50450192277E+02 -0.15908524613E+02 -0.67505357065E+01  0.53327973790E+02  0.00000000000E+00 0. -1.
</event>
<event>
 8    1  0.6965441E-009  0.1458784E+03  0.7561462E-02  0.1205631E+00
         -2   -1    0    0    0  501 -0.00000000000E+00  0.00000000000E+00  0.94051283520E+03  0.94051283520E+03  0.00000000000E+00 0.  1.
          2   -1    0    0  501    0  0.00000000000E+00 -0.00000000000E+00 -0.30739584397E+02  0.30739584397E+02  0.00000000000E+00 0. -1.
         25    2    1    2    0    0  0.87995089970E+02  0.82747489717E+02  0.62518057778E+03  0.64891342769E+03  0.12509036288E+03 0.  0.
         23    2    1    2    0    0 -0.87995089970E+02 -0.82747489717E+02  0.28459267302E+03  0.32233899191E+03  0.91209392354E+02 0.  0.
          5    1    3    3  502    0  0.26165261215E+01  0.81631014919E+02  0.21750928452E+03  0.23237519243E+03  0.41800000000E+01 0. -1.
         -5    1    3    3    0  502  0.85378563849E+02  0.11164747977E+01  0.40767129327E+03  0.41653823526E+03  0.41800000000E+01 0. -1.
        -11    1    4    4    0    0 -0.38859912901E+02 -0.17015129721E+02  0.23168766309E+02  0.48336313496E+02  0.00000000000E+00 0. -1.
         11    1    4    4    0    0 -0.49135177070E+02 -0.65732359996E+02  0.26142390671E+03  0.27400267841E+03  0.00000000000E+00 0.  1.
</event>
<event>
 8    1  0.6965441E-009  0.1133687E+03  0.7561462E-02  0.1254456E+00
          2   -1    0    0  501    0  0.00000000000E+00  0.00000000000E+00  0.17610735275E+03  0.17610735275E+03  0.00000000000E+00 0. -1.
         -2   -1    0    0    0  501 -0.00000000000E+00 -0.00000000000E+00 -0.98146004594E+02  0.98146004594E+02  0.00000000000E+00 0.  1.
         25    2    1    2    0    0  0.48175740599E+02 -0.16191486992E+02  0.10263050871E+03  0.16959342892E+03  0.12508334655E+03 0.  0.
         23    2    1    2    0    0 -0.48175740599E+02  0.16191486992E+02 -0.24669160554E+02  0.10465992842E+03  0.88102593040E+02 0.  0.
          5    1    3    3  502    0  0.70517326686E+02 -0.53054804937E+02  0.85733573915E+02  0.12310655460E+03  0.41800000000E+01 0.  1.
         -5    1    3    3    0  502 -0.22341586086E+02  0.36863317945E+02  0.16896934791E+02  0.46486874321E+02  0.41800000000E+01 0.  1.
        -11    1    4    4    0    0 -0.48574253131E+02 -0.24491458549E+02  0.45207357796E+01  0.54586872608E+02  0.00000000000E+00 0. -1.
         11    1    4    4    0    0  0.39851253199E+00  0.40682945540E+02 -0.29189896334E+02  0.50073055809E+02  0.00000000000E+00 0.  1.
</event>
<event>
 8    1  0.6965441E-009  0.2390262E+03  0.7561462E-02  0.1120443E+00
         -2   -1    0    0    0  501 -0.00000000000E+00  0.00000000000E+00  0.60794961341E+03  0.60794961341E+03  0.00000000000E+00 0.  1.
          2   -1    0    0  501    0  0.00000000000E+00 -0.00000000000E+00 -0.10773297489E+03  0.10773297489E+03  0.00000000000E+00 0. -1.
         25    2    1    2    0    0 -0.16993700528E+03  0.15648055800E+03  0.26703093378E+03  0.37459062492E+03  0.12509143011E+03 0.  0.
         23    2    1    2    0    0  0.16993700528E+03 -0.15648055800E+03  0.23318570474E+03  0.34109196338E+03  0.92754535156E+02 0.  0.
          5    1    3    3  502    0 -0.14441932694E+03  0.10604994388E+03  0.26235039043E+03  0.31772430242E+03  0.41800000000E+01 0.  1.
         -5    1    3    3    0  502 -0.25517678345E+02  0.50430614124E+02  0.46805433497E+01  0.56866322503E+02  0.41800000000E+01 0.  1.
        -11    1    4    4    0    0  0.47884696723E+02 -0.57845314546E+01  0.82265287200E+02  0.95362374459E+02  0.00000000000E+00 0.  1.
         11    1    4    4    0    0  0.12205230856E+03 -0.15069602655E+03  0.15092041754E+03  0.24572958892E+03  0.00000000000E+00 0. -1.
</event>
<event>
 8    1  0.6965441E-009  0.1672197E+03  0.7561462E-02  0.1180779E+00
         -2   -1    0    0    0  501 -0.00000000000E+00  0.00000000000E+00  0.46274666502E+02  0.46274666502E+02  0.00000000000E+00 0.  1.
          2   -1    0    0  501    0  0.00000000000E+00 -0.00000000000E+00 -0.66402544653E+03  0.66402544653E+03  0.00000000000E+00 0. -1.
         25    2    1    2    0    0 -0.11428384202E+03  0.74323154693E+02 -0.36082561839E+03  0.40549612690E+03  0.12508898505E+03 0.  0.
         23    2    1    2    0    0  0.11428384202E+03 -0.74323154693E+02 -0.25692516164E+03  0.30480398612E+03  0.91160317036E+02 0.  0.
          5    1    3    3  502    0  0.16226332277E+02 -0.75289358423E+01 -0.10687448086E+03  0.10844171611E+03  0.41800000000E+01 0. -1.
         -5    1    3    3    0  502 -0.13051017430E+03  0.81852090535E+02 -0.25395113753E+03  0.29705441079E+03  0.41800000000E+01 0. -1.
        -11    1    4    4    0    0 -0.14382476237E+02 -0.24829843274E+01 -0.39813881448E+02  0.42404787345E+02  0.00000000000E+00 0.  1.
         11    1    4    4    0    0  0.12866631826E+03 -0.71840170365E+02 -0.21711128019E+03  0.26239919878E+03  0.00000000000E+00 0. -1.
</event>
<event>
 8    1  0.6965441E-009  0.9891061E+02  0.7561462E-02  0.1282604E+00
          1   -1    0    0  501    0  0.00000000000E+00  0.00000000000E+00  0.10338889390E+03  0.10338889390E+03  0.00000000000E+00 0. -1.
         -1   -1    0    0    0  501 -0.00000000000E+00 -0.00000000000E+00 -0.21696253715E+03  0.21696253715E+03  0.00000000000E+00 0.  1.
         25    2    1    2    0    0 -0.16458116084E+01 -0.33030027356E+02  0.42730642145E+02  0.13626992533E+03  0.12509953384E+03 0.  0.
         23    2    1    2    0    0  0.16458116084E+01  0.33030027356E+02 -0.15630428539E+03  0.18408150572E+03  0.91440033425E+02 0.  0.
          5    1    3    3  502    0  0.52419989199E+02  0.65593554180E+01  0.44359186020E+02  0.69109262733E+02  0.41800000000E+01 0. -1.
         -5    1    3    3    0  502 -0.54065800807E+02 -0.39589382774E+02 -0.16285438747E+01  0.67160662597E+02  0.41800000000E+01 0. -1.
        -11    1    4    4    0    0 -0.25044781413E+02 -0.10068207066E+02 -0.11661761046E+03  0.11970078086E+03  0.00000000000E+00 0. -1.
         11    1    4    4    0    0  0.26690593021E+02  0.43098234422E+02 -0.39686674935E+02  0.64380724860E+02  0.00000000000E+00 0.  1.
</event>
<event>
 8    1  0.6965441E-009  0.6722585E+02  0.7561462E-02  0.1369789E+00
         -1   -1    0    0    0  501 -0.00000000000E+00  0.00000000000E+00  0.18773216570E+03  0.18773216570E+03  0.00000000000E+00 0.  1.
          1   -1    0    0  501    0  0.00000000000E+00 -0.00000000000E+00 -0.56142836005E+02  0.56142836005E+02  0.00000000000E+00 0. -1.
         25    2    1    2    0    0  0.22280728463E+02 -0.16375001201E+02  0.10828855868E+03  0.16774664067E+03  0.12509177428E+03 0.  0.
         23    2    1    2    0    0 -0.22280728463E+02  0.16375001201E+02  0.23300771019E+02  0.76128361031E+02  0.66992760042E+02 0.  0.
          5    1    3    3  502    0 -0.27401997995E+02 -0.13924194985E+02  0.11340101705E+03  0.11756706923E+03  0.41800000000E+01 0. -1.
         -5    1    3    3    0  502  0.49682726458E+02 -0.24508062169E+01 -0.51124583716E+01  0.50179571442E+02  0.41800000000E+01 0. -1.
        -11    1    4    4    0    0 -0.14114820650E+02 -0.15292088387E+02 -0.15083413487E+02  0.25701857747E+02  0.00000000000E+00 0. -1.
         11    1    4    4    0    0 -0.81659078130E+01  0.31667089588E+02  0.38384184505E+02  0.50426503285E+02  0.00000000000E+00 0.  1.
</event>
<event>
 8    1  0.6965441E-009  0.1067450E+03  0.7561462E-02  0.1266719E+00
         -1   -1    0    0    0  501 -0.00000000000E+00  0.00000000000E+00  0.10562436557E+02  0.10562436557E+02  0.00000000000E+00 0.  1.
          1   -1    0    0  501    0  0.00000000000E+00 -0.00000000000E+00 -0.11103423698E+04  0.11103423698E+04  0.00000000000E+00 0. -1.
         25    2    1    2    0    0 -0.63658579712E+01  0.13564541188E+02 -0.69860242650E+03  0.70987172420E+03  0.12509194054E+03 0.  0.
         23    2    1    2    0    0  0.63658579712E+01 -0.13564541188E+02 -0.40117750670E+03  0.41103308211E+03  0.88205905585E+02 0.  0.
          5    1    3    3  502    0  0.58128919520E+02 -0.54010478280E+01 -0.31059955663E+03  0.31606597347E+03  0.41800000000E+01 0. -1.
         -5    1    3    3    0  502 -0.64494777491E+02  0.18965589016E+02 -0.38800286986E+03  0.39380575074E+03  0.41800000000E+01 0. -1.
        -11    1    4    4    0    0  0.35603784542E+02 -0.36090732380E+02 -0.27208565816E+03  0.27676845162E+03  0.00000000000E+00 0.  1.
         11    1    4    4    0    0 -0.29237926571E+02  0.22526191193E+02 -0.12909184854E+03  0.13426463048E+03  0.00000000000E+00 0. -1.
</event>
<event>
 8    1  0.6965441E-009  0.1418879E+03  0.7561462E-02  0.1210811E+00
          2   -1    0    0  501    0  0.00000000000E+00  0.00000000000E+00  0.12351427131E+04  0.12351427131E+04  0.00000000000E+00 0. -1.
         -2   -1    0    0    0  501 -0.00000000000E+00 -0.00000000000E+00 -0.23157574645E+02  0.23157574645E+02  0.00000000000E+00 0.  1.
         25    2    1    2    0    0 -0.79534243955E+02 -0.84310721244E+02  0.85598748556E+03  0.87280939830E+03  0.12509067371E+03 0.  0.
         23    2    1    2    0    0  0.79534243955E+02  0.84310721244E+02  0.35599765288E+03  0.38549088943E+03  0.91841729614E+02 0.  0.
          5    1    3    3  502    0 -0.54659660701E+02 -0.11455275700E+03  0.56033239191E+03  0.57454318764E+03  0.41800000000E+01 0.  1.
         -5    1    3    3    0  502 -0.24874583254E+02  0.30242035755E+02  0.29565509365E+03  0.29826621066E+03  0.41800000000E+01 0.  1.
        -11    1    4    4    0    0  0.17394123357E+02  0.30911570495E+02  0.22334258581E+02  0.41915388870E+02  0.00000000000E+00 0.  1.
         11    1    4    4    0    0  0.62140120598E+02  0.53399150749E+02  0.33366339430E+03  0.34357550056E+03  0.00000000000E+00 0. -1.
</event>
<event>
 8    1  0.6965441E-009  0.1412197E+03  0.7561462E-02  0.1211697E+00
          3   -1    0    0  501    0  0.00000000000E+00  0.00000000000E+00  0.46128766855E+03  0.46128766855E+03  0.00000000000E+00 0. -1.
         -3   -1    0    0    0  501 -0.00000000000E+00 -0.00000000000E+00 -0.63646150221E+02  0.63646150221E+02  0.00000000000E+00 0.  1.
         25    2    1    2    0    0 -0.59588067188E+01 -0.13162783428E+03  0.19118700690E+03  0.26373842723E+03  0.12507634570E+03 0.  0.
         23    2    1    2    0    0  0.59588067188E+01  0.13162783428E+03  0.20645451143E+03  0.26119539154E+03  0.90764382560E+02 0.  0.
          5    1    3    3  502    0  0.19219697921E+02 -0.46375413041E+02 -0.26559366847E+01  0.50444049427E+02  0.41800000000E+01 0. -1.
         -5    1    3    3    0  502 -0.25178504640E+02 -0.85252421236E+02  0.19384294359E+03  0.21329437780E+03  0.41800000000E+01 0. -1.
        -11    1    4    4    0    0  0.25392399728E+02  0.11414104204E+03  0.20374186615E+03  0.23491211008E+03  0.00000000000E+00 0. -1.
         11    1    4    4    0    0 -0.19433593009E+02  0.17486792242E+02  0.27126452798E+01  0.26283281465E+02  0.00000000000E+00 0.  1.
</event>
<event>
 8    1  0.6965441E-009  0.2378387E+03  0.7561462E-02  0.1121241E+00
         -2   -1    0    0    0  501 -0.00000000000E+00  0.00000000000E+00  0.48722527625E+02  0.48722527625E+02  0.00000000000E+00 0. -1.
          2   -1    0    0  501    0  0.00000000000E+00 -0.00000000000E+00 -0.12882984502E+04  0.12882984502E+04  0.00000000000E+00 0.  1.
         25    2    1    2    0    0 -0.16837650905E+03 -0.14904069420E+03 -0.61446741580E+03  0.66617981044E+03  0.12514614429E+03 0.  0.
         23    2    1    2    0    0  0.16837650905E+03  0.14904069420E+03 -0.62510850682E+03  0.67084116743E+03  0.93292278838E+02 0.  0.
          5    1    3    3  502    0 -0.16801596189E+03 -0.11361364352E+03 -0.39724684676E+03  0.44604927206E+03  0.41800000000E+01 0. -1.
         -5    1    3    3    0  502 -0.36054716062E+00 -0.35427050686E+02 -0.21722056904E+03  0.22013053838E+03  0.41800000000E+01 0. -1.
        -11    1    4    4    0    0  0.16372584742E+03  0.10869156510E+03 -0.44923739880E+03  0.49034095272E+03  0.00000000000E+00 0. -1.
         11    1    4    4    0    0  0.46506616343E+01  0.40349129103E+02 -0.17587110802E+03  0.18050021471E+03  0.00000000000E+00 0.  1.
</event>
<event>
 8    1  0.6965441E-009  0.1281468E+03  0.7561462E-02  0.1230232E+00
          2   -1    0    0  501    0  0.00000000000E+00  0.00000000000E+00  0.99906882375E+02  0.99906882375E+02  0.00000000000E+00 0. -1.
         -2   -1    0    0    0  501 -0.00000000000E+00 -0.00000000000E+00 -0.20396546999E+03  0.20396546999E+03  0.00000000000E+00 0.  1.
         25    2    1    2    0    0 -0.74534868935E+02  0.45916127660E+02 -0.89659899493E+02  0.17706004973E+03  0.12509047193E+03 0.  0.
         23    2    1    2    0    0  0.74534868935E+02 -0.45916127660E+02 -0.14398688123E+02  0.12681230263E+03  0.90610708046E+02 0.  0.
          5    1    3    3  502    0  0.10136588907E+02 -0.20682864431E+02  0.14186767519E+02  0.27372761797E+02  0.41800000000E+01 0. -1.
         -5    1    3    3    0  502 -0.84671457842E+02  0.66598992091E+02 -0.10384666701E+03  0.14968728794E+03  0.41800000000E+01 0. -1.
        -11    1    4    4    0    0  0.76338791856E+02  0.27405927543E+01 -0.13330902070E+01  0.76399601570E+02  0.00000000000E+00 0. -1.
         11    1    4    4    0    0 -0.18039229203E+01 -0.48656720414E+02 -0.13065597916E+02  0.50412701061E+02  0.00000000000E+00 0.  1.
</event>
<event>
 8    1  0.6965441E-009  0.1088959E+03  0.7561462E-02  0.1262628E+00
          2   -1    0    0  501    0  0.00000000000E+00  0.00000000000E+00  0.55450483667E+03  0.55450483667E+03  0.00000000000E+00 0. -1.
         -2   -1    0    0    0  501 -0.00000000000E+00 -0.00000000000E+00 -0.31523575607E+02  0.31523575607E+02  0.00000000000E+00 0.  1.
         25    2    1    2    0    0 -0.27886141257E+02 -0.64031617779E+02  0.25238624737E+03  0.29021296981E+03  0.12508822900E+03 0.  0.
         23    2    1    2    0    0  0.27886141257E+02  0.64031617779E+02  0.27059501370E+03  0.29581544247E+03  0.96991904912E+02 0.  0.
          5    1    3    3  502    0  0.28076910388E+02 -0.58962299593E+02  0.20926697901E+03  0.21926013449E+03  0.41800000000E+01 0.  1.
         -5    1    3    3    0  502 -0.55963051645E+02 -0.50693181851E+01  0.43119268357E+02  0.70952835320E+02  0.41800000000E+01 0.  1.
        -11    1    4    4    0    0  0.46072584874E+02  0.23807159442E+02  0.23022922752E+03  0.23599779897E+03  0.00000000000E+00 0.  1.
         11    1    4    4    0    0 -0.18186443617E+02  0.40224458337E+02  0.40365786181E+02  0.59817643500E+02  0.00000000000E+00 0. -1.
</event>
<event>
 8    1  0.6965441E-009  0.1352659E+03  0.7561462E-02  0.1219845E+00
          2   -1    0    0  501    0  0.00000000000E+00  0.00000000000E+00  0.57368109235E+02  0.57368109235E+02  0.00000000000E+00 0. -1.
         -2   -1    0    0    0  501 -0.00000000000E+00 -0.00000000000E+00 -0.34172096343E+03  0.34172096343E+03  0.00000000000E+00 0.  1.
         25    2    1    2    0    0 -0.75037131433E+01  0.85174355559E+02 -0.18732116000E+03  0.24093251697E+03  0.12509310211E+03 0.  0.
         23    2    1    2    0    0  0.75037131433E+01 -0.85174355559E+02 -0.97031694199E+02  0.15815655570E+03  0.91034992582E+02 0.  0.
          5    1    3    3  502    0 -0.62352197774E+02  0.56943956213E+02 -0.13801139732E+03  0.16184878407E+03  0.41800000000E+01 0.  1.
         -5    1    3    3    0  502  0.54848484630E+02  0.28230399345E+02 -0.49309762679E+02  0.79083732897E+02  0.41800000000E+01 0.  1.
        -11    1    4    4    0    0 -0.39067703495E+02 -0.58921302965E+02 -0.63658376174E+02  0.95133560096E+02  0.00000000000E+00 0.  1.
         11    1    4    4    0    0  0.46571416639E+02 -0.26253052593E+02 -0.33373318025E+02  0.63022995599E+02  0.00000000000E+00 0. -1.
</event>
<event>
 8    1  0.6965441E-009  0.7844584E+02  0.7561462E-02  0.1333521E+00
          2   -1    0    0  501    0  0.00000000000E+00  0.00000000000E+00  0.84470051261E+02  0.84470051261E+02  0.00000000000E+00 0. -1.
         -2   -1    0    0    0  501 -0.00000000000E+00 -0.00000000000E+00 -0.14844018619E+03  0.14844018619E+03  0.00000000000E+00 0.  1.
         25    2    1    2    0    0  0.34543729085E+01  0.93788931081E+01 -0.69824114649E+02  0.14360511324E+03  0.12508846963E+03 0.  0.
         23    2    1    2    0    0 -0.34543729085E+01 -0.93788931081E+01  0.58539797220E+01  0.89305124211E+02  0.88550775286E+02 0.  0.
          5    1    3    3  502    0 -0.84489724924E+01  0.46315247340E+02 -0.88503931254E+02  0.10033396992E+03  0.41800000000E+01 0. -1.
         -5    1    3    3    0  502  0.11903345401E+02 -0.36936354232E+02  0.18679816605E+02  0.43271143318E+02  0.41800000000E+01 0. -1.
        -11    1    4    4    0    0 -0.11673972369E+02  0.29044440603E+02 -0.24420869599E+02  0.39701889537E+02  0.00000000000E+00 0.  1.
         11    1    4    4    0    0  0.82195994609E+01 -0.38423333711E+02  0.30274849321E+02  0.49603234675E+02  0.00000000000E+00 0. -1.
</event>
<event>
 8    1  0.6965441E-009  0.1967167E+03  0.7561462E-02  0.1152539E+00
          2   -1    0    0  501    0  0.00000000000E+00  0.00000000000E+00  0.22062344839E+03  0.22062344839E+03  0.00000000000E+00 0. -1.
         -2   -1    0    0    0  501 -0.00000000000E+00 -0.00000000000E+00 -0.18277748280E+03  0.18277748280E+03  0.00000000000E+00 0.  1.
         25    2    1    2    0    0 -0.15683893134E+03  0.60828734142E+02  0.16597830758E+01  0.20964083323E+03  0.12509172153E+03 0.  0.
         23    2    1    2    0    0  0.15683893134E+03 -0.60828734142E+02  0.36186182518E+02  0.19376009796E+03  0.89078338984E+02 0.  0.
          5    1    3    3  502    0 -0.92733538718E+02 -0.24803691243E+02 -0.25074470668E+02  0.99302234525E+02  0.41800000000E+01 0. -1.
         -5    1    3    3    0  502 -0.64105392621E+02  0.85632425385E+02  0.26734253744E+02  0.11033859870E+03  0.41800000000E+01 0. -1.
        -11    1    4    4    0    0  0.33132067007E+02 -0.57718803049E+02  0.14837536758E+02  0.68186117257E+02  0.00000000000E+00 0.  1.
         11    1    4    4    0    0  0.12370686433E+03 -0.31099310929E+01  0.21348645760E+02  0.12557398070E+03  0.00000000000E+00 0. -1.
</event>
<event>
 8    1  0.6965441E-009  0.2327590E+03  0.7561462E-02  0.1124713E+00
         -1   -1    0    0    0  501 -0.00000000000E+00  0.00000000000E+00  0.74710822092E+02  0.74710822092E+02  0.00000000000E+00 0.  1.
          1   -1    0    0  501    0  0.00000000000E+00 -0.00000000000E+00 -0.83131222279E+03  0.83131222279E+03  0.00000000000E+00 0. -1.
         25    2    1    2    0    0  0.78462132946E+02 -0.20719784125E+03 -0.32983716503E+03  0.41656644992E+03  0.12509116693E+03 0.  0.
         23    2    1    2    0    0 -0.78462132946E+02  0.20719784125E+03 -0.42676423568E+03  0.48945659496E+03  0.91393619994E+02 0.  0.
          5    1    3    3  502    0  0.16459396533E+02 -0.11856909476E+03 -0.26392476934E+03  0.28983322487E+03  0.41800000000E+01 0. -1.
         -5    1    3    3    0  502  0.62002736414E+02 -0.88628746489E+02 -0.65912395681E+02  0.12673322505E+03  0.41800000000E+01 0. -1.
        -11    1    4    4    0    0 -0.96548318187E+02  0.15903306199E+03 -0.30493264503E+03  0.35720723754E+03  0.00000000000E+00 0.  1.
         11    1    4    4    0    0  0.18086185241E+02  0.48164779264E+02 -0.12183159065E+03  0.13224935742E+03  0.00000000000E+00 0. -1.
</event>
<event>
 8    1  0.6965441E-009  0.1121233E+03  0.7561462E-02  0.1256688E+00
          4   -1    0    0  501    0  0.00000000000E+00  0.00000000000E+00  0.38950906220E+03  0.38950906220E+03  0.00000000000E+00 0. -1.
         -4   -1    0    0    0  501 -0.00000000000E+00 -0.00000000000E+00 -0.45291812678E+02  0.45291812678E+02  0.00000000000E+00 0.  1.
         25    2    1    2    0    0 -0.58542550650E+02 -0.15980232162E+02  0.10848425394E+03  0.17634773653E+03  0.12508833986E+03 0.  0.
         23    2    1    2    0    0  0.58542550650E+02  0.15980232162E+02  0.23573299558E+03  0.25845313835E+03  0.86864155200E+02 0.  0.
          5    1    3    3  502    0 -0.88281740708E+02 -0.10184096470E+02  0.11467821929E+03  0.14514113112E+03  0.41800000000E+01 0. -1.
         -5    1    3    3    0  502  0.29739190058E+02 -0.57961356920E+01 -0.61939653539E+01  0.31206605408E+02  0.41800000000E+01 0. -1.
        -11    1    4    4    0    0 -0.21750053393E+02  0.10673173259E+02  0.72939764900E+02  0.76858251045E+02  0.00000000000E+00 0. -1.
         11    1    4    4    0    0  0.80292604043E+02  0.53070589030E+01  0.16279323068E+03  0.18159488730E+03  0.00000000000E+00 0.  1.
</event>
<event>
 8    1  0.6965441E-009  0.1137430E+03  0.7561462E-02  0.1253791E+00
          3   -1    0    0  501    0  0.00000000000E+00  0.00000000000E+00  0.44202953694E+02  0.44202953694E+02  0.00000000000E+00 0.  1.
         -3   -1    0    0    0  501 -0.00000000000E+00 -0.00000000000E+00 -0.48338461017E+03  0.48338461017E+03  0.00000000000E+00 0. -1.
         25    2    1    2    0    0 -0.79060326445E+02  0.49440963066E+02 -0.28107573635E+03  0.32147516585E+03  0.12509104144E+03 0.  0.
         23    2    1    2    0    0  0.79060326445E+02 -0.49440963066E+02 -0.15810592013E+03  0.20611239802E+03  0.93754437702E+02 0.  0.
          5    1    3    3  502    0 -0.29656400771E+02  0.57066889164E+02 -0.25859414997E+03  0.26650429405E+03  0.41800000000E+01 0.  1.
         -5    1    3    3    0  502 -0.49403925674E+02 -0.76259260983E+01 -0.22481586373E+02  0.54970871802E+02  0.41800000000E+01 0.  1.
        -11    1    4    4    0    0  0.50119771171E+02  0.58569304422E+01 -0.12641552524E+03  0.13611458452E+03  0.00000000000E+00 0.  1.
         11    1    4    4    0    0  0.28940555274E+02 -0.55297893508E+02 -0.31690394887E+02  0.69997813495E+02  0.00000000000E+00 0. -1.
</event>
<event>
 8    1  0.6965441E-009  0.7806953E+02  0.7561462E-02  0.1334621E+00
         -2   -1    0    0    0  501 -0.00000000000E+00  0.00000000000E+00  0.43733591232E+02  0.43733591232E+02  0.00000000000E+00 0.  1.
          2   -1    0    0  501    0  0.00000000000E+00 -0.00000000000E+00 -0.40715038818E+03  0.40715038818E+03  0.00000000000E+00 0. -1.
         25    2    1    2    0    0  0.40336402231E+02  0.46062774002E+02 -0.28266097323E+03  0.31510831888E+03  0.12508885782E+03 0.  0.
         23    2    1    2    0    0 -0.40336402231E+02 -0.46062774002E+02 -0.80755823719E+02  0.13577566053E+03  0.90358853651E+02 0.  0.
          5    1    3    3  502    0  0.54140358809E+02  0.31993376430E+02 -0.28754914263E+03  0.29437516270E+03  0.41800000000E+01 0. -1.
         -5    1    3    3    0  502 -0.13803956578E+02  0.14069397572E+02  0.48881694034E+01  0.20733156184E+02  0.41800000000E+01 0. -1.
        -11    1    4    4    0    0 -0.47986334775E+02 -0.34502511465E+02 -0.56170426811E+01  0.59368870555E+02  0.00000000000E+00 0.  1.
         11    1    4    4    0    0  0.76499325437E+01 -0.11560262537E+02 -0.75138781038E+02  0.76406789972E+02  0.00000000000E+00 0. -1.
</event>
<event>
 8    1  0.6965441E-009  0.1862645E+03  0.7561462E-02  0.1161874E+00
         -1   -1    0    0    0  501 -0.00000000000E+00  0.00000000000E+00  0.32606495901E+02  0.32606495901E+02  0.00000000000E+00 0.  1.
          1   -1    0    0  501    0  0.00000000000E+00 -0.00000000000E+00 -0.12230409340E+04  0.12230409340E+04  0.00000000000E+00 0. -1.
         25    2    1    2    0    0  0.80129661184E+02 -0.14372604360E+03 -0.70151290758E+03  0.73133168111E+03  0.12509088728E+03 0.  0.
         23    2    1    2    0    0 -0.80129661184E+02  0.14372604360E+03 -0.48892153052E+03  0.52431574879E+03  0.93727281073E+02 0.  0.
          5    1    3    3  502    0  0.52640495184E+02 -0.20160199286E+02 -0.40465569214E+03  0.40858433273E+03  0.41800000000E+01 0. -1.
         -5    1    3    3    0  502  0.27489166000E+02 -0.12356584431E+03 -0.29685721544E+03  0.32274734838E+03  0.41800000000E+01 0. -1.
        -11    1    4    4    0    0 -0.10169769129E+03  0.11933045200E+03 -0.40158824103E+03  0.43110937420E+03  0.00000000000E+00 0.  1.
         11    1    4    4    0    0  0.21568030106E+02  0.24395591602E+02 -0.87333289486E+02  0.93206374592E+02  0.00000000000E+00 0. -1.
</event>
<event>
 8    1  0.6965441E-009  0.1276854E+03  0.7561462E-02  0.1230931E+00
          2   -1    0    0  501    0  0.00000000000E+00  0.00000000000E+00  0.10465425041E+03  0.10465425041E+03  0.00000000000E+00 0. -1.
         -2   -1    0    0    0  501 -0.00000000000E+00 -0.00000000000E+00 -0.20560652005E+03  0.20560652005E+03  0.00000000000E+00 0.  1.
         25    2    1    2    0    0 -0.68368877585E+02  0.57272613027E+02 -0.13268340772E+02  0.15420391754E+03  0.12509333993E+03 0.  0.
         23    2    1    2    0    0  0.68368877585E+02 -0.57272613027E+02 -0.87683928860E+02  0.15605685291E+03  0.93331743453E+02 0.  0.
          5    1    3    3  502    0  0.19830364137E+02  0.26623977297E+02  0.35497036579E+02  0.48781056926E+02  0.41800000000E+01 0.  1.
         -5    1    3    3    0  502 -0.88199241722E+02  0.30648635729E+02 -0.48765377352E+02  0.10542286062E+03  0.41800000000E+01 0.  1.
        -11    1    4    4    0    0 -0.22295063761E+02 -0.21518483541E+02 -0.14681250368E+02  0.34287812913E+02  0.00000000000E+00 0. -1.
         11    1    4    4    0    0  0.90663941346E+02 -0.35754129486E+02 -0.73002678492E+02  0.12176904000E+03  0.00000000000E+00 0.  1.
</event>
<event>
 8    1  0.6965441E-009  0.1067404E+03  0.7561462E-02  0.1266728E+00
          1   -1    0    0  501    0  0.00000000000E+00  0.00000000000E+00  0.10244792159E+03  0.10244792159E+03  0.00000000000E+00 0. -1.
         -1   -1    0    0    0  501 -0.00000000000E+00 -0.00000000000E+00 -0.13677408128E+03  0.13677408128E+03  0.00000000000E+00 0.  1.
         25    2    1    2    0    0  0.37777251851E+02  0.31382824205E+02 -0.46572202877E+02  0.14222636907E+03  0.12508943826E+03 0.  0.
         23    2    1    2    0    0 -0.37777251851E+02 -0.31382824205E+02  0.12246043193E+02  0.96995633804E+02  0.82741676262E+02 0.  0.
          5    1    3    3  502    0  0.79360160049E+02  0.43848865616E+02 -0.32200029815E+02  0.96307176986E+02  0.41800000000E+01 0.  1.
         -5    1    3    3    0  502 -0.41582908199E+02 -0.12466041411E+02 -0.14372173062E+02  0.45919192080E+02  0.41800000000E+01 0.  1.
        -11    1    4    4    0    0 -0.20643433549E+02 -0.49824293478E+02  0.33975875599E+02  0.63741444069E+02  0.00000000000E+00 0. -1.
         11    1    4    4    0    0 -0.17133818302E+02  0.18441469273E+02 -0.21729832406E+02  0.33254189735E+02  0.00000000000E+00 0.  1.
</event>
<event>
 8    1  0.6965441E-009  0.1491453E+03  0.7561462E-02  0.1201527E+00
         -1   -1    0    0    0  501 -0.00000000000E+00  0.00000000000E+00  0.42316479586E+03  0.42316479586E+03  0.00000000000E+00 0.  1.
          1   -1    0    0  501    0  0.00000000000E+00 -0.00000000000E+00 -0.82956814288E+02  0.82956814288E+02  0.00000000000E+00 0. -1.
         25    2    1    2    0    0 -0.12283386678E+03  0.19416859408E+02  0.31556207919E+03  0.36151200465E+03  0.12508529260E+03 0.  0.
         23    2    1    2    0    0  0.12283386678E+03 -0.19416859408E+02  0.24645902380E+02  0.14460960550E+03  0.69565395423E+02 0.  0.
          5    1    3    3  502    0 -0.21319825580E+02  0.52726215023E+02  0.52348219621E+02  0.77410575575E+02  0.41800000000E+01 0. -1.
         -5    1    3    3    0  502 -0.10151404120E+03 -0.33309355615E+02  0.26321385957E+03  0.28410142908E+03  0.41800000000E+01 0. -1.
        -11    1    4    4    0    0  0.63966288226E+02 -0.35714014635E+02 -0.10699891612E+02  0.74038264102E+02  0.00000000000E+00 0.  1.
         11    1    4    4    0    0  0.58867578555E+02  0.16297155227E+02  0.35345793992E+02  0.70571341396E+02  0.00000000000E+00 0. -1.
</event>
<event>
 8    1  0.6965441E-009  0.6434722E+02  0.7561462E-02  0.1380444E+00
          2   -1    0    0  501    0  0.00000000000E+00  0.00000000000E+00  0.14058769627E+03  0.14058769627E+03  0.00000000000E+00 0. -1.
         -2   -1    0    0    0  501 -0.00000000000E+00 -0.00000000000E+00 -0.90867588238E+02  0.90867588238E+02  0.00000000000E+00 0.  1.
         25    2    1    2    0    0  0.27371112946E+02  0.20489586359E+02  0.19755692922E+02  0.13117624544E+03  0.12509164238E+03 0.  0.
         23    2    1    2    0    0 -0.27371112946E+02 -0.20489586359E+02  0.29964415115E+02  0.10027903907E+03  0.89381309736E+02 0.  0.
          5    1    3    3  502    0  0.16764560828E+02  0.20868673886E+02  0.72403720142E+02  0.77306682375E+02  0.41800000000E+01 0. -1.
         -5    1    3    3    0  502  0.10606552118E+02 -0.37908752786E+00 -0.52648027219E+02  0.53869563069E+02  0.41800000000E+01 0. -1.
        -11    1    4    4    0    0  0.27841080614E+01  0.30677064966E+02 -0.52281662291E+01  0.31243676076E+02  0.00000000000E+00 0.  1.
         11    1    4    4    0    0 -0.30155221007E+02 -0.51166651324E+02  0.35192581344E+02  0.69035362992E+02  0.00000000000E+00 0. -1.
</event>
<event>
 8    1  0.6965441E-009  0.1853827E+03  0.7561462E-02  0.1162693E+00
         -1   -1    0    0    0  501 -0.00000000000E+00  0.00000000000E+00  0.17021208220E+03  0.17021208220E+03  0.00000000000E+00 0.  1.
          1   -1    0    0  501    0  0.00000000000E+00 -0.00000000000E+00 -0.23733084916E+03  0.23733084916E+03  0.00000000000E+00 0. -1.
         25    2    1    2    0    0 -0.14595570951E+03 -0.54515566350E+02 -0.10192823427E+03  0.22430162650E+03  0.12508732389E+03 0.  0.
         23    2    1    2    0    0  0.14595570951E+03  0.54515566350E+02  0.34809467322E+02  0.18324130486E+03  0.89948099916E+02 0.  0.
          5    1    3    3  502    0 -0.78330581626E+02 -0.85829331139E+02 -0.28757443516E+02  0.11977819943E+03  0.41800000000E+01 0.  1.
         -5    1    3    3    0  502 -0.67625127882E+02  0.31313764789E+02 -0.73170790758E+02  0.10452342707E+03  0.41800000000E+01 0.  1.
        -11    1    4    4    0    0  0.44996908147E+02 -0.24875479313E+02  0.11989503931E+02  0.52794501782E+02  0.00000000000E+00 0.  1.
         11    1    4    4    0    0  0.10095880136E+03  0.79391045663E+02  0.22819963391E+02  0.13044680308E+03  0.00000000000E+00 0. -1.
</event>
<event>
 8    1  0.6965441E-009  0.1180647E+03  0.7561462E-02  0.1246324E+00
         -2   -1    0    0    0  501 -0.00000000000E+00  0.00000000000E+00  0.30301690461E+02  0.30301690461E+02  0.00000000000E+00 0.  1.
          2   -1    0    0  501    0  0.00000000000E+00 -0.00000000000E+00 -0.51395918467E+03  0.51395918467E+03  0.00000000000E+00 0. -1.
         25    2    1    2    0    0 -0.33213775579E+02 -0.58507656241E+02 -0.29859307304E+03  0.33065292111E+03  0.12508888938E+03 0.  0.
         23    2    1    2    0    0  0.33213775579E+02  0.58507656241E+02 -0.18506442117E+03  0.21360795402E+03  0.82784160990E+02 0.  0.
          5    1    3    3  502    0 -0.53022458582E+02  0.21542313841E+02 -0.95471464318E+02  0.11138996947E+03  0.41800000000E+01 0. -1.
         -5    1    3    3    0  502  0.19808683003E+02 -0.80049970083E+02 -0.20312160872E+03  0.21926295164E+03  0.41800000000E+01 0. -1.
        -11    1    4    4    0    0  0.49888707516E+02  0.19162800364E+02 -0.54934729846E+02  0.76641507022E+02  0.00000000000E+00 0.  1.
         11    1    4    4    0    0 -0.16674931937E+02  0.39344855877E+02 -0.13012969133E+03  0.13696644700E+03  0.00000000000E+00 0. -1.
</event>
<event>
 8    1  0.6965441E-009  0.6505626E+02  0.7561462E-02  0.1377760E+00
          1   -1    0    0  501    0  0.00000000000E+00  0.00000000000E+00  0.10441873282E+04  0.10441873282E+04  0.00000000000E+00 0. -1.
         -1   -1    0    0    0  501 -0.00000000000E+00 -0.00000000000E+00 -0.14476543838E+02  0.14476543838E+02  0.00000000000E+00 0.  1.
         25    2    1    2    0    0 -0.13119099975E+02  0.25518834372E+02  0.80183786441E+03  0.81204302769E+03  0.12508635545E+03 0.  0.
         23    2    1    2    0    0  0.13119099975E+02 -0.25518834372E+02  0.22787291996E+03  0.24662084436E+03  0.89846822590E+02 0.  0.
          5    1    3    3  502    0 -0.31532959256E+02 -0.64766702458E+01  0.52100541883E+02  0.61385777191E+02  0.41800000000E+01 0. -1.
         -5    1    3    3    0  502  0.18413859281E+02  0.31995504618E+02  0.74973732253E+03  0.75065725050E+03  0.41800000000E+01 0. -1.
        -11    1    4    4    0    0  0.51118154908E+01  0.16732475018E+02  0.30965337026E+01  0.17767805120E+02  0.00000000000E+00 0.  1.
         11    1    4    4    0    0  0.80072844845E+01 -0.42251309389E+02  0.22477638626E+03  0.22885303924E+03  0.00000000000E+00 0. -1.
</event>
<event>
 8    1  0.6965441E-009  0.1195024E+03  0.7561462E-02  0.1243920E+00
          2   -1    0    0  501    0  0.00000000000E+00  0.00000000000E+00  0.86071740398E+03  0.86071740398E+03  0.00000000000E+00 0. -1.
         -2   -1    0    0    0  501 -0.00000000000E+00 -0.00000000000E+00 -0.21714144017E+02  0.21714144017E+02  0.00000000000E+00 0.  1.
         25    2    1    2    0    0  0.61823884893E+02 -0.12394592306E+02  0.65750776060E+03  0.67226643788E+03  0.12509951872E+03 0.  0.
         23    2    1    2    0    0 -0.61823884893E+02  0.12394592306E+02  0.18149549936E+03  0.21016511012E+03  0.85164185906E+02 0.  0.
          5    1    3    3  502    0 -0.29007276987E+02 -0.28291087502E+02  0.31172289691E+03  0.31437309778E+03  0.41800000000E+01 0.  1.
         -5    1    3    3    0  502  0.90831161879E+02  0.15896495196E+02  0.34578486370E+03  0.35789334010E+03  0.41800000000E+01 0.  1.
        -11    1    4    4    0    0 -0.83381894990E+02  0.13045947066E+02  0.14407694108E+03  0.16697575302E+03  0.00000000000E+00 0. -1.
         11    1    4    4    0    0  0.21558010097E+02 -0.65135475959E+00  0.37418558285E+02  0.43189357098E+02  0.00000000000E+00 0.  1.
</event>
<event>
 8    1  0.6965441E-009  0.2165158E+03  0.7561462E-02  0.1136508E+00
         -1   -1    0    0    0  501 -0.00000000000E+00  0.00000000000E+00  0.84980021299E+02  0.84980021299E+02  0.00000000000E+00 0.  1.
          1   -1    0    0  501    0  0.00000000000E+00 -0.00000000000E+00 -0.69678448345E+03  0.69678448345E+03  0.00000000000E+00 0. -1.
         25    2    1    2    0    0  0.16146441336E+03 -0.12502110830E+03 -0.43403730211E+03  0.49572152411E+03  0.12510162085E+03 0.  0.
         23    2    1    2    0    0 -0.16146441336E+03  0.12502110830E+03 -0.17776716004E+03  0.28604298064E+03  0.92295120573E+02 0.  0.
          5    1    3    3  502    0  0.15558644962E+03 -0.13305521442E+03 -0.43856646734E+03  0.48401327674E+03  0.41800000000E+01 0. -1.
         -5    1    3    3    0  502  0.58779637413E+01  0.80341061149E+01  0.45291652256E+01  0.11708247369E+02  0.41800000000E+01 0. -1.
        -11    1    4    4    0    0 -0.77937265537E+02  0.10640402600E+03 -0.14048765986E+03  0.19269877187E+03  0.00000000000E+00 0. -1.
         11    1    4    4    0    0 -0.83527147824E+02  0.18617082306E+02 -0.37279500183E+02  0.93344208771E+02  0.00000000000E+00 0.  1.
</event>
<event>
 8    1  0.6965441E-009  0.9213035E+02  0.7561462E-02  0.1297773E+00
          2   -1    0    0  501    0  0.00000000000E+00  0.00000000000E+00  0.13661049853E+03  0.13661049853E+03  0.00000000000E+00 0. -1.
         -2   -1    0    0    0  501 -0.00000000000E+00 -0.00000000000E+00 -0.16780585510E+03  0.16780585510E+03  0.00000000000E+00 0.  1.
         25    2    1    2    0    0 -0.55028111138E+02 -0.34944744426E+02 -0.98785943466E+02  0.17222490927E+03  0.12511406223E+03 0.  0.
         23    2    1    2    0    0  0.55028111138E+02  0.34944744426E+02  0.67590586891E+02  0.13219144436E+03  0.93042261078E+02 0.  0.
          5    1    3    3  502    0 -0.76048334831E+02 -0.10965875118E+02 -0.97562984444E+01  0.77564537045E+02  0.41800000000E+01 0.  1.
         -5    1    3    3    0  502  0.21020223693E+02 -0.23978869308E+02 -0.89029645021E+02  0.94660372226E+02  0.41800000000E+01 0.  1.
        -11    1    4    4    0    0  0.26220768549E+02  0.38015233692E+02 -0.11813001133E+02  0.47667952460E+02  0.00000000000E+00 0.  1.
         11    1    4    4    0    0  0.28807342589E+02 -0.30704892666E+01  0.79403588023E+02  0.84523491896E+02  0.00000000000E+00 0. -1.
</event>
<event>
 8    1  0.6965441E-009  0.1558004E+03  0.7561462E-02  0.1193521E+00
         -2   -1    0    0    0  501 -0.00000000000E+00  0.00000000000E+00  0.52396823758E+02  0.52396823758E+02  0.00000000000E+00 0.  1.
          2   -1    0    0  501    0  0.00000000000E+00 -0.00000000000E+00 -0.53268449303E+03  0.53268449303E+03  0.00000000000E+00 0. -1.
         25    2    1    2    0    0 -0.11186106437E+03  0.20084803034E+02 -0.34188874649E+03  0.38138359951E+03  0.12509691429E+03 0.  0.
         23    2    1    2    0    0  0.11186106437E+03 -0.20084803034E+02 -0.13839892278E+03  0.20369771727E+03  0.97068023368E+02 0.  0.
          5    1    3    3  502    0  0.66173612785E+01 -0.36184489076E+02 -0.61056463302E+02  0.71403577157E+02  0.41800000000E+01 0.  1.
         -5    1    3    3    0  502 -0.11847842565E+03  0.56269292110E+02 -0.28083228319E+03  0.30998002236E+03  0.41800000000E+01 0.  1.
        -11    1    4    4    0    0  0.80862119521E+02  0.28484620787E+02 -0.10999141597E+03  0.13945668712E+03  0.00000000000E+00 0. -1.
         11    1    4    4    0    0  0.30998944849E+02 -0.48569423822E+02 -0.28407506808E+02  0.64241030153E+02  0.00000000000E+00 0.  1.
</event>
<event>
 8    1  0.6965441E-009  0.1138424E+03  0.7561462E-02  0.1253615E+00
         -2   -1    0    0    0  501 -0.00000000000E+00  0.00000000000E+00  0.10459130990E+03  0.10459130990E+03  0.00000000000E+00 0.  1.
          2   -1    0    0  501    0  0.00000000000E+00 -0.00000000000E+00 -0.27881193334E+03  0.27881193334E+03  0.00000000000E+00 0. -1.
         25    2    1    2    0    0 -0.73102213574E+02  0.84203890090E+02 -0.11515602080E+02  0.16797708745E+03  0.12509781805E+03 0.  0.
         23    2    1    2    0    0  0.73102213574E+02 -0.84203890090E+02 -0.16270502136E+03  0.21542615580E+03  0.86609906433E+02 0.  0.
          5    1    3    3  502    0 -0.66075853404E+02  0.78634802125E+02 -0.59641812590E+02  0.11884472524E+03  0.41800000000E+01 0. -1.
         -5    1    3    3    0  502 -0.70263601700E+01  0.55690879655E+01  0.48126210509E+02  0.49132362207E+02  0.41800000000E+01 0. -1.
        -11    1    4    4    0    0  0.22764873764E+02 -0.89528258523E+01  0.48851558621E+01  0.24945086009E+02  0.00000000000E+00 0.  1.
         11    1    4    4    0    0  0.50337339811E+02 -0.75251064238E+02 -0.16759017722E+03  0.19048106979E+03  0.00000000000E+00 0. -1.
</event>
<event>
 8    1  0.6965441E-009  0.1165599E+03  0.7561462E-02  0.1248883E+00
         -1   -1    0    0    0  501 -0.00000000000E+00  0.00000000000E+00  0.45510880156E+03  0.45510880156E+03  0.00000000000E+00 0.  1.
          1   -1    0    0  501    0  0.00000000000E+00 -0.00000000000E+00 -0.58847698161E+02  0.58847698161E+02  0.00000000000E+00 0. -1.
         25    2    1    2    0    0  0.92538472724E+02  0.65804032507E+02  0.28315692195E+03  0.32972565637E+03  0.12509047284E+03 0.  0.
         23    2    1    2    0    0 -0.92538472724E+02 -0.65804032507E+02  0.11310418145E+03  0.18423084335E+03  0.90856525087E+02 0.  0.
          5    1    3    3  502    0  0.59303973193E+02  0.22792588610E+02  0.29313682409E+02  0.70094419952E+02  0.41800000000E+01 0. -1.
         -5    1    3    3    0  502  0.33234499531E+02  0.43011443898E+02  0.25384323954E+03  0.25963123642E+03  0.41800000000E+01 0. -1.
        -11    1    4    4    0    0 -0.50634503676E+02 -0.46691885075E+02  0.11930416845E+03  0.13775873730E+03  0.00000000000E+00 0.  1.
         11    1    4    4    0    0 -0.41903969048E+02 -0.19112147433E+02 -0.61999869980E+01  0.46472106045E+02  0.00000000000E+00 0. -1.
</event>
<event>
 8    1  0.6965441E-009  0.1391621E+03  0.7561462E-02  0.1214461E+00
          1   -1    0    0  501    0  0.00000000000E+00  0.00000000000E+00  0.14021634692E+04  0.14021634692E+04  0.00000000000E+00 0. -1.
         -1   -1    0    0    0  501 -0.00000000000E+00 -0.00000000000E+00 -0.19587563834E+02  0.19587563834E+02  0.00000000000E+00 0.  1.
         25    2    1    2    0    0  0.12335172976E+03 -0.61584994319E+01  0.82043186435E+03  0.83905177757E+03  0.12508343232E+03 0.  0.
         23    2    1    2    0    0 -0.12335172976E+03  0.61584994319E+01  0.56214404097E+03  0.58269925542E+03  0.90988587872E+02 0.  0.
          5    1    3    3  502    0  0.59155494337E+02  0.19545198674E+02  0.12066020455E+03  0.13585928258E+03  0.41800000000E+01 0. -1.
         -5    1    3    3    0  502  0.64196235426E+02 -0.25703698106E+02  0.69977165981E+03  0.70319249499E+03  0.41800000000E+01 0. -1.
        -11    1    4    4    0    0 -0.26121379150E+02  0.36380783110E+02  0.10158959761E+03  0.11102402519E+03  0.00000000000E+00 0.  1.
         11    1    4    4    0    0 -0.97230350613E+02 -0.30222283678E+02  0.46055444336E+03  0.47167523023E+03  0.00000000000E+00 0. -1.
</event>
<event>
 8    1  0.6965441E-009  0.1257872E+03  0.7561462E-02  0.1233844E+00
          1   -1    0    0  501    0  0.00000000000E+00  0.00000000000E+00  0.31573067572E+03  0.31573067572E+03  0.00000000000E+00 0. -1.
         -1   -1    0    0    0  501 -0.00000000000E+00 -0.00000000000E+00 -0.66922261195E+02  0.66922261195E+02  0.00000000000E+00 0.  1.
         25    2    1    2    0    0 -0.89185087041E+02 -0.25564854837E+02  0.16651685857E+03  0.22799291239E+03  0.12508142292E+03 0.  0.
         23    2    1    2    0    0  0.89185087041E+02  0.25564854837E+02  0.82291555953E+02  0.15466002452E+03  0.92413643206E+02 0.  0.
          5    1    3    3  502    0 -0.80658351154E+02  0.12850575551E+02  0.32073812975E+02  0.87847076113E+02  0.41800000000E+01 0.  1.
         -5    1    3    3    0  502 -0.85267358876E+01 -0.38415430388E+02  0.13444304560E+03  0.14014583628E+03  0.41800000000E+01 0.  1.
        -11    1    4    4    0    0 -0.16674298330E+02  0.17317209575E+02  0.21828723870E+02  0.32471697801E+02  0.00000000000E+00 0. -1.
         11    1    4    4    0    0  0.10585938537E+03  0.82476452620E+01  0.60462832084E+02  0.12218832672E+03  0.00000000000E+00 0.  1.
</event>
<event>
 8    1  0.6965441E-009  0.8603169E+02  0.7561462E-02  0.1312756E+00
         -1   -1    0    0    0  501 -0.00000000000E+00  0.00000000000E+00  0.47402804926E+02  0.47402804926E+02  0.00000000000E+00 0.  1.
          1   -1    0    0  501    0  0.00000000000E+00 -0.00000000000E+00 -0.29512609707E+03  0.29512609707E+03  0.00000000000E+00 0. -1.
         25    2    1    2    0    0  0.13114403715E+02  0.81348825482E+01 -0.19451590419E+03  0.23178039602E+03  0.12509017187E+03 0.  0.
         23    2    1    2    0    0 -0.13114403715E+02 -0.81348825482E+01 -0.53207387953E+02  0.11074850597E+03  0.95895993366E+02 0.  0.
          5    1    3    3  502    0 -0.33443001735E+02  0.28954456508E+02 -0.16872388185E+03  0.17447640420E+03  0.41800000000E+01 0.  1.
         -5    1    3    3    0  502  0.46557405450E+02 -0.20819573960E+02 -0.25792022339E+02  0.57303991819E+02  0.41800000000E+01 0.  1.
        -11    1    4    4    0    0 -0.42112257387E+02 -0.18043799002E+02  0.38563872025E+01  0.45977088065E+02  0.00000000000E+00 0.  1.
         11    1    4    4    0    0  0.28997853672E+02  0.99089164536E+01 -0.57063775156E+02  0.64771417909E+02  0.00000000000E+00 0. -1.
</event>
<event>
 8    1  0.6965441E-009  0.8619357E+02  0.7561462E-02  0.1312340E+00
          1   -1    0    0  501    0  0.00000000000E+00  0.00000000000E+00  0.13345388596E+04  0.13345388596E+04  0.00000000000E+00 0. -1.
         -1   -1    0    0    0  501 -0.00000000000E+00 -0.00000000000E+00 -0.12871443808E+02  0.12871443808E+02  0.00000000000E+00 0.  1.
         25    2    1    2    0    0 -0.78711524615E+01 -0.43778281538E+02  0.10390625362E+04  0.10475098043E+04  0.12508933948E+03 0.  0.
         23    2    1    2    0    0  0.78711524615E+01  0.43778281538E+02  0.28260487956E+03  0.29990049914E+03  0.89979433539E+02 0.  0.
          5    1    3    3  502    0  0.34278554665E+02 -0.31505327892E+02  0.14474886428E+03  0.15210953654E+03  0.41800000000E+01 0. -1.
         -5    1    3    3    0  502 -0.42149707127E+02 -0.12272953646E+02  0.89431367196E+03  0.89540026773E+03  0.41800000000E+01 0. -1.
        -11    1    4    4    0    0 -0.19242949651E+02 -0.97260393766E+01  0.16584977583E+02  0.27201993211E+02  0.00000000000E+00 0.  1.
         11    1    4    4    0    0  0.27114102113E+02  0.53504320915E+02  0.26601990198E+03  0.27269850593E+03  0.00000000000E+00 0. -1.
</event>
<event>
 8    1  0.6965441E-009  0.7943685E+02  0.7561462E-02  0.1330657E+00
         -1   -1    0    0    0  501 -0.00000000000E+00  0.00000000000E+00  0.10949974196E+03  0.10949974196E+03  0.00000000000E+00 0.  1.
          1   -1    0    0  501    0  0.00000000000E+00 -0.00000000000E+00 -0.12484988210E+03  0.12484988210E+03  0.00000000000E+00 0. -1.
         25    2    1    2    0    0 -0.26511964418E+02 -0.33807166809E+02 -0.16958437953E+02  0.13334975431E+03  0.12509500219E+03 0.  0.
         23    2    1    2    0    0  0.26511964418E+02  0.33807166809E+02  0.16082978192E+01  0.10099986975E+03  0.91392441054E+02 0.  0.
          5    1    3    3  502    0 -0.40761743407E+02 -0.14322106711E+02 -0.65731073878E+02  0.78769847908E+02  0.41800000000E+01 0.  1.
         -5    1    3    3    0  502  0.14249778990E+02 -0.19485060098E+02  0.48772635925E+02  0.54579906406E+02  0.41800000000E+01 0.  1.
        -11    1    4    4    0    0  0.26634664770E+02 -0.22375235488E+02  0.22082370530E+02  0.41203004973E+02  0.00000000000E+00 0.  1.
         11    1    4    4    0    0 -0.12270035167E+00  0.56182402297E+02 -0.20474072711E+02  0.59796864773E+02  0.00000000000E+00 0. -1.
</event>
<event>
 8    1  0.6965441E-009  0.2235357E+03  0.7561462E-02  0.1131274E+00
         -2   -1    0    0    0  501 -0.00000000000E+00  0.00000000000E+00  0.61431647300E+03  0.61431647300E+03  0.00000000000E+00 0.  1.
          2   -1    0    0  501    0  0.00000000000E+00 -0.00000000000E+00 -0.22571014265E+03  0.22571014265E+03  0.00000000000E+00 0. -1.
         25    2    1    2    0    0 -0.46113893846E+02  0.21262696693E+03 -0.12090350063E+03  0.27857308897E+03  0.12509432904E+03 0.  0.
         23    2    1    2    0    0  0.46113893846E+02 -0.21262696693E+03  0.50950983099E+03  0.56145352668E+03  0.91066330104E+02 0.  0.
          5    1    3    3  502    0 -0.55044736072E+02  0.16168124440E+03 -0.14239609821E+03  0.22240698942E+03  0.41800000000E+01 0. -1.
         -5    1    3    3    0  502  0.89308422259E+01  0.50945722531E+02  0.21492597575E+02  0.56166099540E+02  0.41800000000E+01 0. -1.
        -11    1    4    4    0    0 -0.12697393364E+02 -0.35973917027E+02  0.35191109562E+02  0.51901451779E+02  0.00000000000E+00 0. -1.
         11    1    4    4    0    0  0.58811287210E+02 -0.17665304990E+03  0.47431872142E+03  0.50955207490E+03  0.00000000000E+00 0.  1.
</event>
<event>
 8    1  0.6965441E-009  0.1779757E+03  0.7561462E-02  0.1169777E+00
          2   -1    0    0  501    0  0.00000000000E+00  0.00000000000E+00  0.19830971898E+04  0.19830971898E+04  0.00000000000E+00 0.  1.
         -2   -1    0    0    0  501 -0.00000000000E+00 -0.00000000000E+00 -0.18356554739E+02  0.18356554739E+02  0.00000000000E+00 0. -1.
         25    2    1    2    0    0  0.82374908736E+02  0.12263697421E+03  0.13648157851E+04  0.13784756276E+04  0.12508987059E+03 0.  0.
         23    2    1    2    0    0 -0.82374908736E+02 -0.12263697421E+03  0.59992484993E+03  0.62297811686E+03  0.79790071387E+02 0.  0.
          5    1    3    3  502    0 -0.10357960607E+02 -0.17092475451E+02  0.28245802108E+03  0.28319506729E+03  0.41800000000E+01 0. -1.
         -5    1    3    3    0  502  0.92732869343E+02  0.13972944966E+03  0.10823577640E+04  0.10952805603E+04  0.41800000000E+01 0. -1.
        -11    1    4    4    0    0 -0.37847195026E+02 -0.11691190298E+03  0.42855312138E+03  0.44582348646E+03  0.00000000000E+00 0. -1.
         11    1    4    4    0    0 -0.44527713710E+02 -0.57250712357E+01  0.17137172855E+03  0.17715463041E+03  0.00000000000E+00 0.  1.
</event>
<event>
 8    1  0.6965441E-009  0.8735547E+02  0.7561462E-02  0.1309385E+00
         -2   -1    0    0    0  501 -0.00000000000E+00  0.00000000000E+00  0.20282002433E+02  0.20282002433E+02  0.00000000000E+00 0.  1.
          2   -1    0    0  501    0  0.00000000000E+00 -0.00000000000E+00 -0.14681369759E+04  0.14681369759E+04  0.00000000000E+00 0. -1.
         25    2    1    2    0    0 -0.69267397969E+02 -0.23725297088E+02 -0.12512979805E+04  0.12596652075E+04  0.12509571004E+03 0.  0.
         23    2    1    2    0    0  0.69267397969E+02  0.23725297088E+02 -0.19655699289E+03  0.22875377082E+03  0.91284029649E+02 0.  0.
          5    1    3    3  502    0 -0.22118844486E+02  0.21813471402E+02 -0.98101811889E+03  0.98151876844E+03  0.41800000000E+01 0. -1.
         -5    1    3    3    0  502 -0.47148553483E+02 -0.45538768489E+02 -0.27027986165E+03  0.27814643903E+03  0.41800000000E+01 0. -1.
        -11    1    4    4    0    0  0.12556304893E+02  0.16166531983E+02  0.34199358913E+01  0.20753638486E+02  0.00000000000E+00 0.  1.
         11    1    4    4    0    0  0.56711093076E+02  0.75587651049E+01 -0.19997692878E+03  0.20800013234E+03  0.00000000000E+00 0. -1.
</event>
<event>
 8    1  0.6965441E-009  0.1577571E+03  0.7561462E-02  0.1191253E+00
          1   -1    0    0  501    0  0.00000000000E+00  0.00000000000E+00  0.47774929704E+03  0.47774929704E+03  0.00000000000E+00 0.  1.
         -1   -1    0    0    0  501 -0.00000000000E+00 -0.00000000000E+00 -0.65581500362E+02  0.65581500362E+02  0.00000000000E+00 0. -1.
         25    2    1    2    0    0 -0.10173022424E+02  0.12583007063E+03  0.30901707382E+03  0.35647534410E+03  0.12508565857E+03 0.  0.
         23    2    1    2    0    0  0.10173022424E+02 -0.12583007063E+03  0.10315072286E+03  0.18685545331E+03  0.91313699657E+02 0.  0.
          5    1    3    3  502    0  0.21268787522E+02 -0.14466521517E+02  0.17460371955E+02  0.31368432480E+02  0.41800000000E+01 0.  1.
         -5    1    3    3    0  502 -0.31441809946E+02  0.14029659214E+03  0.29155670187E+03  0.32510691162E+03  0.41800000000E+01 0.  1.
        -11    1    4    4    0    0  0.41660583553E+02 -0.76078265651E+02  0.92887436888E+02  0.12708887700E+03  0.00000000000E+00 0.  1.
         11    1    4    4    0    0 -0.31487561129E+02 -0.49751804974E+02  0.10263285972E+02  0.59766576303E+02  0.00000000000E+00 0. -1.
</event>
<event>
 8    1  0.6965441E-009  0.1067576E+03  0.7561462E-02  0.1266695E+00
         -2   -1    0    0    0  501 -0.00000000000E+00  0.00000000000E+00  0.47911706359E+02  0.47911706359E+02  0.00000000000E+00 0.  1.
          2   -1    0    0  501    0  0.00000000000E+00 -0.00000000000E+00 -0.35678996872E+03  0.35678996872E+03  0.00000000000E+00 0. -1.
         25    2    1    2    0    0  0.70461932017E+02  0.10965969610E+02 -0.20071973199E+03  0.24702381568E+03  0.12508884183E+03 0.  0.
         23    2    1    2    0    0 -0.70461932017E+02 -0.10965969610E+02 -0.10815853036E+03  0.15767785939E+03  0.89882719691E+02 0.  0.
          5    1    3    3  502    0  0.54573196306E+02  0.46286320721E+02 -0.19486644610E+03  0.20763203379E+03  0.41800000000E+01 0. -1.
         -5    1    3    3    0  502  0.15888735711E+02 -0.35320351111E+02 -0.58532858976E+01  0.39391781895E+02  0.41800000000E+01 0. -1.
        -11    1    4    4    0    0 -0.34338892750E+02 -0.42702074275E+02 -0.91757087505E+02  0.10687370963E+03  0.00000000000E+00 0. -1.
         11    1    4    4    0    0 -0.36123039267E+02  0.31736104665E+02 -0.16401442858E+02  0.50804149762E+02  0.00000000000E+00 0.  1.
</event>
<event>
 8    1  0.6965441E-009  0.1070665E+03  0.7561462E-02  0.1266101E+00
         -1   -1    0    0    0  501 -0.00000000000E+00  0.00000000000E+00  0.18057050543E+02  0.18057050543E+02  0.00000000000E+00 0.  1.
          1   -1    0    0  501    0  0.00000000000E+00 -0.00000000000E+00 -0.10697551725E+04  0.10697551725E+04  0.00000000000E+00 0. -1.
         25    2    1    2    0    0 -0.30410999713E+02  0.57876632848E+02 -0.76747857507E+03  0.78034937337E+03  0.12508895952E+03 0.  0.
         23    2    1    2    0    0  0.30410999713E+02 -0.57876632848E+02 -0.28421954687E+03  0.30746284966E+03  0.97355634469E+02 0.  0.
          5    1    3    3  502    0 -0.61576892038E+02  0.80329334458E+02 -0.50706753237E+03  0.51708748814E+03  0.41800000000E+01 0.  1.
         -5    1    3    3    0  502  0.31165892326E+02 -0.22452701610E+02 -0.26041104270E+03  0.26326188523E+03  0.41800000000E+01 0.  1.
        -11    1    4    4    0    0  0.86465160731E+01 -0.50466622814E+02 -0.27929565198E+03  0.28395017780E+03  0.00000000000E+00 0. -1.
         11    1    4    4    0    0  0.21764483639E+02 -0.74100100334E+01 -0.49238948867E+01  0.23512671852E+02  0.00000000000E+00 0.  1.
</event>
<event>
 8    1  0.6965441E-009  0.8736333E+02  0.7561462E-02  0.1309365E+00
         -1   -1    0    0    0  501 -0.00000000000E+00  0.00000000000E+00  0.65550684665E+02  0.65550684665E+02  0.00000000000E+00 0.  1.
          1   -1    0    0  501    0  0.00000000000E+00 -0.00000000000E+00 -0.24510535847E+03  0.24510535847E+03  0.00000000000E+00 0. -1.
         25    2    1    2    0    0 -0.58083719021E+02 -0.25555417577E+02 -0.84808525683E+02  0.16390961316E+03  0.12508827873E+03 0.  0.
         23    2    1    2    0    0  0.58083719021E+02  0.25555417577E+02 -0.94746148119E+02  0.14674642997E+03  0.92362786566E+02 0.  0.
          5    1    3    3  502    0 -0.12337686580E+02 -0.90899641363E+01 -0.10850530691E+03  0.10966184380E+03  0.41800000000E+01 0. -1.
         -5    1    3    3    0  502 -0.45746032441E+02 -0.16465453441E+02  0.23696781222E+02  0.54247769368E+02  0.41800000000E+01 0. -1.
        -11    1    4    4    0    0  0.79647762904E+02  0.34370771939E+02 -0.62289936165E+02  0.10679490740E+03  0.00000000000E+00 0.  1.
         11    1    4    4    0    0 -0.21564043883E+02 -0.88153543618E+01 -0.32456211954E+02  0.39951522568E+02  0.00000000000E+00 0. -1.
</event>
<event>
 8    1  0.6965441E-009  0.3263368E+03  0.7561462E-02  0.1072769E+00
          1   -1    0    0  501    0  0.00000000000E+00  0.00000000000E+00  0.26927055108E+03  0.26927055108E+03  0.00000000000E+00 0. -1.
         -1   -1    0    0    0  501 -0.00000000000E+00 -0.00000000000E+00 -0.41376173882E+03  0.41376173882E+03  0.00000000000E+00 0.  1.
         25    2    1    2    0    0  0.60133769445E+02 -0.30919888520E+03 -0.73743701791E+02  0.34685194534E+03  0.12509243619E+03 0.  0.
         23    2    1    2    0    0 -0.60133769445E+02  0.30919888520E+03 -0.70747485952E+02  0.33618034456E+03  0.93765646501E+02 0.  0.
          5    1    3    3  502    0  0.30751784754E+02 -0.28226718393E+03 -0.26952646219E+02  0.28524437405E+03  0.41800000000E+01 0. -1.
         -5    1    3    3    0  502  0.29381984691E+02 -0.26931701269E+02 -0.46791055573E+02  0.61607571281E+02  0.41800000000E+01 0. -1.
        -11    1    4    4    0    0 -0.68556747338E+02  0.11245179523E+03 -0.30279291278E+02  0.13513796409E+03  0.00000000000E+00 0. -1.
         11    1    4    4    0    0  0.84229778936E+01  0.19674708997E+03 -0.40468194675E+02  0.20104238048E+03  0.00000000000E+00 0.  1.
</event>
<event>
 8    1  0.6965441E-009  0.1501722E+03  0.7561462E-02  0.1200262E+00
         -1   -1    0    0    0  501 -0.00000000000E+00  0.00000000000E+00  0.38204565156E+03  0.38204565156E+03  0.00000000000E+00 0.  1.
          1   -1    0    0  501    0  0.00000000000E+00 -0.00000000000E+00 -0.71198611817E+02  0.71198611817E+02  0.00000000000E+00 0. -1.
         25    2    1    2    0    0  0.32794775952E+02  0.11606373049E+03  0.11597345996E+03  0.20891051708E+03  0.12508986317E+03 0.  0.
         23    2    1    2    0    0 -0.32794775952E+02 -0.11606373049E+03  0.19487357978E+03  0.24433374630E+03  0.84717062135E+02 0.  0.
          5    1    3    3  502    0  0.26635373652E+02 -0.21871298220E+02  0.32238821783E+02  0.47377324168E+02  0.41800000000E+01 0.  1.
         -5    1    3    3    0  502  0.61594023000E+01  0.13793502871E+03  0.83734638178E+02  0.16153319291E+03  0.41800000000E+01 0.  1.
        -11    1    4    4    0    0 -0.37397808422E+02 -0.56533765818E+02  0.16326177147E+03  0.17677406138E+03  0.00000000000E+00 0.  1.
         11    1    4    4    0    0  0.46030324703E+01 -0.59529964671E+02  0.31611808316E+02  0.67559684921E+02  0.00000000000E+00 0. -1.
</event>
<event>
 8    1  0.6965441E-009  0.1722473E+03  0.7561462E-02  0.1175524E+00
          1   -1    0    0  501    0  0.00000000000E+00  0.00000000000E+00  0.38180846331E+03  0.38180846331E+03  0.00000000000E+00 0. -1.
         -1   -1    0    0    0  501 -0.00000000000E+00 -0.00000000000E+00 -0.89761403567E+02  0.89761403567E+02  0.00000000000E+00 0.  1.
         25    2    1    2    0    0 -0.69458909073E+02 -0.12947120025E+03  0.11617838855E+03  0.22523371055E+03  0.12508187181E+03 0.  0.
         23    2    1    2    0    0  0.69458909073E+02  0.12947120025E+03  0.17586867120E+03  0.24633615633E+03  0.90356962447E+02 0.  0.
          5    1    3    3  502    0 -0.92098983506E+02 -0.11146591546E+03  0.50275214554E+02  0.15314027123E+03  0.41800000000E+01 0.  1.
         -5    1    3    3    0  502  0.22640074433E+02 -0.18005284792E+02  0.65903173993E+02  0.72093439321E+02  0.41800000000E+01 0.  1.
        -11    1    4    4    0    0  0.23343219906E+02  0.12161465945E+03  0.11059976886E+03  0.16603415366E+03  0.00000000000E+00 0.  1.
         11    1    4    4    0    0  0.46115689167E+02  0.78565407992E+01  0.65268902335E+02  0.80302002669E+02  0.00000000000E+00 0. -1.
</event>
<event>
 8    1  0.6965441E-009  0.1046317E+03  0.7561462E-02  0.1270847E+00
         -2   -1    0    0    0  501 -0.00000000000E+00  0.00000000000E+00  0.24306062051E+03  0.24306062051E+03  0.00000000000E+00 0.  1.
          2   -1    0    0  501    0  0.00000000000E+00 -0.00000000000E+00 -0.57337732166E+02  0.57337732166E+02  0.00000000000E+00 0. -1.
         25    2    1    2    0    0 -0.43914999655E+02 -0.16058030976E+02  0.11561060901E+03  0.17663165289E+03  0.12508613166E+03 0.  0.
         23    2    1    2    0    0  0.43914999655E+02  0.16058030976E+02  0.70112279331E+02  0.12376669978E+03  0.90642576688E+02 0.  0.
          5    1    3    3  502    0  0.36842960974E+02 -0.14897765256E+02  0.77569154593E+02  0.87257053166E+02  0.41800000000E+01 0.  1.
         -5    1    3    3    0  502 -0.80757960629E+02 -0.11602657208E+01  0.38041454418E+02  0.89374599723E+02  0.41800000000E+01 0.  1.
        -11    1    4    4    0    0 -0.12317763650E+02  0.28312657802E+02  0.56868737682E+02  0.64710024097E+02  0.00000000000E+00 0.  1.
         11    1    4    4    0    0  0.56232763306E+02 -0.12254626826E+02  0.13243541649E+02  0.59056675685E+02  0.00000000000E+00 0. -1.
</event>
<event>
 8    1  0.6965441E-009  0.1063995E+03  0.7561462E-02  0.1267386E+00
         -3   -1    0    0    0  501 -0.00000000000E+00  0.00000000000E+00  0.46191065464E+03  0.46191065464E+03  0.00000000000E+00 0.  1.
          3   -1    0    0  501    0  0.00000000000E+00 -0.00000000000E+00 -0.42108358783E+02  0.42108358783E+02  0.00000000000E+00 0. -1.
         25    2    1    2    0    0 -0.62973046362E+02 -0.87368334132E+01  0.11898747868E+03  0.18397730779E+03  0.12509073856E+03 0.  0.
         23    2    1    2    0    0  0.62973046362E+02  0.87368334132E+01  0.30081481718E+03  0.32004170563E+03  0.88854950807E+02 0.  0.
          5    1    3    3  502    0 -0.11496738491E+02 -0.42005450115E+02  0.11427445833E+03  0.12236321776E+03  0.41800000000E+01 0.  1.
         -5    1    3    3    0  502 -0.51476307871E+02  0.33268616702E+02  0.47130203525E+01  0.61614090029E+02  0.41800000000E+01 0.  1.
        -11    1    4    4    0    0  0.31346782627E+02  0.47919221804E+02  0.13218900928E+03  0.14405834503E+03  0.00000000000E+00 0.  1.
         11    1    4    4    0    0  0.31626263735E+02 -0.39182388391E+02  0.16862580790E+03  0.17598336060E+03  0.00000000000E+00 0. -1.
</event>
<event>
 8    1  0.6965441E-009  0.1358114E+03  0.7561462E-02  0.1219079E+00
          1   -1    0    0  501    0  0.00000000000E+00  0.00000000000E+00  0.18892078148E+03  0.18892078148E+03  0.00000000000E+00 0. -1.
         -1   -1    0    0    0  501 -0.00000000000E+00 -0.00000000000E+00 -0.19707827439E+03  0.19707827439E+03  0.00000000000E+00 0.  1.
         25    2    1    2    0    0 -0.13428476742E+03  0.56848146934E+01 -0.89481452141E+02  0.20425362388E+03  0.12509155333E+03 0.  0.
         23    2    1    2    0    0  0.13428476742E+03 -0.56848146934E+01  0.81323959229E+02  0.18174543198E+03  0.91395294321E+02 0.  0.
          5    1    3    3  502    0 -0.86479851511E+02  0.16143190206E+02  0.14498220244E+02  0.89258266271E+02  0.41800000000E+01 0. -1.
         -5    1    3    3    0  502 -0.47804915907E+02 -0.10458375513E+02 -0.10397967239E+03  0.11499535761E+03  0.41800000000E+01 0. -1.
        -11    1    4    4    0    0  0.63555361717E+02 -0.12450892070E+01 -0.11870207865E+02  0.64666344298E+02  0.00000000000E+00 0.  1.
         11    1    4    4    0    0  0.70729405701E+02 -0.44397254865E+01  0.93194167093E+02  0.11707908769E+03  0.00000000000E+00 0. -1.
</event>
<event>
 8    1  0.6965441E-009  0.2341611E+03  0.7561462E-02  0.1123745E+00
          3   -1    0    0  501    0  0.00000000000E+00  0.00000000000E+00  0.11924597201E+04  0.11924597201E+04  0.00000000000E+00 0. -1.
         -3   -1    0    0    0  501 -0.00000000000E+00 -0.00000000000E+00 -0.53793081056E+02  0.53793081056E+02  0.00000000000E+00 0.  1.
         25    2    1    2    0    0 -0.71183513240E+02 -0.21802151968E+03  0.55993510657E+03  0.61787980527E+03  0.12509058552E+03 0.  0.
         23    2    1    2    0    0  0.71183513240E+02  0.21802151968E+03  0.57873153245E+03  0.62837299586E+03  0.85568450251E+02 0.  0.
          5    1    3    3  502    0 -0.72565877140E+01 -0.48690355094E+02  0.29831999815E+02  0.57713337778E+02  0.41800000000E+01 0. -1.
         -5    1    3    3    0  502 -0.63926925526E+02 -0.16933116459E+03  0.53010310676E+03  0.56016646749E+03  0.41800000000E+01 0. -1.
        -11    1    4    4    0    0  0.47430474125E+02  0.20573140587E+03  0.54994923008E+03  0.58908337008E+03  0.00000000000E+00 0. -1.
         11    1    4    4    0    0  0.23753039115E+02  0.12290113810E+02  0.28782302369E+02  0.39289625785E+02  0.00000000000E+00 0.  1.
</event>
<event>
 8    1  0.6965441E-009  0.8842592E+02  0.7561462E-02  0.1306709E+00
          2   -1    0    0  501    0  0.00000000000E+00  0.00000000000E+00  0.38643972398E+03  0.38643972398E+03  0.00000000000E+00 0. -1.
         -2   -1    0    0    0  501 -0.00000000000E+00 -0.00000000000E+00 -0.31980157710E+02  0.31980157710E+02  0.00000000000E+00 0.  1.
         25    2    1    2    0    0  0.69000042720E+00 -0.15704359000E+02  0.15264458176E+03  0.19797682393E+03  0.12508937398E+03 0.  0.
         23    2    1    2    0    0 -0.69000042720E+00  0.15704359000E+02  0.20181498451E+03  0.22044305776E+03  0.87285455538E+02 0.  0.
          5    1    3    3  502    0  0.26232239236E+01 -0.60108491489E+02  0.13863889774E+03  0.15118904861E+03  0.41800000000E+01 0. -1.
         -5    1    3    3    0  502 -0.19332234964E+01  0.44404132489E+02  0.14005684025E+02  0.46787775329E+02  0.41800000000E+01 0. -1.
        -11    1    4    4    0    0 -0.34920803058E+02  0.14009140593E+02  0.39512778424E+02  0.54561691370E+02  0.00000000000E+00 0.  1.
         11    1    4    4    0    0  0.34230802630E+02  0.16952184062E+01  0.16230220609E+03  0.16588136639E+03  0.00000000000E+00 0. -1.
</event>
<event>
 8    1  0.6965441E-009  0.7822706E+02  0.7561462E-02  0.1334159E+00
         -3   -1    0    0    0  501 -0.00000000000E+00  0.00000000000E+00  0.29787061691E+03  0.29787061691E+03  0.00000000000E+00 0.  1.
          3   -1    0    0  501    0  0.00000000000E+00 -0.00000000000E+00 -0.40512562181E+02  0.40512562181E+02  0.00000000000E+00 0. -1.
         25    2    1    2    0    0 -0.24965131407E+01  0.18674149907E+02  0.18928991474E+03  0.22766012601E+03  0.12507399690E+03 0.  0.
         23    2    1    2    0    0  0.24965131407E+01 -0.18674149907E+02  0.68068139985E+02  0.11072305307E+03  0.85272307041E+02 0.  0.
          5    1    3    3  502    0 -0.38409693314E+02 -0.28698064101E+02  0.14675166235E+03  0.15444224236E+03  0.41800000000E+01 0. -1.
         -5    1    3    3    0  502  0.35913180173E+02  0.47372214008E+02  0.42538252395E+02  0.73217883655E+02  0.41800000000E+01 0. -1.
        -11    1    4    4    0    0 -0.19531540378E+02 -0.18203550460E+02 -0.10825555829E+02  0.28810466465E+02  0.00000000000E+00 0. -1.
         11    1    4    4    0    0  0.22028053519E+02 -0.47059944658E+00  0.78893695814E+02  0.81912586608E+02  0.00000000000E+00 0.  1.
</event>
<event>
 8    1  0.6965441E-009  0.1029862E+03  0.7561462E-02  0.1274139E+00
          2   -1    0    0  501    0  0.00000000000E+00  0.00000000000E+00  0.10092322667E+03  0.10092322667E+03  0.00000000000E+00 0. -1.
         -2   -1    0    0    0  501 -0.00000000000E+00 -0.00000000000E+00 -0.21060714695E+03  0.21060714695E+03  0.00000000000E+00 0.  1.
         25    2    1    2    0    0  0.61561621785E+02 -0.53859707394E+02 -0.11516903486E+03  0.18868660880E+03  0.12509207966E+03 0.  0.
         23    2    1    2    0    0 -0.61561621785E+02  0.53859707394E+02  0.54851145758E+01  0.12284376482E+03  0.91486625882E+02 0.  0.
          5    1    3    3  502    0  0.66124525844E+02 -0.71675475870E+01 -0.12399205099E+03  0.14076692710E+03  0.41800000000E+01 0.  1.
         -5    1    3    3    0  502 -0.45629040593E+01 -0.46692159807E+02  0.88230161262E+01  0.47919681702E+02  0.41800000000E+01 0.  1.
        -11    1    4    4    0    0 -0.12702681421E+02  0.39217144698E+02 -0.37812590771E+02  0.55938667971E+02  0.00000000000E+00 0.  1.
         11    1    4    4    0    0 -0.48858940364E+02  0.14642562696E+02  0.43297705347E+02  0.66905096847E+02  0.00000000000E+00 0. -1.
</event>
<event>
 8    1  0.6965441E-009  0.1150115E+03  0.7561462E-02  0.1251561E+00
          1   -1    0    0  501    0  0.00000000000E+00  0.00000000000E+00  0.64608270226E+03  0.64608270226E+03  0.00000000000E+00 0. -1.
         -1   -1    0    0    0  501 -0.00000000000E+00 -0.00000000000E+00 -0.26003947889E+02  0.26003947889E+02  0.00000000000E+00 0.  1.
         25    2    1    2    0    0  0.40255044878E+02 -0.27915912195E+02  0.48142446526E+03  0.49981686011E+03  0.12509041172E+03 0.  0.
         23    2    1    2    0    0 -0.40255044878E+02  0.27915912195E+02  0.13865428911E+03  0.17226979004E+03  0.89733504783E+02 0.  0.
          5    1    3    3  502    0 -0.38008397344E+01 -0.71743477100E+02  0.26723818690E+03  0.27675854788E+03  0.41800000000E+01 0.  1.
         -5    1    3    3    0  502  0.44055884613E+02  0.43827564904E+02  0.21418627836E+03  0.22305831223E+03  0.41800000000E+01 0.  1.
        -11    1    4    4    0    0 -0.12470728458E+02 -0.29478589731E+02  0.77795544979E+02  0.84122845526E+02  0.00000000000E+00 0.  1.
         11    1    4    4    0    0 -0.27784316421E+02  0.57394501926E+02  0.60858744132E+02  0.88146944517E+02  0.00000000000E+00 0. -1.
</event>
<event>
 7    1  0.6965441E-009  0.1068132E+03  0.7561462E-02  0.1266588E+00
          2   -1    0    0  501    0  0.00000000000E+00  0.00000000000E+00  0.42584425923E+03  0.42584425923E+03  0.00000000000E+00 0. -1.
         -2   -1    0    0    0  501 -0.00000000000E+00 -0.00000000000E+00 -0.45136829204E+02  0.45136829204E+02  0.00000000000E+00 0.  1.
         23    2    1    2    0    0  0.49084983543E+01 -0.36796031772E+02  0.30252060040E+03  0.31880721628E+03  0.93494845703E+02 0.  0.
          5    1    1    2  502    0  0.57590373774E+02  0.23092501187E+02  0.19294931387E+02  0.65112836981E+02  0.41800000000E+01 0. -1.
         -5    1    1    2    0  502 -0.62498872128E+02  0.13703530585E+02  0.58891898236E+02  0.87061035175E+02  0.41800000000E+01 0. -1.
        -11    1    3    3    0    0 -0.33211857730E+02 -0.36291350417E+02  0.24437829442E+03  0.24928064585E+03  0.00000000000E+00 0. -1.
         11    1    3    3    0    0  0.38120356084E+02 -0.50468135432E+00  0.58142305977E+02  0.69526570428E+02  0.00000000000E+00 0.  1.
</event>
<event>
 8    1  0.6965441E-009  0.1633455E+03  0.7561462E-02  0.1184971E+00
         -2   -1    0    0    0  501 -0.00000000000E+00  0.00000000000E+00  0.64988112827E+02  0.64988112827E+02  0.00000000000E+00 0.  1.
          2   -1    0    0  501    0  0.00000000000E+00 -0.00000000000E+00 -0.50732099725E+03  0.50732099725E+03  0.00000000000E+00 0. -1.
         25    2    1    2    0    0 -0.12405126975E+03  0.75249260413E+02 -0.23536135138E+03  0.30346432296E+03  0.12507781925E+03 0.  0.
         23    2    1    2    0    0  0.12405126975E+03 -0.75249260413E+02 -0.20697153304E+03  0.26884478712E+03  0.91592223201E+02 0.  0.
          5    1    3    3  502    0 -0.96249297511E+02  0.98838634529E+02 -0.12166456209E+03  0.18399114385E+03  0.41800000000E+01 0.  1.
         -5    1    3    3    0  502 -0.27801972236E+02 -0.23589374116E+02 -0.11369678929E+03  0.11947317911E+03  0.41800000000E+01 0.  1.
        -11    1    4    4    0    0  0.34812918643E+02 -0.46751768087E+02 -0.14565012447E+03  0.15688092899E+03  0.00000000000E+00 0. -1.
         11    1    4    4    0    0  0.89238351105E+02 -0.28497492326E+02 -0.61321408576E+02  0.11196385813E+03  0.00000000000E+00 0.  1.
</event>
<event>
 8    1  0.6965441E-009  0.8901535E+02  0.7561462E-02  0.1305254E+00
          2   -1    0    0  501    0  0.00000000000E+00  0.00000000000E+00  0.28728836208E+03  0.28728836208E+03  0.00000000000E+00 0. -1.
         -2   -1    0    0    0  501 -0.00000000000E+00 -0.00000000000E+00 -0.53833859998E+02  0.53833859998E+02  0.00000000000E+00 0.  1.
         25    2    1    2    0    0 -0.31484662275E+02 -0.38370233362E+02  0.17122731972E+03  0.21778663136E+03  0.12509461626E+03 0.  0.
         23    2    1    2    0    0  0.31484662275E+02  0.38370233362E+02  0.62227182368E+02  0.12333559072E+03  0.94211925708E+02 0.  0.
          5    1    3    3  502    0 -0.50320766747E+02 -0.36347853584E+02  0.18421693185E+03  0.19443944149E+03  0.41800000000E+01 0.  1.
         -5    1    3    3    0  502  0.18836104472E+02 -0.20223797776E+01 -0.12989612133E+02  0.23347189874E+02  0.41800000000E+01 0.  1.
        -11    1    4    4    0    0 -0.35965826018E+01  0.56713401340E+02  0.61508658543E+02  0.83741628678E+02  0.00000000000E+00 0. -1.
         11    1    4    4    0    0  0.35081244877E+02 -0.18343167978E+02  0.71852382522E+00  0.39593962040E+02  0.00000000000E+00 0.  1.
</event>
<event>
 8    1  0.6965441E-009  0.1563406E+03  0.7561462E-02  0.1192891E+00
         -2   -1    0    0    0  501 -0.00000000000E+00  0.00000000000E+00  0.43237001959E+02  0.43237001959E+02  0.00000000000E+00 0.  1.
          2   -1    0    0  501    0  0.00000000000E+00 -0.00000000000E+00 -0.95227483922E+03  0.95227483922E+03  0.00000000000E+00 0. -1.
         25    2    1    2    0    0 -0.99408455517E+02 -0.90428485325E+02 -0.73536682195E+03  0.75793921324E+03  0.12509251034E+03 0.  0.
         23    2    1    2    0    0  0.99408455517E+02  0.90428485325E+02 -0.17367101530E+03  0.23757262794E+03  0.90663002400E+02 0.  0.
          5    1    3    3  502    0 -0.11660454433E+03 -0.10369495391E+03 -0.56587581301E+03  0.58701121912E+03  0.41800000000E+01 0. -1.
         -5    1    3    3    0  502  0.17196088812E+02  0.13266468582E+02 -0.16949100894E+03  0.17092799411E+03  0.41800000000E+01 0. -1.
        -11    1    4    4    0    0  0.27452678676E+02  0.27822917467E+02  0.39452347635E+00  0.39088616650E+02  0.00000000000E+00 0.  1.
         11    1    4    4    0    0  0.71955776841E+02  0.62605567858E+02 -0.17406553878E+03  0.19848401129E+03  0.00000000000E+00 0. -1.
</event>
<event>
 7    1  0.6965441E-009  0.1126618E+03  0.7561462E-02  0.1255719E+00
         -2   -1    0    0    0  501 -0.00000000000E+00  0.00000000000E+00  0.50245667575E+02  0.50245667575E+02  0.00000000000E+00 0.  1.
          2   -1    0    0  501    0  0.00000000000E+00 -0.00000000000E+00 -0.33468566144E+03  0.33468566144E+03  0.00000000000E+00 0. -1.
         23    2    1    2    0    0 -0.50479259242E+01  0.68487095652E+02 -0.97054040259E+02  0.14944300630E+03  0.90541490904E+02 0.  0.
          5    1    1    2  502    0 -0.33500131682E+02  0.62379210528E+00 -0.19410786803E+01  0.33821415194E+02  0.41800000000E+01 0. -1.
         -5    1    1    2    0  502  0.38548057606E+02 -0.69110887757E+02 -0.18544487493E+03  0.20166690752E+03  0.41800000000E+01 0. -1.
        -11    1    3    3    0    0  0.14315117581E+02 -0.18389757556E+02 -0.11512519255E+02  0.25993150520E+02  0.00000000000E+00 0.  1.
         11    1    3    3    0    0 -0.19363043506E+02  0.86876853208E+02 -0.85541521004E+02  0.12344985578E+03  0.00000000000E+00 0. -1.
</event>
<event>
 8    1  0.6965441E-009  0.1774025E+03  0.7561462E-02  0.1170341E+00
          2   -1    0    0  501    0  0.00000000000E+00  0.00000000000E+00  0.12476928074E+04  0.12476928074E+04  0.00000000000E+00 0. -1.
         -2   -1    0    0    0  501 -0.00000000000E+00 -0.00000000000E+00 -0.35290693580E+02  0.35290693580E+02  0.00000000000E+00 0.  1.
         25    2    1    2    0    0  0.13674784918E+03  0.70286440006E+02  0.91359009676E+03  0.93484434741E+03  0.12508769356E+03 0.  0.
         23    2    1    2    0    0 -0.13674784918E+03 -0.70286440006E+02  0.29881201709E+03  0.34813915360E+03  0.90951035232E+02 0.  0.
          5    1    3    3  502    0  0.13375711922E+03  0.31350335314E+02  0.47461978475E+03  0.49412065626E+03  0.41800000000E+01 0.  1.
         -5    1    3    3    0  502  0.29907299606E+01  0.38936104691E+02  0.43897031201E+03  0.44072369115E+03  0.41800000000E+01 0.  1.
        -11    1    4    4    0    0 -0.11586032945E+03 -0.92008769458E+02  0.23733396170E+03  0.27967237792E+03  0.00000000000E+00 0.  1.
         11    1    4    4    0    0 -0.20887519726E+02  0.21722329452E+02  0.61478055387E+02  0.68466775675E+02  0.00000000000E+00 0. -1.
</event>
<event>
 8    1  0.6965441E-009  0.1047058E+03  0.7561462E-02  0.1270700E+00
          1   -1    0    0  501    0  0.00000000000E+00  0.00000000000E+00  0.37100356776E+03  0.37100356776E+03  0.00000000000E+00 0. -1.
         -1   -1    0    0    0  501 -0.00000000000E+00 -0.00000000000E+00 -0.56487399725E+02  0.56487399725E+02  0.00000000000E+00 0.  1.
         25    2    1    2    0    0 -0.58524364494E+02  0.75464612253E+02  0.16933187456E+03  0.23117324916E+03  0.12509108059E+03 0.  0.
         23    2    1    2    0    0  0.58524364494E+02 -0.75464612253E+02  0.14518429348E+03  0.19631771833E+03  0.91335417637E+02 0.  0.
          5    1    3    3  502    0 -0.71523982905E+01  0.16286308656E+01  0.13428040949E+03  0.13454556854E+03  0.41800000000E+01 0. -1.
         -5    1    3    3    0  502 -0.51371966204E+02  0.73835981387E+02  0.35051465066E+02  0.96627680621E+02  0.41800000000E+01 0. -1.
        -11    1    4    4    0    0 -0.87181028246E+01 -0.26066284593E+02  0.95123783853E+02  0.99015103716E+02  0.00000000000E+00 0. -1.
         11    1    4    4    0    0  0.67242467319E+02 -0.49398327659E+02  0.50060509631E+02  0.97302614616E+02  0.00000000000E+00 0.  1.
</event>
<event>
 8    1  0.6965441E-009  0.1238322E+03  0.7561462E-02  0.1236906E+00
          2   -1    0    0  501    0  0.00000000000E+00  0.00000000000E+00  0.48007216153E+03  0.48007216153E+03  0.00000000000E+00 0. -1.
         -2   -1    0    0    0  501 -0.00000000000E+00 -0.00000000000E+00 -0.36171799762E+02  0.36171799762E+02  0.00000000000E+00 0.  1.
         25    2    1    2    0    0  0.58253920722E+02 -0.44518995609E+02  0.21788371066E+03  0.26171944957E+03  0.12509315995E+03 0.  0.
         23    2    1    2    0    0 -0.58253920722E+02  0.44518995609E+02  0.22601665111E+03  0.25452451171E+03  0.91234534228E+02 0.  0.
          5    1    3    3  502    0 -0.31726440315E+02  0.11229910531E+01  0.15571361399E+02  0.35605727345E+02  0.41800000000E+01 0. -1.
         -5    1    3    3    0  502  0.89980361037E+02 -0.45641986662E+02  0.20231234926E+03  0.22611372223E+03  0.41800000000E+01 0. -1.
        -11    1    4    4    0    0  0.23705445407E+02  0.10358917599E+02  0.31958749445E+02  0.41117113005E+02  0.00000000000E+00 0. -1.
         11    1    4    4    0    0 -0.81959366129E+02  0.34160078009E+02  0.19405790166E+03  0.21340739871E+03  0.00000000000E+00 0.  1.
</event>
<event>
 8    1  0.6965441E-009  0.1018851E+03  0.7561462E-02  0.1276381E+00
          1   -1    0    0  501    0  0.00000000000E+00  0.00000000000E+00  0.13064219453E+04  0.13064219453E+04  0.00000000000E+00 0. -1.
         -1   -1    0    0    0  501 -0.00000000000E+00 -0.00000000000E+00 -0.22551911185E+02  0.22551911185E+02  0.00000000000E+00 0.  1.
         25    2    1    2    0    0 -0.13840749586E+02  0.87293176112E+02  0.10659190032E+04  0.10768672892E+04  0.12509265510E+03 0.  0.
         23    2    1    2    0    0  0.13840749586E+02 -0.87293176112E+02  0.21795103094E+03  0.25210656725E+03  0.90793195866E+02 0.  0.
          5    1    3    3  502    0  0.23032999608E+01  0.26826256617E+02  0.88434261480E+03  0.88476227654E+03  0.41800000000E+01 0.  1.
         -5    1    3    3    0  502 -0.16144049547E+02  0.60466919496E+02  0.18157638835E+03  0.19210501267E+03  0.41800000000E+01 0.  1.
        -11    1    4    4    0    0 -0.23039152425E+02 -0.68772674834E+02  0.18684245910E+03  0.20042601596E+03  0.00000000000E+00 0. -1.
         11    1    4    4    0    0  0.36879902012E+02 -0.18520501279E+02  0.31108571841E+02  0.51680551293E+02  0.00000000000E+00 0.  1.
</event>
<event>
 8    1  0.6965441E-009  0.1083160E+03  0.7561462E-02  0.1263720E+00
         -1   -1    0    0    0  501 -0.00000000000E+00  0.00000000000E+00  0.10997376952E+02  0.10997376952E+02  0.00000000000E+00 0.  1.
          1   -1    0    0  501    0  0.00000000000E+00 -0.00000000000E+00 -0.13513272226E+04  0.13513272226E+04  0.00000000000E+00 0. -1.
         25    2    1    2    0    0 -0.45989587972E+02  0.13929672618E+02 -0.88938812713E+03  0.89942650017E+03  0.12509080923E+03 0.  0.
         23    2    1    2    0    0  0.45989587972E+02 -0.13929672618E+02 -0.45094171853E+03  0.46289809938E+03  0.92828545859E+02 0.  0.
          5    1    3    3  502    0  0.46136765382E+01  0.49732616360E+02 -0.65595030376E+03  0.65786236595E+03  0.41800000000E+01 0. -1.
         -5    1    3    3    0  502 -0.50603264510E+02 -0.35802943742E+02 -0.23343782337E+03  0.24156413422E+03  0.41800000000E+01 0. -1.
        -11    1    4    4    0    0 -0.28639848247E+02 -0.11219582929E+01 -0.13503491972E+03  0.13804321513E+03  0.00000000000E+00 0.  1.
         11    1    4    4    0    0  0.74629436219E+02 -0.12807714325E+02 -0.31590679880E+03  0.32485488426E+03  0.00000000000E+00 0. -1.
</event>
<event>
 8    1  0.6965441E-009  0.1399519E+03  0.7561462E-02  0.1213394E+00
          1   -1    0    0  501    0  0.00000000000E+00  0.00000000000E+00  0.24282684640E+03  0.24282684640E+03  0.00000000000E+00 0. -1.
         -1   -1    0    0    0  501 -0.00000000000E+00 -0.00000000000E+00 -0.17877682349E+03  0.17877682349E+03  0.00000000000E+00 0.  1.
         25    2    1    2    0    0  0.10706140420E+03 -0.52886892647E+02  0.16765805153E+03  0.24086029359E+03  0.12508113807E+03 0.  0.
         23    2    1    2    0    0 -0.10706140420E+03  0.52886892647E+02 -0.10360802862E+03  0.18074337630E+03  0.87603520458E+02 0.  0.
          5    1    3    3  502    0  0.61025699093E+02 -0.68413599204E+02  0.16874437934E+03  0.19208512296E+03  0.41800000000E+01 0.  1.
         -5    1    3    3    0  502  0.46035705109E+02  0.15526706557E+02 -0.10863278044E+01  0.48775170625E+02  0.41800000000E+01 0.  1.
        -11    1    4    4    0    0 -0.24604515877E+02 -0.18116411587E+02 -0.89882981102E-01  0.30554781120E+02  0.00000000000E+00 0. -1.
         11    1    4    4    0    0 -0.82456888325E+02  0.71003304234E+02 -0.10351814564E+03  0.15018859518E+03  0.00000000000E+00 0.  1.
</event>
<event>
 8    1  0.6965441E-009  0.1710544E+03  0.7561462E-02  0.1176753E+00
          2   -1    0    0  501    0  0.00000000000E+00  0.00000000000E+00  0.18627987312E+03  0.18627987312E+03  0.00000000000E+00 0. -1.
         -2   -1    0    0    0  501 -0.00000000000E+00 -0.00000000000E+00 -0.18824743692E+03  0.18824743692E+03  0.00000000000E+00 0.  1.
         25    2    1    2    0    0  0.10239970274E+03 -0.91020399428E+02  0.65635694282E+02  0.19678898966E+03  0.12508976719E+03 0.  0.
         23    2    1    2    0    0 -0.10239970274E+03  0.91020399428E+02 -0.67603258088E+02  0.17773832038E+03  0.90831149910E+02 0.  0.
          5    1    3    3  502    0  0.17792152128E+02  0.30298200434E+02  0.25062181595E+02  0.43360430962E+02  0.41800000000E+01 0. -1.
         -5    1    3    3    0  502  0.84607550611E+02 -0.12131859986E+03  0.40573512687E+02  0.15342855870E+03  0.41800000000E+01 0. -1.
        -11    1    4    4    0    0 -0.95648964354E+02  0.10572937158E+03 -0.73635115812E+02  0.16046667778E+03  0.00000000000E+00 0.  1.
         11    1    4    4    0    0 -0.67507383855E+01 -0.14708972152E+02  0.60318577236E+01  0.17271642600E+02  0.00000000000E+00 0. -1.
</event>
<event>
 8    1  0.6965441E-009  0.1048791E+03  0.7561462E-02  0.1270358E+00
         -1   -1    0    0    0  501 -0.00000000000E+00  0.00000000000E+00  0.36882671562E+03  0.36882671562E+03  0.00000000000E+00 0.  1.
          1   -1    0    0  501    0  0.00000000000E+00 -0.00000000000E+00 -0.39496390509E+02  0.39496390509E+02  0.00000000000E+00 0. -1.
         25    2    1    2    0    0 -0.44582108045E+02  0.25962866429E+02  0.16296170717E+03  0.21181787309E+03  0.12509459847E+03 0.  0.
         23    2    1    2    0    0  0.44582108045E+02 -0.25962866429E+02  0.16636861793E+03  0.19650523303E+03  0.90962381154E+02 0.  0.
          5    1    3    3  502    0 -0.53168421774E+02 -0.35725487536E+02  0.11983716664E+03  0.13594708692E+03  0.41800000000E+01 0.  1.
         -5    1    3    3    0  502  0.85863137294E+01  0.61688353965E+02  0.43124540539E+02  0.75870786177E+02  0.41800000000E+01 0.  1.
        -11    1    4    4    0    0  0.30535842266E+02 -0.48071079242E+02  0.45678177220E+02  0.73005220337E+02  0.00000000000E+00 0. -1.
         11    1    4    4    0    0  0.14046265779E+02  0.22108212813E+02  0.12069044071E+03  0.12350001270E+03  0.00000000000E+00 0.  1.
</event>
<event>
 8    1  0.6965441E-009  0.9194908E+02  0.7561462E-02  0.1298199E+00
         -1   -1    0    0    0  501 -0.00000000000E+00  0.00000000000E+00  0.34909706092E+03  0.34909706092E+03  0.00000000000E+00 0.  1.
          1   -1    0    0  501    0  0.00000000000E+00 -0.00000000000E+00 -0.35687021914E+02  0.35687021914E+02  0.00000000000E+00 0. -1.
         25    2    1    2    0    0  0.32201725913E+00 -0.68292407415E+01  0.14011710637E+03  0.18795704906E+03  0.12509319155E+03 0.  0.
         23    2    1    2    0    0 -0.32201725913E+00  0.68292407415E+01  0.17329293264E+03  0.19682703377E+03  0.93078990626E+02 0.  0.
          5    1    3    3  502    0  0.53196195575E+02 -0.12740162118E+02  0.23447090847E+02  0.59660585177E+02  0.41800000000E+01 0. -1.
         -5    1    3    3    0  502 -0.52874178316E+02  0.59109213770E+01  0.11667001552E+03  0.12829646388E+03  0.41800000000E+01 0. -1.
        -11    1    4    4    0    0  0.37415819311E+02  0.58961420346E+00  0.28418856420E+02  0.46988536685E+02  0.00000000000E+00 0. -1.
         11    1    4    4    0    0 -0.37737836570E+02  0.62396265380E+01  0.14487407622E+03  0.14983849709E+03  0.00000000000E+00 0.  1.
</event>
<event>
 8    1  0.6965441E-009  0.1360615E+03  0.7561462E-02  0.1218729E+00
          4   -1    0    0  501    0  0.00000000000E+00  0.00000000000E+00  0.10441972831E+03  0.10441972831E+03  0.00000000000E+00 0.  1.
         -4   -1    0    0    0  501 -0.00000000000E+00 -0.00000000000E+00 -0.18456455632E+03  0.18456455632E+03  0.00000000000E+00 0. -1.
         25    2    1    2    0    0 -0.58514972958E+01  0.83095650030E+02 -0.55766095586E+02  0.16030137558E+03  0.12509015358E+03 0.  0.
         23    2    1    2    0    0  0.58514972958E+01 -0.83095650030E+02 -0.24378732424E+02  0.12868290904E+03  0.95004428370E+02 0.  0.
          5    1    3    3  502    0  0.53814718821E+02  0.63344047136E+02 -0.49908398750E+02  0.97040264505E+02  0.41800000000E+01 0.  1.
         -5    1    3    3    0  502 -0.59666216116E+02  0.19751602894E+02 -0.58576968360E+01  0.63261111077E+02  0.41800000000E+01 0.  1.
        -11    1    4    4    0    0 -0.37966592237E+02 -0.70903451728E+02 -0.10385875047E+02  0.81096411718E+02  0.00000000000E+00 0.  1.
         11    1    4    4    0    0  0.43818089533E+02 -0.12192198302E+02 -0.13992857377E+02  0.47586497322E+02  0.00000000000E+00 0. -1.
</event>
<event>
 8    1  0.6965441E-009  0.8694793E+02  0.7561462E-02  0.1310416E+00
         -2   -1    0    0    0  501 -0.00000000000E+00  0.00000000000E+00  0.15440999109E+03  0.15440999109E+03  0.00000000000E+00 0.  1.
          2   -1    0    0  501    0  0.00000000000E+00 -0.00000000000E+00 -0.12888514254E+03  0.12888514254E+03  0.00000000000E+00 0. -1.
         25    2    1    2    0    0 -0.82601989602E+02 -0.23373295196E+02  0.39301771614E+02  0.15671859342E+03  0.12508672454E+03 0.  0.
         23    2    1    2    0    0  0.82601989602E+02  0.23373295196E+02 -0.13776923064E+02  0.12657654020E+03  0.91991398001E+02 0.  0.
          5    1    3    3  502    0 -0.20860922501E+02 -0.13478190986E+02  0.78742280734E+02  0.82671995833E+02  0.41800000000E+01 0.  1.
         -5    1    3    3    0  502 -0.61741067101E+02 -0.98951042096E+01 -0.39440509120E+02  0.74046597584E+02  0.41800000000E+01 0.  1.
        -11    1    4    4    0    0  0.69435153527E+02  0.17392705580E+02  0.32118980064E+02  0.78456202005E+02  0.00000000000E+00 0.  1.
         11    1    4    4    0    0  0.13166836075E+02  0.59805896156E+01 -0.45895903128E+02  0.48120338198E+02  0.00000000000E+00 0. -1.
</event>
<event>
 8    1  0.6965441E-009  0.1140671E+03  0.7561462E-02  0.1253218E+00
         -2   -1    0    0    0  501 -0.00000000000E+00  0.00000000000E+00  0.38479736514E+02  0.38479736514E+02  0.00000000000E+00 0.  1.
          2   -1    0    0  501    0  0.00000000000E+00 -0.00000000000E+00 -0.45022097879E+03  0.45022097879E+03  0.00000000000E+00 0. -1.
         25    2    1    2    0    0 -0.53527432056E+02  0.28986970836E+02 -0.14761742626E+03  0.20284130161E+03  0.12509299998E+03 0.  0.
         23    2    1    2    0    0  0.53527432056E+02 -0.28986970836E+02 -0.26412381602E+03  0.28585941369E+03  0.90822815125E+02 0.  0.
          5    1    3    3  502    0  0.19355898393E+02 -0.23718231209E+02 -0.11600209447E+01  0.30919627147E+02  0.41800000000E+01 0. -1.
         -5    1    3    3    0  502 -0.72883330450E+02  0.52705202045E+02 -0.14645740531E+03  0.17192167446E+03  0.41800000000E+01 0. -1.
        -11    1    4    4    0    0  0.24649382368E+02 -0.59972015525E+02 -0.13115303455E+03  0.14630568399E+03  0.00000000000E+00 0.  1.
         11    1    4    4    0    0  0.28878049689E+02  0.30985044689E+02 -0.13297078147E+03  0.13955372970E+03  0.00000000000E+00 0. -1.
</event>
<event>
 8    1  0.6965441E-009  0.2183681E+03  0.7561462E-02  0.1135106E+00
         -2   -1    0    0    0  501 -0.00000000000E+00  0.00000000000E+00  0.72072590576E+02  0.72072590576E+02  0.00000000000E+00 0.  1.
          2   -1    0    0  501    0  0.00000000000E+00 -0.00000000000E+00 -0.67462257900E+03  0.67462257900E+03  0.00000000000E+00 0. -1.
         25    2    1    2    0    0  0.16368898144E+02 -0.19056670985E+03 -0.32300735291E+03  0.39568254663E+03  0.12508923194E+03 0.  0.
         23    2    1    2    0    0 -0.16368898144E+02  0.19056670985E+03 -0.27954263552E+03  0.35101262295E+03  0.92098668101E+02 0.  0.
          5    1    3    3  502    0 -0.51598550219E+02 -0.10086211862E+03 -0.19147786573E+03  0.22252375788E+03  0.41800000000E+01 0. -1.
         -5    1    3    3    0  502  0.67967448363E+02 -0.89704591226E+02 -0.13152948718E+03  0.17315878875E+03  0.41800000000E+01 0. -1.
        -11    1    4    4    0    0  0.36525402351E+02  0.66509353552E+02 -0.12152289518E+03  0.14326692982E+03  0.00000000000E+00 0.  1.
         11    1    4    4    0    0 -0.52894300495E+02  0.12405735630E+03 -0.15801974034E+03  0.20774569312E+03  0.00000000000E+00 0. -1.
</event>
<event>
 8    1  0.6965441E-009  0.1289233E+03  0.7561462E-02  0.1229062E+00
          1   -1    0    0  501    0  0.00000000000E+00  0.00000000000E+00  0.53934474685E+03  0.53934474685E+03  0.00000000000E+00 0. -1.
         -1   -1    0    0    0  501 -0.00000000000E+00 -0.00000000000E+00 -0.40376328846E+02  0.40376328846E+02  0.00000000000E+00 0.  1.
         25    2    1    2    0    0 -0.52890831248E+02  0.82002789277E+02  0.23185660919E+03  0.28093903955E+03  0.12508940499E+03 0.  0.
         23    2    1    2    0    0  0.52890831248E+02 -0.82002789277E+02  0.26711180882E+03  0.29878203615E+03  0.91652000710E+02 0.  0.
          5    1    3    3  502    0 -0.92619147071E+02  0.41565740435E+02  0.15539531429E+03  0.18566419495E+03  0.41800000000E+01 0. -1.
         -5    1    3    3    0  502  0.39728315822E+02  0.40437048842E+02  0.76461294897E+02  0.95274844605E+02  0.41800000000E+01 0. -1.
        -11    1    4    4    0    0  0.24638849982E+02 -0.55235697225E+02  0.50765953212E+02  0.78963518045E+02  0.00000000000E+00 0.  1.
         11    1    4    4    0    0  0.28251981266E+02 -0.26767092052E+02  0.21634585561E+03  0.21981851810E+03  0.00000000000E+00 0. -1.
</event>
<event>
 8    1  0.6965441E-009  0.9506599E+02  0.7561462E-02  0.1291028E+00
          2   -1    0    0  501    0  0.00000000000E+00  0.00000000000E+00  0.17405583076E+03  0.17405583076E+03  0.00000000000E+00 0.  1.
         -2   -1    0    0    0  501 -0.00000000000E+00 -0.00000000000E+00 -0.87261651551E+02  0.87261651551E+02  0.00000000000E+00 0. -1.
         25    2    1    2    0    0 -0.45621466744E+01 -0.53038935330E+02  0.70946600486E+02  0.15332214040E+03  0.12506125209E+03 0.  0.
         23    2    1    2    0    0  0.45621466744E+01  0.53038935330E+02  0.15847578719E+02  0.10799534191E+03  0.92616986989E+02 0.  0.
          5    1    3    3  502    0 -0.30077335368E+02  0.12590857583E+02 -0.19806630935E+02  0.38379041500E+02  0.41800000000E+01 0.  1.
         -5    1    3    3    0  502  0.25515188693E+02 -0.65629792913E+02  0.90753231421E+02  0.11494309890E+03  0.41800000000E+01 0.  1.
        -11    1    4    4    0    0  0.36583881868E+02  0.27865635742E+02  0.39734576636E+02  0.60775905162E+02  0.00000000000E+00 0.  1.
         11    1    4    4    0    0 -0.32021735193E+02  0.25173299588E+02 -0.23886997917E+02  0.47219436744E+02  0.00000000000E+00 0. -1.
</event>
<event>
 8    1  0.6965441E-009  0.1708668E+03  0.7561462E-02  0.1176947E+00
          1   -1    0    0  501    0  0.00000000000E+00  0.00000000000E+00  0.47207764881E+03  0.47207764881E+03  0.00000000000E+00 0. -1.
         -1   -1    0    0    0  501 -0.00000000000E+00 -0.00000000000E+00 -0.89638011075E+02  0.89638011075E+02  0.00000000000E+00 0.  1.
         25    2    1    2    0    0  0.36068800849E+02 -0.15376728357E+03  0.11396615608E+03  0.23147305584E+03  0.12508459119E+03 0.  0.
         23    2    1    2    0    0 -0.36068800849E+02  0.15376728357E+03  0.26847348165E+03  0.33024260404E+03  0.10971249376E+03 0.  0.
          5    1    3    3  502    0  0.27935609084E+01 -0.14436474929E+03  0.40269388625E+02  0.14996026434E+03  0.41800000000E+01 0.  1.
         -5    1    3    3    0  502  0.33275239941E+02 -0.94025342825E+01  0.73696767460E+02  0.81512791500E+02  0.41800000000E+01 0.  1.
        -11    1    4    4    0    0 -0.42454500205E+02  0.10484801976E+03  0.25521193624E+03  0.27915698851E+03  0.00000000000E+00 0. -1.
         11    1    4    4    0    0  0.63856993555E+01  0.48919263806E+02  0.13261545403E+02  0.51085615530E+02  0.00000000000E+00 0.  1.
</event>
<event>
 8    1  0.6965441E-009  0.2146454E+03  0.7561462E-02  0.1137939E+00
          1   -1    0    0  501    0  0.00000000000E+00  0.00000000000E+00  0.46376483161E+03  0.46376483161E+03  0.00000000000E+00 0. -1.
         -1   -1    0    0    0  501 -0.00000000000E+00 -0.00000000000E+00 -0.10938175608E+03  0.10938175608E+03  0.00000000000E+00 0.  1.
         25    2    1    2    0    0 -0.13921697569E+03 -0.13400945364E+03  0.23354245757E+03  0.32791585492E+03  0.12508728326E+03 0.  0.
         23    2    1    2    0    0  0.13921697569E+03  0.13400945364E+03  0.12084061797E+03  0.24523073277E+03  0.90530422304E+02 0.  0.
          5    1    3    3  502    0 -0.54644838222E+02  0.15431172056E+02  0.75041809401E+02  0.94196204666E+02  0.41800000000E+01 0.  1.
         -5    1    3    3    0  502 -0.84572137463E+02 -0.14944062569E+03  0.15850064817E+03  0.23371965025E+03  0.41800000000E+01 0.  1.
        -11    1    4    4    0    0  0.12980519246E+02  0.43143797905E+02 -0.47688379436E+01  0.45305882542E+02  0.00000000000E+00 0.  1.
         11    1    4    4    0    0  0.12623645644E+03  0.90865655734E+02  0.12560945591E+03  0.19992485023E+03  0.00000000000E+00 0. -1.
</event>
<event>
 8    1  0.6965441E-009  0.2283094E+03  0.7561462E-02  0.1127835E+00
         -4   -1    0    0    0  501 -0.00000000000E+00  0.00000000000E+00  0.71809810411E+03  0.71809810411E+03  0.00000000000E+00 0.  1.
          4   -1    0    0  501    0  0.00000000000E+00 -0.00000000000E+00 -0.77247988892E+02  0.77247988892E+02  0.00000000000E+00 0. -1.
         25    2    1    2    0    0 -0.31259951916E+02 -0.20472007260E+03  0.38206598114E+03  0.45222334725E+03  0.12507617331E+03 0.  0.
         23    2    1    2    0    0  0.31259951916E+02  0.20472007260E+03  0.25878413407E+03  0.34312274576E+03  0.88749635999E+02 0.  0.
          5    1    3    3  502    0  0.28617303853E+02 -0.14417181973E+02  0.11114361254E+03  0.11574618881E+03  0.41800000000E+01 0.  1.
         -5    1    3    3    0  502 -0.59877255769E+02 -0.19030289062E+03  0.27092236860E+03  0.33647715843E+03  0.41800000000E+01 0.  1.
        -11    1    4    4    0    0  0.49432914707E+02  0.55039658790E+02  0.96651865370E+02  0.12171507785E+03  0.00000000000E+00 0. -1.
         11    1    4    4    0    0 -0.18172962791E+02  0.14968041381E+03  0.16213226871E+03  0.22140766791E+03  0.00000000000E+00 0.  1.
</event>
<event>
 8    1  0.6965441E-009  0.1931978E+03  0.7561462E-02  0.1155608E+00
         -2   -1    0    0    0  501 -0.00000000000E+00  0.00000000000E+00  0.11938501572E+03  0.11938501572E+03  0.00000000000E+00 0.  1.
          2   -1    0    0  501    0  0.00000000000E+00 -0.00000000000E+00 -0.33076537052E+03  0.33076537052E+03  0.00000000000E+00 0. -1.
         25    2    1    2    0    0 -0.18537201071E+02  0.16174433149E+03 -0.93909161355E+02  0.22576968567E+03  0.12509262084E+03 0.  0.
         23    2    1    2    0    0  0.18537201071E+02 -0.16174433149E+03 -0.11747119345E+03  0.22438070057E+03  0.10021158068E+03 0.  0.
          5    1    3    3  502    0  0.10148029453E+01 -0.16996191554E+02  0.77540370255E+01  0.19170233242E+02  0.41800000000E+01 0.  1.
         -5    1    3    3    0  502 -0.19552004017E+02  0.17874052305E+03 -0.10166319838E+03  0.20659945243E+03  0.41800000000E+01 0.  1.
        -11    1    4    4    0    0 -0.30882954034E+02 -0.15330308446E+02 -0.35371881461E+02  0.49395801492E+02  0.00000000000E+00 0. -1.
         11    1    4    4    0    0  0.49420155105E+02 -0.14641402305E+03 -0.82099311984E+02  0.17498489907E+03  0.00000000000E+00 0.  1.
</event>
<event>
 8    1  0.6965441E-009  0.1466495E+03  0.7561462E-02  0.1204652E+00
         -1   -1    0    0    0  501 -0.00000000000E+00  0.00000000000E+00  0.48285900169E+02  0.48285900169E+02  0.00000000000E+00 0.  1.
          1   -1    0    0  501    0  0.00000000000E+00 -0.00000000000E+00 -0.79743386021E+03  0.79743386021E+03  0.00000000000E+00 0. -1.
         25    2    1    2    0    0  0.93706715945E+02  0.65039572802E+02 -0.64550090750E+03  0.66733070040E+03  0.12509095679E+03 0.  0.
         23    2    1    2    0    0 -0.93706715945E+02 -0.65039572802E+02 -0.10364705254E+03  0.17838905998E+03  0.89826780953E+02 0.  0.
          5    1    3    3  502    0  0.11324323482E+03  0.18719068180E+02 -0.37607597682E+03  0.39322391393E+03  0.41800000000E+01 0. -1.
         -5    1    3    3    0  502 -0.19536518871E+02  0.46320504622E+02 -0.26942493068E+03  0.27410678647E+03  0.41800000000E+01 0. -1.
        -11    1    4    4    0    0 -0.81535657547E+02 -0.76114915037E+02 -0.49928288967E+02  0.12220629191E+03  0.00000000000E+00 0.  1.
         11    1    4    4    0    0 -0.12171058398E+02  0.11075342235E+02 -0.53718763577E+02  0.56182768073E+02  0.00000000000E+00 0. -1.
</event>
<event>
 8    1  0.6965441E-009  0.1083352E+03  0.7561462E-02  0.1263684E+00
         -1   -1    0    0    0  501 -0.00000000000E+00  0.00000000000E+00  0.28139806252E+02  0.28139806252E+02  0.00000000000E+00 0.  1.
          1   -1    0    0  501    0  0.00000000000E+00 -0.00000000000E+00 -0.42116204494E+03  0.42116204494E+03  0.00000000000E+00 0. -1.
         25    2    1    2    0    0  0.40572472060E+00  0.11995406032E+02 -0.21973930147E+03  0.25313272895E+03  0.12508702363E+03 0.  0.
         23    2    1    2    0    0 -0.40572472060E+00 -0.11995406032E+02 -0.17328293722E+03  0.19616912224E+03  0.91166297555E+02 0.  0.
          5    1    3    3  502    0 -0.60517426996E+02  0.20406472192E+02 -0.10987449254E+03  0.12715604425E+03  0.41800000000E+01 0. -1.
         -5    1    3    3    0  502  0.60923151717E+02 -0.84110661602E+01 -0.10986480892E+03  0.12597668470E+03  0.41800000000E+01 0. -1.
        -11    1    4    4    0    0 -0.16414470560E+02  0.36465119168E+02 -0.90132470860E+02  0.98605284154E+02  0.00000000000E+00 0.  1.
         11    1    4    4    0    0  0.16008745839E+02 -0.48460525200E+02 -0.83150466359E+02  0.97563838084E+02  0.00000000000E+00 0. -1.
</event>
<event>
 8    1  0.6965441E-009  0.1317509E+03  0.7561462E-02  0.1224881E+00
          2   -1    0    0  501    0  0.00000000000E+00  0.00000000000E+00  0.64241079841E+03  0.64241079841E+03  0.00000000000E+00 0. -1.
         -2   -1    0    0    0  501 -0.00000000000E+00 -0.00000000000E+00 -0.37213256808E+02  0.37213256808E+02  0.00000000000E+00 0.  1.
         25    2    1    2    0    0 -0.47300187573E+02 -0.92802773956E+02  0.24835081669E+03  0.29694037361E+03  0.12508315127E+03 0.  0.
         23    2    1    2    0    0  0.47300187573E+02  0.92802773956E+02  0.35684672492E+03  0.38268368161E+03  0.90871076188E+02 0.  0.
          5    1    3    3  502    0 -0.38431782823E+02 -0.10424335861E+03  0.10540813364E+03  0.15320583143E+03  0.41800000000E+01 0. -1.
         -5    1    3    3    0  502 -0.88684047499E+01  0.11440584657E+02  0.14294268305E+03  0.14373454218E+03  0.41800000000E+01 0. -1.
        -11    1    4    4    0    0 -0.26734248732E+02  0.19681998984E+02  0.68131582142E+02  0.75789271169E+02  0.00000000000E+00 0.  1.
         11    1    4    4    0    0  0.74034436304E+02  0.73120774972E+02  0.28871514278E+03  0.30689441044E+03  0.00000000000E+00 0. -1.
</event>
<event>
 8    1  0.6965441E-009  0.6833162E+02  0.7561462E-02  0.1365860E+00
         -3   -1    0    0    0  501 -0.00000000000E+00  0.00000000000E+00  0.41754107652E+03  0.41754107652E+03  0.00000000000E+00 0.  1.
          3   -1    0    0  501    0  0.00000000000E+00 -0.00000000000E+00 -0.31305065409E+02  0.31305065409E+02  0.00000000000E+00 0. -1.
         25    2    1    2    0    0  0.87006540866E+01 -0.33608476297E+02  0.24771476988E+03  0.27966989878E+03  0.12508962390E+03 0.  0.
         23    2    1    2    0    0 -0.87006540866E+01  0.33608476297E+02  0.13852124123E+03  0.16917624315E+03  0.90704111882E+02 0.  0.
          5    1    3    3  502    0  0.15473310725E+02 -0.69599562916E+01 -0.10217952412E+02  0.20242116684E+02  0.41800000000E+01 0. -1.
         -5    1    3    3    0  502 -0.67726566383E+01 -0.26648520005E+02  0.25793272229E+03  0.25942778210E+03  0.41800000000E+01 0. -1.
        -11    1    4    4    0    0 -0.27909623356E+01 -0.28677024354E+02  0.73484069342E+02  0.78930790213E+02  0.00000000000E+00 0.  1.
         11    1    4    4    0    0 -0.59096917510E+01  0.62285500651E+02  0.65037171892E+02  0.90245452936E+02  0.00000000000E+00 0. -1.
</event>
<event>
 8    1  0.6965441E-009  0.1066408E+03  0.7561462E-02  0.1266920E+00
          2   -1    0    0  501    0  0.00000000000E+00  0.00000000000E+00  0.28475170544E+03  0.28475170544E+03  0.00000000000E+00 0. -1.
         -2   -1    0    0    0  501 -0.00000000000E+00 -0.00000000000E+00 -0.70264438958E+02  0.70264438958E+02  0.00000000000E+00 0.  1.
         25    2    1    2    0    0 -0.19946080259E+01 -0.80961316572E+02  0.16649587937E+03  0.22342062854E+03  0.12504873517E+03 0.  0.
         23    2    1    2    0    0  0.19946080259E+01  0.80961316572E+02  0.47991387118E+02  0.13159551586E+03  0.91953756399E+02 0.  0.
          5    1    3    3  502    0  0.18761406480E+01 -0.10238654077E+03  0.69278195140E+02  0.12370717180E+03  0.41800000000E+01 0.  1.
         -5    1    3    3    0  502 -0.38707486739E+01  0.21425224196E+02  0.97217684227E+02  0.99713456733E+02  0.41800000000E+01 0.  1.
        -11    1    4    4    0    0 -0.15619655604E+02  0.21284566191E+02 -0.24531226063E+02  0.36038693807E+02  0.00000000000E+00 0.  1.
         11    1    4    4    0    0  0.17614263630E+02  0.59676750380E+02  0.72522613181E+02  0.95556822058E+02  0.00000000000E+00 0. -1.
</event>
<event>
 8    1  0.6965441E-009  0.1436794E+03  0.7561462E-02  0.1208462E+00
         -2   -1    0    0    0  501 -0.00000000000E+00  0.00000000000E+00  0.27832331597E+02  0.27832331597E+02  0.00000000000E+00 0.  1.
          2   -1    0    0  501    0  0.00000000000E+00 -0.00000000000E+00 -0.78603993092E+03  0.78603993092E+03  0.00000000000E+00 0. -1.
         25    2    1    2    0    0  0.61602342894E+02 -0.79571876449E+02 -0.41344468874E+03  0.44352197954E+03  0.12509477813E+03 0.  0.
         23    2    1    2    0    0 -0.61602342894E+02  0.79571876449E+02 -0.34476291058E+03  0.37035028297E+03  0.90395439129E+02 0.  0.
          5    1    3    3  502    0  0.47723526706E+02 -0.10944496144E+03 -0.37020077444E+03  0.38900105448E+03  0.41800000000E+01 0. -1.
         -5    1    3    3    0  502  0.13878816188E+02  0.29873084996E+02 -0.43243914300E+02  0.54520925065E+02  0.41800000000E+01 0. -1.
        -11    1    4    4    0    0 -0.81317509869E+02  0.81180917002E+02 -0.28084541035E+03  0.30344196020E+03  0.00000000000E+00 0.  1.
         11    1    4    4    0    0  0.19715166976E+02 -0.16090405536E+01 -0.63917500235E+02  0.66908322776E+02  0.00000000000E+00 0. -1.
</event>
<event>
 8    1  0.6965441E-009  0.1111478E+03  0.7561462E-02  0.1258459E+00
         -1   -1    0    0    0  501 -0.00000000000E+00  0.00000000000E+00  0.91945470298E+02  0.91945470298E+02  0.00000000000E+00 0.  1.
          1   -1    0    0  501    0  0.00000000000E+00 -0.00000000000E+00 -0.14381016830E+03  0.14381016830E+03  0.00000000000E+00 0. -1.
         25    2    1    2    0    0 -0.19657458795E+02 -0.80790985549E+01 -0.24351201449E+00  0.12688206361E+03  0.12508921315E+03 0.  0.
         23    2    1    2    0    0  0.19657458795E+02  0.80790985549E+01 -0.51621185991E+02  0.10887357499E+03  0.93472033085E+02 0.  0.
          5    1    3    3  502    0  0.48628018563E+02  0.19717348424E+02  0.48465502446E+01  0.52862268846E+02  0.41800000000E+01 0.  1.
         -5    1    3    3    0  502 -0.68285477358E+02 -0.27796446979E+02 -0.50900622591E+01  0.74019794761E+02  0.41800000000E+01 0.  1.
        -11    1    4    4    0    0  0.15913759453E+02  0.50642314092E+02 -0.30281311247E+02  0.61113415282E+02  0.00000000000E+00 0. -1.
         11    1    4    4    0    0  0.37436993419E+01 -0.42563215537E+02 -0.21339874743E+02  0.47760159712E+02  0.00000000000E+00 0.  1.
</event>
<event>
 8    1  0.6965441E-009  0.1158610E+03  0.7561462E-02  0.1250086E+00
         -4   -1    0    0    0  501 -0.00000000000E+00  0.00000000000E+00  0.34578344058E+02  0.34578344058E+02  0.00000000000E+00 0. -1.
          4   -1    0    0  501    0  0.00000000000E+00 -0.00000000000E+00 -0.57074961427E+03  0.57074961427E+03  0.00000000000E+00 0.  1.
         25    2    1    2    0    0 -0.39085289961E+02 -0.47514014571E+02 -0.15501585095E+03  0.20848601868E+03  0.12510501375E+03 0.  0.
         23    2    1    2    0    0  0.39085289961E+02  0.47514014571E+02 -0.38115541925E+03  0.39684193965E+03  0.91754182275E+02 0.  0.
          5    1    3    3  502    0  0.16726175616E+02 -0.65338341131E+02 -0.12599047105E+03  0.14296830057E+03  0.41800000000E+01 0.  1.
         -5    1    3    3    0  502 -0.55811465577E+02  0.17824326560E+02 -0.29025379902E+02  0.65517718105E+02  0.41800000000E+01 0.  1.
        -11    1    4    4    0    0  0.31365086055E+02 -0.20167541699E+02 -0.82810510565E+02  0.90818935369E+02  0.00000000000E+00 0. -1.
         11    1    4    4    0    0  0.77202039061E+01  0.67681556271E+02 -0.29834490869E+03  0.30602300428E+03  0.00000000000E+00 0.  1.
</event>
<event>
 8    1  0.6965441E-009  0.1212368E+03  0.7561462E-02  0.1241070E+00
          2   -1    0    0  501    0  0.00000000000E+00  0.00000000000E+00  0.28546681821E+03  0.28546681821E+03  0.00000000000E+00 0. -1.
         -2   -1    0    0    0  501 -0.00000000000E+00 -0.00000000000E+00 -0.84006547273E+02  0.84006547273E+02  0.00000000000E+00 0.  1.
         25    2    1    2    0    0 -0.75385853454E+02 -0.60159479647E+02  0.44746317773E+02  0.16417216649E+03  0.12509227555E+03 0.  0.
         23    2    1    2    0    0  0.75385853454E+02  0.60159479647E+02  0.15671395316E+03  0.20530119900E+03  0.91033671248E+02 0.  0.
          5    1    3    3  502    0  0.14691779872E+02 -0.29259983143E+02 -0.28776685860E+02  0.43790010943E+02  0.41800000000E+01 0.  1.
         -5    1    3    3    0  502 -0.90077633326E+02 -0.30899496504E+02  0.73523003633E+02  0.12038215554E+03  0.41800000000E+01 0.  1.
        -11    1    4    4    0    0  0.10178570385E+02 -0.12759983810E+02 -0.43193286718E+01  0.16884225836E+02  0.00000000000E+00 0.  1.
         11    1    4    4    0    0  0.65207283069E+02  0.72919463458E+02  0.16103328183E+03  0.18841697316E+03  0.00000000000E+00 0. -1.
</event>
<event>
 8    1  0.6965441E-009  0.1120910E+03  0.7561462E-02  0.1256746E+00
          1   -1    0    0  501    0  0.00000000000E+00  0.00000000000E+00  0.17510400826E+03  0.17510400826E+03  0.00000000000E+00 0. -1.
         -1   -1    0    0    0  501 -0.00000000000E+00 -0.00000000000E+00 -0.10705079174E+03  0.10705079174E+03  0.00000000000E+00 0.  1.
         25    2    1    2    0    0 -0.51665841638E+02 -0.21482164867E+02 -0.25460922569E+02  0.13937542619E+03  0.12508560368E+03 0.  0.
         23    2    1    2    0    0  0.51665841638E+02  0.21482164867E+02  0.93514139088E+02  0.14277937381E+03  0.92250814497E+02 0.  0.
          5    1    3    3  502    0  0.31120252060E+02 -0.82802483759E+01  0.25404405924E+02  0.41229708243E+02  0.41800000000E+01 0.  1.
         -5    1    3    3    0  502 -0.82786093698E+02 -0.13201916491E+02 -0.50865328493E+02  0.98145717948E+02  0.41800000000E+01 0.  1.
        -11    1    4    4    0    0  0.20151264351E+02  0.56900462262E+02  0.55723551585E+02  0.82151386244E+02  0.00000000000E+00 0. -1.
         11    1    4    4    0    0  0.31514577287E+02 -0.35418297395E+02  0.37790587503E+02  0.60627987561E+02  0.00000000000E+00 0.  1.
</event>
<event>
 8    1  0.6965441E-009  0.1303563E+03  0.7561462E-02  0.1226928E+00
         -1   -1    0    0    0  501 -0.00000000000E+00  0.00000000000E+00  0.12442848407E+03  0.12442848407E+03  0.00000000000E+00 0.  1.
          1   -1    0    0  501    0  0.00000000000E+00 -0.00000000000E+00 -0.15209600367E+03  0.15209600367E+03  0.00000000000E+00 0. -1.
         25    2    1    2    0    0 -0.31166975215E+00  0.76382741245E+02 -0.55293506575E+02  0.15665229906E+03  0.12509256825E+03 0.  0.
         23    2    1    2    0    0  0.31166975215E+00 -0.76382741245E+02  0.27625986982E+02  0.11987218868E+03  0.88157394274E+02 0.  0.
          5    1    3    3  502    0 -0.40109544596E+02  0.93268538016E+02 -0.48841974667E+02  0.11274221322E+03  0.41800000000E+01 0. -1.
         -5    1    3    3    0  502  0.39797874844E+02 -0.16885796771E+02 -0.64515319074E+01  0.43910085842E+02  0.41800000000E+01 0. -1.
        -11    1    4    4    0    0  0.37835970773E+02 -0.95552522471E+01  0.16732842555E+02  0.42459999410E+02  0.00000000000E+00 0. -1.
         11    1    4    4    0    0 -0.37524301021E+02 -0.66827488998E+02  0.10893144427E+02  0.77412189275E+02  0.00000000000E+00 0.  1.
</event>
<event>
 8    1  0.6965441E-009  0.1071447E+03  0.7561462E-02  0.1265951E+00
         -2   -1    0    0    0  501 -0.00000000000E+00  0.00000000000E+00  0.53359893280E+03  0.53359893280E+03  0.00000000000E+00 0. -1.
          2   -1    0    0  501    0  0.00000000000E+00 -0.00000000000E+00 -0.31121645949E+02  0.31121645949E+02  0.00000000000E+00 0.  1.
         25    2    1    2    0    0  0.26357009879E+01  0.11216065173E+02  0.12597024150E+03  0.17789231436E+03  0.12507768277E+03 0.  0.
         23    2    1    2    0    0 -0.26357009879E+01 -0.11216065173E+02  0.37650704534E+03  0.38682826438E+03  0.88010248798E+02 0.  0.
          5    1    3    3  502    0  0.44480844383E+02  0.50894321383E+02  0.70865327394E+02  0.98021143090E+02  0.41800000000E+01 0. -1.
         -5    1    3    3    0  502 -0.41845143395E+02 -0.39678256210E+02  0.55104914111E+02  0.79871171275E+02  0.41800000000E+01 0. -1.
        -11    1    4    4    0    0  0.19831379374E+01 -0.49825724909E+02  0.21457028632E+03  0.22028831896E+03  0.00000000000E+00 0.  1.
         11    1    4    4    0    0 -0.46188389253E+01  0.38609659736E+02  0.16193675902E+03  0.16653994542E+03  0.00000000000E+00 0. -1.
</event>
<event>
 8    1  0.6965441E-009  0.1095748E+03  0.7561462E-02  0.1261359E+00
         -2   -1    0    0    0  501 -0.00000000000E+00  0.00000000000E+00  0.53902084853E+02  0.53902084853E+02  0.00000000000E+00 0.  1.
          2   -1    0    0  501    0  0.00000000000E+00 -0.00000000000E+00 -0.31335936084E+03  0.31335936084E+03  0.00000000000E+00 0. -1.
         25    2    1    2    0    0 -0.47998518246E+02  0.46854237373E+02 -0.12013775964E+03  0.18595692523E+03  0.12509084473E+03 0.  0.
         23    2    1    2    0    0  0.47998518246E+02 -0.46854237373E+02 -0.13931951635E+03  0.18130452046E+03  0.94669024457E+02 0.  0.
          5    1    3    3  502    0  0.24137459053E+02  0.61002178299E+02 -0.39191066107E+02  0.76532965115E+02  0.41800000000E+01 0.  1.
         -5    1    3    3    0  502 -0.72135977299E+02 -0.14147940926E+02 -0.80946693532E+02  0.10942396011E+03  0.41800000000E+01 0.  1.
        -11    1    4    4    0    0 -0.47501310158E+01 -0.20069516562E+02  0.83310584334E+01  0.22243106220E+02  0.00000000000E+00 0.  1.
         11    1    4    4    0    0  0.52748649261E+02 -0.26784720811E+02 -0.14765057478E+03  0.15906141424E+03  0.00000000000E+00 0. -1.
</event>
<event>
 8    1  0.6965441E-009  0.1392151E+03  0.7561462E-02  0.1214389E+00
          1   -1    0    0  501    0  0.00000000000E+00  0.00000000000E+00  0.20553770290E+03  0.20553770290E+03  0.00000000000E+00 0. -1.
         -1   -1    0    0    0  501 -0.00000000000E+00 -0.00000000000E+00 -0.12462783043E+03  0.12462783043E+03  0.00000000000E+00 0.  1.
         25    2    1    2    0    0  0.47180936920E+02 -0.79089424807E+02  0.11922691213E+03  0.19581467918E+03  0.12508858493E+03 0.  0.
         23    2    1    2    0    0 -0.47180936920E+02  0.79089424807E+02 -0.38317039657E+02  0.13435085415E+03  0.90004325224E+02 0.  0.
          5    1    3    3  502    0 -0.25456569953E+02 -0.75144759906E+02  0.81282884835E+02  0.11366244614E+03  0.41800000000E+01 0. -1.
         -5    1    3    3    0  502  0.72637506873E+02 -0.39446649015E+01  0.37944027293E+02  0.82152233038E+02  0.41800000000E+01 0. -1.
        -11    1    4    4    0    0 -0.51265561554E+02  0.45524883713E+01 -0.24321238059E+01  0.51524733653E+02  0.00000000000E+00 0. -1.
         11    1    4    4    0    0  0.40846246343E+01  0.74536936436E+02 -0.35884915851E+02  0.82826120501E+02  0.00000000000E+00 0.  1.
</event>
<event>
 8    1  0.6965441E-009  0.1076501E+03  0.7561462E-02  0.1264984E+00
          2   -1    0    0  501    0  0.00000000000E+00  0.00000000000E+00  0.80222787548E+03  0.80222787548E+03  0.00000000000E+00 0. -1.
         -2   -1    0    0    0  501 -0.00000000000E+00 -0.00000000000E+00 -0.25589020324E+02  0.25589020324E+02  0.00000000000E+00 0.  1.
         25    2    1    2    0    0 -0.63464980643E+02 -0.36373196217E+02  0.58679829746E+03  0.60442527982E+03  0.12508742466E+03 0.  0.
         23    2    1    2    0    0  0.63464980643E+02  0.36373196217E+02  0.18984055770E+03  0.22339161599E+03  0.92268974068E+02 0.  0.
          5    1    3    3  502    0 -0.31425152470E+01 -0.37319462083E+02  0.42594252188E+02  0.56871437222E+02  0.41800000000E+01 0.  1.
         -5    1    3    3    0  502 -0.60322465396E+02  0.94626586582E+00  0.54420404527E+03  0.54755384259E+03  0.41800000000E+01 0.  1.
        -11    1    4    4    0    0  0.62032385444E+02 -0.16547551491E+02  0.11521205892E+03  0.13189259579E+03  0.00000000000E+00 0.  1.
         11    1    4    4    0    0  0.14325951992E+01  0.52920747708E+02  0.74628498781E+02  0.91499020199E+02  0.00000000000E+00 0. -1.
</event>
<event>
 8    1  0.6965441E-009  0.1312825E+03  0.7561462E-02  0.1225565E+00
         -1   -1    0    0    0  501 -0.00000000000E+00  0.00000000000E+00  0.30396635812E+02  0.30396635812E+02  0.00000000000E+00 0.  1.
          1   -1    0    0  501    0  0.00000000000E+00 -0.00000000000E+00 -0.58523663481E+03  0.58523663481E+03  0.00000000000E+00 0. -1.
         25    2    1    2    0    0  0.48980350984E+02  0.59000640356E+02 -0.33346228878E+03  0.36431165670E+03  0.12508291180E+03 0.  0.
         23    2    1    2    0    0 -0.48980350984E+02 -0.59000640356E+02 -0.22137771022E+03  0.25132161392E+03  0.90963249160E+02 0.  0.
          5    1    3    3  502    0 -0.40682662112E+02  0.81790461115E+01 -0.71529485076E+02  0.82800455477E+02  0.41800000000E+01 0. -1.
         -5    1    3    3    0  502  0.89663013096E+02  0.50821594244E+02 -0.26193280370E+03  0.28151120122E+03  0.41800000000E+01 0. -1.
        -11    1    4    4    0    0 -0.17205947728E+02 -0.78543286046E+02 -0.13333986388E+03  0.15570681334E+03  0.00000000000E+00 0.  1.
         11    1    4    4    0    0 -0.31774403256E+02  0.19542645690E+02 -0.88037846340E+02  0.95614800585E+02  0.00000000000E+00 0. -1.
</event>
<event>
 8    1  0.6965441E-009  0.1098260E+03  0.7561462E-02  0.1260892E+00
         -2   -1    0    0    0  501 -0.00000000000E+00  0.00000000000E+00  0.89929545774E+03  0.89929545774E+03  0.00000000000E+00 0.  1.
          2   -1    0    0  501    0  0.00000000000E+00 -0.00000000000E+00 -0.22256956248E+02  0.22256956248E+02  0.00000000000E+00 0. -1.
         25    2    1    2    0    0  0.36138881646E+02 -0.61447096464E+02  0.29960074779E+03  0.33240009161E+03  0.12508976136E+03 0.  0.
         23    2    1    2    0    0 -0.36138881646E+02  0.61447096464E+02  0.57743775370E+03  0.58915232238E+03  0.92651687144E+02 0.  0.
          5    1    3    3  502    0  0.14278098179E+02  0.16257328698E+02  0.21224480187E+03  0.21338578478E+03  0.41800000000E+01 0.  1.
         -5    1    3    3    0  502  0.21860783467E+02 -0.77704425163E+02  0.87355945918E+02  0.11901430683E+03  0.41800000000E+01 0.  1.
        -11    1    4    4    0    0  0.56965858079E-01 -0.23993896974E+02  0.12960083732E+03  0.13180321457E+03  0.00000000000E+00 0.  1.
         11    1    4    4    0    0 -0.36195847504E+02  0.85440993438E+02  0.44783691638E+03  0.45734910781E+03  0.00000000000E+00 0. -1.
</event>
<event>
 8    1  0.6965441E-009  0.1839449E+03  0.7561462E-02  0.1164039E+00
          2   -1    0    0  501    0  0.00000000000E+00  0.00000000000E+00  0.35751974114E+03  0.35751974114E+03  0.00000000000E+00 0. -1.
         -2   -1    0    0    0  501 -0.00000000000E+00 -0.00000000000E+00 -0.11477743544E+03  0.11477743544E+03  0.00000000000E+00 0.  1.
         25    2    1    2    0    0  0.14518790795E+03 -0.48313318438E+02  0.21258180925E+03  0.29025571557E+03  0.12507457551E+03 0.  0.
         23    2    1    2    0    0 -0.14518790795E+03  0.48313318438E+02  0.30160496444E+02  0.18204146102E+03  0.93892132954E+02 0.  0.
          5    1    3    3  502    0  0.44014569750E+02  0.36771174793E+02  0.30166365990E+02  0.64937536780E+02  0.41800000000E+01 0.  1.
         -5    1    3    3    0  502  0.10117333820E+03 -0.85084493231E+02  0.18241544326E+03  0.22531817879E+03  0.41800000000E+01 0.  1.
        -11    1    4    4    0    0 -0.64191226507E+02 -0.24987618856E+02  0.22778791064E+02  0.72551829604E+02  0.00000000000E+00 0. -1.
         11    1    4    4    0    0 -0.80996681443E+02  0.73300937294E+02  0.73817053798E+01  0.10948963141E+03  0.00000000000E+00 0.  1.
</event>
<event>
 8    1  0.6965441E-009  0.1224431E+03  0.7561462E-02  0.1239120E+00
          2   -1    0    0  501    0  0.00000000000E+00  0.00000000000E+00  0.44321368099E+03  0.44321368099E+03  0.00000000000E+00 0. -1.
         -2   -1    0    0    0  501 -0.00000000000E+00 -0.00000000000E+00 -0.37777387977E+02  0.37777387977E+02  0.00000000000E+00 0.  1.
         25    2    1    2    0    0 -0.61101478839E+02  0.13121336810E+02  0.16046270551E+03  0.21284102496E+03  0.12508981514E+03 0.  0.
         23    2    1    2    0    0  0.61101478839E+02 -0.13121336810E+02  0.24497358751E+03  0.26815004401E+03  0.89369051290E+02 0.  0.
          5    1    3    3  502    0 -0.76379819742E+02 -0.35910092554E+02  0.74686515923E+02  0.11277836526E+03  0.41800000000E+01 0.  1.
         -5    1    3    3    0  502  0.15278340903E+02  0.49031429365E+02  0.85776189582E+02  0.10006265970E+03  0.41800000000E+01 0.  1.
        -11    1    4    4    0    0 -0.10157427344E+02 -0.33284068794E+02  0.85973756217E+02  0.92749605518E+02  0.00000000000E+00 0.  1.
         11    1    4    4    0    0  0.71258906183E+02  0.20162731984E+02  0.15899983130E+03  0.17540043849E+03  0.00000000000E+00 0. -1.
</event>
<event>
 8    1  0.6965441E-009  0.1010238E+03  0.7561462E-02  0.1278158E+00
         -2   -1    0    0    0  501 -0.00000000000E+00  0.00000000000E+00  0.41919256004E+02  0.41919256004E+02  0.00000000000E+00 0.  1.
          2   -1    0    0  501    0  0.00000000000E+00 -0.00000000000E+00 -0.33573726886E+03  0.33573726886E+03  0.00000000000E+00 0. -1.
         25    2    1    2    0    0 -0.43873655174E+02  0.17793508957E+02 -0.16551085457E+03  0.21279564023E+03  0.12508650982E+03 0.  0.
         23    2    1    2    0    0  0.43873655174E+02 -0.17793508957E+02 -0.12830715828E+03  0.16486088464E+03  0.92059099701E+02 0.  0.
          5    1    3    3  502    0 -0.70652819313E+02  0.42357929052E+02 -0.62514226544E+02  0.10349645381E+03  0.41800000000E+01 0.  1.
         -5    1    3    3    0  502  0.26779164139E+02 -0.24564420095E+02 -0.10299662803E+03  0.10929918642E+03  0.41800000000E+01 0.  1.
        -11    1    4    4    0    0  0.11775584408E+02 -0.41463887583E+02 -0.16500209655E+02  0.46153821947E+02  0.00000000000E+00 0.  1.
         11    1    4    4    0    0  0.32098070766E+02  0.23670378627E+02 -0.11180694863E+03  0.11870706269E+03  0.00000000000E+00 0. -1.
</event>
<event>
 8    1  0.6965441E-009  0.8933386E+02  0.7561462E-02  0.1304473E+00
         -4   -1    0    0    0  501 -0.00000000000E+00  0.00000000000E+00  0.55408314403E+02  0.55408314403E+02  0.00000000000E+00 0. -1.
          4   -1    0    0  501    0  0.00000000000E+00 -0.00000000000E+00 -0.24933943733E+03  0.24933943733E+03  0.00000000000E+00 0.  1.
         25    2    1    2    0    0  0.24969930570E+02 -0.10667412587E+02 -0.58612137425E+02  0.14078617007E+03  0.12509225358E+03 0.  0.
         23    2    1    2    0    0 -0.24969930570E+02  0.10667412587E+02 -0.13531898550E+03  0.16396158166E+03  0.88514864859E+02 0.  0.
          5    1    3    3  502    0  0.24143645537E+02 -0.67041319767E+02 -0.35350553717E+02  0.79652923512E+02  0.41800000000E+01 0. -1.
         -5    1    3    3    0  502  0.82628503265E+00  0.56373907180E+02 -0.23261583707E+02  0.61133246554E+02  0.41800000000E+01 0. -1.
        -11    1    4    4    0    0 -0.59264307820E+01  0.25773995617E+02 -0.13706325172E+03  0.13959139086E+03  0.00000000000E+00 0.  1.
         11    1    4    4    0    0 -0.19043499788E+02 -0.15106583029E+02  0.17442662178E+01  0.24370190800E+02  0.00000000000E+00 0. -1.
</event>
<event>
 8    1  0.6965441E-009  0.7359146E+02  0.7561462E-02  0.1348289E+00
          3   -1    0    0  501    0  0.00000000000E+00  0.00000000000E+00  0.18645947136E+03  0.18645947136E+03  0.00000000000E+00 0. -1.
         -3   -1    0    0    0  501 -0.00000000000E+00 -0.00000000000E+00 -0.81751325757E+02  0.81751325757E+02  0.00000000000E+00 0.  1.
         25    2    1    2    0    0  0.24986623359E+02 -0.44557418182E+02  0.90531582749E+02  0.16264346136E+03  0.12508890113E+03 0.  0.
         23    2    1    2    0    0 -0.24986623359E+02  0.44557418182E+02  0.14176562859E+02  0.10556733576E+03  0.91289608303E+02 0.  0.
          5    1    3    3  502    0 -0.61101213023E+00  0.57996514010E+01 -0.29264172116E+02  0.30130938615E+02  0.41800000000E+01 0. -1.
         -5    1    3    3    0  502  0.25597635489E+02 -0.50357069583E+02  0.11979575486E+03  0.13251252274E+03  0.41800000000E+01 0. -1.
        -11    1    4    4    0    0 -0.42328435650E+02  0.82464695769E+01  0.39119644475E+02  0.58224112779E+02  0.00000000000E+00 0. -1.
         11    1    4    4    0    0  0.17341812291E+02  0.36310948606E+02 -0.24943081616E+02  0.47343222986E+02  0.00000000000E+00 0.  1.
</event>
<event>
 8    1  0.6965441E-009  0.1836532E+03  0.7561462E-02  0.1164314E+00
          2   -1    0    0  501    0  0.00000000000E+00  0.00000000000E+00  0.10683238706E+03  0.10683238706E+03  0.00000000000E+00 0. -1.
         -2   -1    0    0    0  501 -0.00000000000E+00 -0.00000000000E+00 -0.40373951693E+03  0.40373951693E+03  0.00000000000E+00 0.  1.
         25    2    1    2    0    0  0.13860341745E+03  0.63270209279E+02 -0.44775168336E+02  0.20215457073E+03  0.12509047948E+03 0.  0.
         23    2    1    2    0    0 -0.13860341745E+03 -0.63270209279E+02 -0.25213196153E+03  0.30841733327E+03  0.91305524055E+02 0.  0.
          5    1    3    3  502    0 -0.23624222152E+02  0.95374746931E+01 -0.17460479570E+01  0.25876405841E+02  0.41800000000E+01 0. -1.
         -5    1    3    3    0  502  0.16222763960E+03  0.53732734586E+02 -0.43029120379E+02  0.17627816489E+03  0.41800000000E+01 0. -1.
        -11    1    4    4    0    0 -0.11107614117E+02 -0.39266619160E+02 -0.10278567738E+03  0.11058997218E+03  0.00000000000E+00 0.  1.
         11    1    4    4    0    0 -0.12749580333E+03 -0.24003590119E+02 -0.14934628415E+03  0.19782736109E+03  0.00000000000E+00 0. -1.
</event>
<event>
 8    1  0.6965441E-009  0.3124994E+03  0.7561462E-02  0.1079154E+00
          3   -1    0    0  501    0  0.00000000000E+00  0.00000000000E+00  0.22038898779E+03  0.22038898779E+03  0.00000000000E+00 0.  1.
         -3   -1    0    0    0  501 -0.00000000000E+00 -0.00000000000E+00 -0.45779894705E+03  0.45779894705E+03  0.00000000000E+00 0. -1.
         25    2    1    2    0    0  0.12326398821E+03 -0.27097370319E+03 -0.10700000219E+03  0.34017360598E+03  0.12509325772E+03 0.  0.
         23    2    1    2    0    0 -0.12326398821E+03  0.27097370319E+03 -0.13040995707E+03  0.33801432886E+03  0.92877182383E+02 0.  0.
          5    1    3    3  502    0  0.12246884896E+03 -0.13625062460E+03 -0.32319621744E+02  0.18607762364E+03  0.41800000000E+01 0.  1.
         -5    1    3    3    0  502  0.79513925208E+00 -0.13472307858E+03 -0.74680380441E+02  0.15409598234E+03  0.41800000000E+01 0.  1.
        -11    1    4    4    0    0 -0.74337151459E+02  0.77473312474E+02 -0.17759319812E+02  0.10882793609E+03  0.00000000000E+00 0.  1.
         11    1    4    4    0    0 -0.48926836748E+02  0.19350039071E+03 -0.11265063726E+03  0.22918639278E+03  0.00000000000E+00 0. -1.
</event>
<event>
 8    1  0.6965441E-009  0.1012685E+03  0.7561462E-02  0.1277651E+00
          2   -1    0    0  501    0  0.00000000000E+00  0.00000000000E+00  0.11277709462E+04  0.11277709462E+04  0.00000000000E+00 0. -1.
         -2   -1    0    0    0  501 -0.00000000000E+00 -0.00000000000E+00 -0.14641573647E+02  0.14641573647E+02  0.00000000000E+00 0.  1.
         25    2    1    2    0    0  0.21479235566E+02 -0.60031718602E+02  0.73050556918E+03  0.74387570654E+03  0.12509002910E+03 0.  0.
         23    2    1    2    0    0 -0.21479235566E+02  0.60031718602E+02  0.38262380341E+03  0.39853681334E+03  0.91462844123E+02 0.  0.
          5    1    3    3  502    0  0.41463040378E+01 -0.87090222580E+02  0.30802706353E+03  0.32015627899E+03  0.41800000000E+01 0.  1.
         -5    1    3    3    0  502  0.17332931528E+02  0.27058503977E+02  0.42247850565E+03  0.42371942755E+03  0.41800000000E+01 0.  1.
        -11    1    4    4    0    0  0.17448688886E+02  0.12818193256E+02  0.16205520149E+02  0.27044069691E+02  0.00000000000E+00 0.  1.
         11    1    4    4    0    0 -0.38927924452E+02  0.47213525346E+02  0.36641828326E+03  0.37149274365E+03  0.00000000000E+00 0. -1.
</event>
<event>
 8    1  0.6965441E-009  0.1029813E+03  0.7561462E-02  0.1274149E+00
          3   -1    0    0  501    0  0.00000000000E+00  0.00000000000E+00  0.22132400618E+03  0.22132400618E+03  0.00000000000E+00 0. -1.
         -3   -1    0    0    0  501 -0.00000000000E+00 -0.00000000000E+00 -0.51522180350E+02  0.51522180350E+02  0.00000000000E+00 0.  1.
         25    2    1    2    0    0  0.31206314632E+02 -0.55782557551E+01  0.10123497888E+03  0.16401599534E+03  0.12509106590E+03 0.  0.
         23    2    1    2    0    0 -0.31206314632E+02  0.55782557551E+01  0.68566846956E+02  0.10883019119E+03  0.78343136289E+02 0.  0.
          5    1    3    3  502    0  0.47919385647E+02 -0.55447640216E+02  0.75540735721E+02  0.10533082872E+03  0.41800000000E+01 0. -1.
         -5    1    3    3    0  502 -0.16713071015E+02  0.49869384461E+02  0.25694243156E+02  0.58685166615E+02  0.41800000000E+01 0. -1.
        -11    1    4    4    0    0 -0.55403861776E+02  0.37711755923E+01  0.29606258613E+02  0.62931234011E+02  0.00000000000E+00 0.  1.
         11    1    4    4    0    0  0.24197547144E+02  0.18070801629E+01  0.38960588343E+02  0.45898957184E+02  0.00000000000E+00 0. -1.
</event>
<event>
 8    1  0.6965441E-009  0.1029092E+03  0.7561462E-02  0.1274295E+00
         -1   -1    0    0    0  501 -0.00000000000E+00  0.00000000000E+00  0.16996953763E+03  0.16996953763E+03  0.00000000000E+00 0.  1.
          1   -1    0    0  501    0  0.00000000000E+00 -0.00000000000E+00 -0.14721939896E+03  0.14721939896E+03  0.00000000000E+00 0. -1.
         25    2    1    2    0    0 -0.68983979293E+02  0.52394058151E+02  0.91368233687E+02  0.17747972049E+03  0.12508785044E+03 0.  0.
         23    2    1    2    0    0  0.68983979293E+02 -0.52394058151E+02 -0.68618095015E+02  0.13970921611E+03  0.85476870406E+02 0.  0.
          5    1    3    3  502    0 -0.47402258557E+02  0.58180368888E+02 -0.79607034013E+01  0.75582899117E+02  0.41800000000E+01 0. -1.
         -5    1    3    3    0  502 -0.21581720736E+02 -0.57863107376E+01  0.99328937088E+02  0.10189682137E+03  0.41800000000E+01 0. -1.
        -11    1    4    4    0    0  0.28461226331E+02  0.12764656375E+02 -0.52858449980E+02  0.61375838820E+02  0.00000000000E+00 0.  1.
         11    1    4    4    0    0  0.40522752962E+02 -0.65158714526E+02 -0.15759645035E+02  0.78333377292E+02  0.00000000000E+00 0. -1.
</event>
<event>
 8    1  0.6965441E-009  0.1829653E+03  0.7561462E-02  0.1164964E+00
          2   -1    0    0  501    0  0.00000000000E+00  0.00000000000E+00  0.85548011935E+03  0.85548011935E+03  0.00000000000E+00 0. -1.
         -2   -1    0    0    0  501 -0.00000000000E+00 -0.00000000000E+00 -0.52114697368E+02  0.52114697368E+02  0.00000000000E+00 0.  1.
         25    2    1    2    0    0 -0.13407169763E+03  0.88948316005E+02  0.24183649999E+03  0.31625711724E+03  0.12508656383E+03 0.  0.
         23    2    1    2    0    0  0.13407169763E+03 -0.88948316005E+02  0.56152892199E+03  0.59133769948E+03  0.92078887743E+02 0.  0.
          5    1    3    3  502    0 -0.42854789376E+02 -0.25900137501E+02  0.10133977017E+03  0.11311309169E+03  0.41800000000E+01 0.  1.
         -5    1    3    3    0  502 -0.91216908252E+02  0.11484845351E+03  0.14049672982E+03  0.20314402555E+03  0.41800000000E+01 0.  1.
        -11    1    4    4    0    0  0.11694951008E+03 -0.51510732394E+02  0.50790076930E+03  0.52373059383E+03  0.00000000000E+00 0. -1.
         11    1    4    4    0    0  0.17122187544E+02 -0.37437583611E+02  0.53628152693E+02  0.67607105649E+02  0.00000000000E+00 0.  1.
</event>
<event>
 7    1  0.6965441E-009  0.9149167E+02  0.7561462E-02  0.1299279E+00
          2   -1    0    0  501    0  0.00000000000E+00  0.00000000000E+00  0.30625786250E+03  0.30625786250E+03  0.00000000000E+00 0.  1.
         -2   -1    0    0    0  501 -0.00000000000E+00 -0.00000000000E+00 -0.59931803324E+02  0.59931803324E+02  0.00000000000E+00 0. -1.
         23    2    1    2    0    0  0.58369872702E+02  0.35894739190E+02  0.56745252281E+02  0.12815393936E+03  0.92238463644E+02 0.  0.
          5    1    1    2  502    0 -0.44395096905E+02 -0.42819946407E+02  0.20595842256E+03  0.21503677979E+03  0.41800000000E+01 0. -1.
         -5    1    1    2    0  502 -0.13974775796E+02  0.69252072177E+01 -0.16377615662E+02  0.22998946679E+02  0.41800000000E+01 0. -1.
        -11    1    3    3    0    0  0.57940071930E+02 -0.10273843417E+02  0.57082960646E+02  0.81982121160E+02  0.00000000000E+00 0. -1.
         11    1    3    3    0    0  0.42980077215E+00  0.46168582607E+02 -0.33770836554E+00  0.46171818196E+02  0.00000000000E+00 0.  1.
</event>
<event>
 8    1  0.6965441E-009  0.6119935E+02  0.7561462E-02  0.1392866E+00
         -2   -1    0    0    0  501 -0.00000000000E+00  0.00000000000E+00  0.72015760091E+02  0.72015760091E+02  0.00000000000E+00 0.  1.
          2   -1    0    0  501    0  0.00000000000E+00 -0.00000000000E+00 -0.23257192905E+03  0.23257192905E+03  0.00000000000E+00 0. -1.
         25    2    1    2    0    0  0.17144882645E+02  0.20245769430E+02 -0.16540741132E+03  0.20907119303E+03  0.12508922359E+03 0.  0.
         23    2    1    2    0    0 -0.17144882645E+02 -0.20245769430E+02  0.48512423546E+01  0.95516496111E+02  0.91629843917E+02 0.  0.
          5    1    3    3  502    0  0.20513580636E+01  0.21429294533E+01 -0.18063050374E+03  0.18070321386E+03  0.41800000000E+01 0. -1.
         -5    1    3    3    0  502  0.15093524581E+02  0.18102839976E+02  0.15223092425E+02  0.28367979175E+02  0.41800000000E+01 0. -1.
        -11    1    4    4    0    0 -0.21706943145E+01  0.35524141884E+02 -0.77215914299E+01  0.36418395689E+02  0.00000000000E+00 0.  1.
         11    1    4    4    0    0 -0.14974188331E+02 -0.55769911313E+02  0.12572833785E+02  0.59098100422E+02  0.00000000000E+00 0. -1.
</event>
<event>
 8    1  0.6965441E-009  0.1004922E+03  0.7561462E-02  0.1279264E+00
         -1   -1    0    0    0  501 -0.00000000000E+00  0.00000000000E+00  0.11389196812E+03  0.11389196812E+03  0.00000000000E+00 0.  1.
          1   -1    0    0  501    0  0.00000000000E+00 -0.00000000000E+00 -0.19011403305E+03  0.19011403305E+03  0.00000000000E+00 0. -1.
         25    2    1    2    0    0  0.60074372235E+02 -0.17046662987E+01 -0.13342754822E+03  0.19252230800E+03  0.12510032920E+03 0.  0.
         23    2    1    2    0    0 -0.60074372235E+02  0.17046662987E+01  0.57205483286E+02  0.11148369317E+03  0.74460126501E+02 0.  0.
          5    1    3    3  502    0  0.34598163479E+02 -0.61055447097E+02 -0.47076015145E+02  0.84607470937E+02  0.41800000000E+01 0.  1.
         -5    1    3    3    0  502  0.25476208756E+02  0.59350780799E+02 -0.86351533072E+02  0.10791483706E+03  0.41800000000E+01 0.  1.
        -11    1    4    4    0    0 -0.27394194550E+02 -0.12762328284E+02  0.67780644576E+02  0.74212766404E+02  0.00000000000E+00 0.  1.
         11    1    4    4    0    0 -0.32680177685E+02  0.14466994582E+02 -0.10575161290E+02  0.37270926767E+02  0.00000000000E+00 0. -1.
</event>
<event>
 8    1  0.6965441E-009  0.1288450E+03  0.7561462E-02  0.1229180E+00
         -1   -1    0    0    0  501 -0.00000000000E+00  0.00000000000E+00  0.91661190275E+02  0.91661190275E+02  0.00000000000E+00 0.  1.
          1   -1    0    0  501    0  0.00000000000E+00 -0.00000000000E+00 -0.28196716942E+03  0.28196716942E+03  0.00000000000E+00 0. -1.
         25    2    1    2    0    0 -0.10616788782E+03 -0.25646920874E+02 -0.68016906248E+02  0.17945130009E+03  0.12508830726E+03 0.  0.
         23    2    1    2    0    0  0.10616788782E+03  0.25646920874E+02 -0.12228907290E+03  0.19417705960E+03  0.10402272911E+03 0.  0.
          5    1    3    3  502    0 -0.15500573413E+02 -0.51550329777E+02  0.12461532825E+02  0.55411790050E+02  0.41800000000E+01 0.  1.
         -5    1    3    3    0  502 -0.90667314410E+02  0.25903408903E+02 -0.80478439072E+02  0.12403951004E+03  0.41800000000E+01 0.  1.
        -11    1    4    4    0    0  0.72195777076E+02  0.19541027588E+02 -0.13744673962E+03  0.15647903443E+03  0.00000000000E+00 0. -1.
         11    1    4    4    0    0  0.33972110746E+02  0.61058932860E+01  0.15157666718E+02  0.37698025170E+02  0.00000000000E+00 0.  1.
</event>
<event>
 7    1  0.6965441E-009  0.1032069E+03  0.7561462E-02  0.1273693E+00
          2   -1    0    0  501    0  0.00000000000E+00  0.00000000000E+00  0.29229341568E+03  0.29229341568E+03  0.00000000000E+00 0. -1.
         -2   -1    0    0    0  501 -0.00000000000E+00 -0.00000000000E+00 -0.49857854439E+02  0.49857854439E+02  0.00000000000E+00 0.  1.
         23    2    1    2    0    0 -0.37789351577E+02 -0.25754268345E+01  0.49468398991E+02  0.10904908391E+03  0.89498113316E+02 0.  0.
          5    1    1    2  502    0  0.64240364786E+02  0.44380774164E+02  0.93132601163E+02  0.12160440528E+03  0.41800000000E+01 0.  1.
         -5    1    1    2    0  502 -0.26451013209E+02 -0.41805347330E+02  0.99834561090E+02  0.11149778093E+03  0.41800000000E+01 0.  1.
        -11    1    3    3    0    0 -0.22245155010E+02  0.32973901752E+02 -0.71487578360E+01  0.40413238633E+02  0.00000000000E+00 0.  1.
         11    1    3    3    0    0 -0.15544196566E+02 -0.35549328587E+02  0.56617156827E+02  0.68635845278E+02  0.00000000000E+00 0. -1.
</event>
<event>
 8    1  0.6965441E-009  0.1206871E+03  0.7561462E-02  0.1241968E+00
         -1   -1    0    0    0  501 -0.00000000000E+00  0.00000000000E+00  0.35348821723E+02  0.35348821723E+02  0.00000000000E+00 0.  1.
          1   -1    0    0  501    0  0.00000000000E+00 -0.00000000000E+00 -0.62647643591E+03  0.62647643591E+03  0.00000000000E+00 0. -1.
         25    2    1    2    0    0 -0.83744380654E+02 -0.49971450200E+02 -0.35801324524E+03  0.39157638966E+03  0.12509323743E+03 0.  0.
         23    2    1    2    0    0  0.83744380654E+02  0.49971450200E+02 -0.23311436895E+03  0.27024886797E+03  0.95822098191E+02 0.  0.
          5    1    3    3  502    0 -0.98998908084E+02 -0.86095164547E+01 -0.31304055407E+03  0.32846121303E+03  0.41800000000E+01 0. -1.
         -5    1    3    3    0  502  0.15254527430E+02 -0.41361933746E+02 -0.44972691173E+02  0.63115176635E+02  0.41800000000E+01 0. -1.
        -11    1    4    4    0    0  0.49660707124E+02  0.32270251168E+02 -0.35740866779E+02  0.69173437826E+02  0.00000000000E+00 0.  1.
         11    1    4    4    0    0  0.34083673530E+02  0.17701199032E+02 -0.19737350217E+03  0.20107543014E+03  0.00000000000E+00 0. -1.
</event>
<event>
 8    1  0.6965441E-009  0.6863168E+02  0.7561462E-02  0.1364809E+00
          1   -1    0    0  501    0  0.00000000000E+00  0.00000000000E+00  0.47061267160E+03  0.47061267160E+03  0.00000000000E+00 0. -1.
         -1   -1    0    0    0  501 -0.00000000000E+00 -0.00000000000E+00 -0.38778912883E+02  0.38778912883E+02  0.00000000000E+00 0.  1.
         25    2    1    2    0    0 -0.38435111197E+02  0.11466059539E+02  0.36818556031E+03  0.39091664732E+03  0.12508593061E+03 0.  0.
         23    2    1    2    0    0  0.38435111197E+02 -0.11466059539E+02  0.63648198405E+02  0.11847493716E+03  0.91523162540E+02 0.  0.
          5    1    3    3  502    0 -0.11083989838E+02  0.12440756116E+02  0.36217969843E+03  0.36258686352E+03  0.41800000000E+01 0.  1.
         -5    1    3    3    0  502 -0.27351121359E+02 -0.97469657624E+00  0.60058618781E+01  0.28329783796E+02  0.41800000000E+01 0.  1.
        -11    1    4    4    0    0 -0.22966720660E+02 -0.19940252509E+02  0.43927630803E+02  0.53429586148E+02  0.00000000000E+00 0. -1.
         11    1    4    4    0    0  0.61401831857E+02  0.84741929696E+01  0.19720567602E+02  0.65045351013E+02  0.00000000000E+00 0.  1.
</event>
<event>
 8    1  0.6965441E-009  0.8442087E+02  0.7561462E-02  0.1316954E+00
         -1   -1    0    0    0  501 -0.00000000000E+00  0.00000000000E+00  0.34221267507E+02  0.34221267507E+02  0.00000000000E+00 0.  1.
          1   -1    0    0  501    0  0.00000000000E+00 -0.00000000000E+00 -0.35947838399E+03  0.35947838399E+03  0.00000000000E+00 0. -1.
         25    2    1    2    0    0 -0.14127152043E+02  0.18650722252E+02 -0.18296034419E+03  0.22286752011E+03  0.12509203855E+03 0.  0.
         23    2    1    2    0    0  0.14127152043E+02 -0.18650722252E+02 -0.14229677229E+03  0.17083213139E+03  0.91585041597E+02 0.  0.
          5    1    3    3  502    0  0.26719420629E+02 -0.15506197017E+02  0.11209588783E+01  0.31194527301E+02  0.41800000000E+01 0. -1.
         -5    1    3    3    0  502 -0.40846572672E+02  0.34156919269E+02 -0.18408130307E+03  0.19167299281E+03  0.41800000000E+01 0. -1.
        -11    1    4    4    0    0 -0.20547196909E+02 -0.38979436002E+02 -0.11242987464E+03  0.12075620251E+03  0.00000000000E+00 0. -1.
         11    1    4    4    0    0  0.34674348952E+02  0.20328713750E+02 -0.29866897648E+02  0.50075928879E+02  0.00000000000E+00 0.  1.
</event>
<event>
 8    1  0.6965441E-009  0.1161797E+03  0.7561462E-02  0.1249536E+00
         -2   -1    0    0    0  501 -0.00000000000E+00  0.00000000000E+00  0.24384064632E+02  0.24384064632E+02  0.00000000000E+00 0. -1.
          2   -1    0    0  501    0  0.00000000000E+00 -0.00000000000E+00 -0.10313707292E+04  0.10313707292E+04  0.00000000000E+00 0.  1.
         25    2    1    2    0    0 -0.22695299926E+02 -0.11191928274E+03 -0.61458169435E+03  0.63749382935E+03  0.12508685358E+03 0.  0.
         23    2    1    2    0    0  0.22695299926E+02  0.11191928274E+03 -0.39240497019E+03  0.41826096446E+03  0.88991973061E+02 0.  0.
          5    1    3    3  502    0 -0.44669306105E+01 -0.82959998963E+02 -0.58828181459E+03  0.59413405951E+03  0.41800000000E+01 0. -1.
         -5    1    3    3    0  502 -0.18228369315E+02 -0.28959283780E+02 -0.26299879765E+02  0.43359769840E+02  0.41800000000E+01 0. -1.
        -11    1    4    4    0    0  0.86975687141E+01  0.21302210074E+02 -0.10125324789E+02  0.25138696420E+02  0.00000000000E+00 0. -1.
         11    1    4    4    0    0  0.13997731212E+02  0.90617072669E+02 -0.38227964540E+03  0.39312226804E+03  0.00000000000E+00 0.  1.
</event>
<event>
 8    1  0.6965441E-009  0.1120726E+03  0.7561462E-02  0.1256779E+00
         -1   -1    0    0    0  501 -0.00000000000E+00  0.00000000000E+00  0.25654829914E+02  0.25654829914E+02  0.00000000000E+00 0.  1.
          1   -1    0    0  501    0  0.00000000000E+00 -0.00000000000E+00 -0.63956208128E+03  0.63956208128E+03  0.00000000000E+00 0. -1.
         25    2    1    2    0    0  0.59534826339E+02  0.24150933060E+02 -0.39531350151E+03  0.41958063047E+03  0.12508987917E+03 0.  0.
         23    2    1    2    0    0 -0.59534826339E+02 -0.24150933060E+02 -0.21859374985E+03  0.24563628073E+03  0.91794835470E+02 0.  0.
          5    1    3    3  502    0  0.83335128912E+02  0.54595411168E+02 -0.24982847337E+03  0.26899282730E+03  0.41800000000E+01 0.  1.
         -5    1    3    3    0  502 -0.23800302573E+02 -0.30444478108E+02 -0.14548502814E+03  0.15058780317E+03  0.41800000000E+01 0.  1.
        -11    1    4    4    0    0 -0.44831282434E+02 -0.42686571497E+02 -0.21231888590E+03  0.22115898485E+03  0.00000000000E+00 0.  1.
         11    1    4    4    0    0 -0.14703543905E+02  0.18535638438E+02 -0.62748639533E+01  0.24477295874E+02  0.00000000000E+00 0. -1.
</event>
<event>
 8    1  0.6965441E-009  0.1330768E+03  0.7561462E-02  0.1222960E+00
          2   -1    0    0  501    0  0.00000000000E+00  0.00000000000E+00  0.25483670380E+03  0.25483670380E+03  0.00000000000E+00 0. -1.
         -2   -1    0    0    0  501 -0.00000000000E+00 -0.00000000000E+00 -0.70951543154E+02  0.70951543154E+02  0.00000000000E+00 0.  1.
         25    2    1    2    0    0 -0.59103902574E+02 -0.49135003008E+02  0.78359769940E+02  0.16642158594E+03  0.12509344868E+03 0.  0.
         23    2    1    2    0    0  0.59103902574E+02  0.49135003008E+02  0.10552539071E+03  0.15936666101E+03  0.91403526943E+02 0.  0.
          5    1    3    3  502    0 -0.35622478277E+02 -0.91411176430E+02  0.49784266122E+02  0.11009500301E+03  0.41800000000E+01 0. -1.
         -5    1    3    3    0  502 -0.23481424297E+02  0.42276173423E+02  0.28575503818E+02  0.56326582931E+02  0.41800000000E+01 0. -1.
        -11    1    4    4    0    0 -0.24642304316E+02  0.15848992565E+02  0.26601513665E+02  0.39573656093E+02  0.00000000000E+00 0.  1.
         11    1    4    4    0    0  0.83746206890E+02  0.33286010443E+02  0.78923877041E+02  0.11979300492E+03  0.00000000000E+00 0. -1.
</event>
<event>
 8    1  0.6965441E-009  0.1693647E+03  0.7561462E-02  0.1178512E+00
          2   -1    0    0  501    0  0.00000000000E+00  0.00000000000E+00  0.31842517010E+03  0.31842517010E+03  0.00000000000E+00 0. -1.
         -2   -1    0    0    0  501 -0.00000000000E+00 -0.00000000000E+00 -0.13702435511E+03  0.13702435511E+03  0.00000000000E+00 0.  1.
         25    2    1    2    0    0  0.10356496429E+03 -0.10537486223E+03 -0.13901238537E+02  0.19409028109E+03  0.12509288293E+03 0.  0.
         23    2    1    2    0    0 -0.10356496429E+03  0.10537486223E+03  0.19530205352E+03  0.26135924412E+03  0.91302787252E+02 0.  0.
          5    1    3    3  502    0  0.83533885973E+02 -0.25968512041E+00  0.10389300081E+02  0.84281596439E+02  0.41800000000E+01 0. -1.
         -5    1    3    3    0  502  0.20031078318E+02 -0.10511517711E+03 -0.24290538617E+02  0.10980868465E+03  0.41800000000E+01 0. -1.
        -11    1    4    4    0    0 -0.68047838224E+02  0.74982141548E+02  0.58836143413E+02  0.11710901592E+03  0.00000000000E+00 0.  1.
         11    1    4    4    0    0 -0.35517126067E+02  0.30392720683E+02  0.13646591011E+03  0.14425022820E+03  0.00000000000E+00 0. -1.
</event>
<event>
 8    1  0.6965441E-009  0.9500343E+02  0.7561462E-02  0.1291168E+00
         -1   -1    0    0    0  501 -0.00000000000E+00  0.00000000000E+00  0.10110612134E+03  0.10110612134E+03  0.00000000000E+00 0.  1.
          1   -1    0    0  501    0  0.00000000000E+00 -0.00000000000E+00 -0.16183597472E+03  0.16183597472E+03  0.00000000000E+00 0. -1.
         25    2    1    2    0    0  0.45954469287E+02  0.48292249776E+02 -0.15476877430E+02  0.14258752334E+03  0.12509082077E+03 0.  0.
         23    2    1    2    0    0 -0.45954469287E+02 -0.48292249776E+02 -0.45252975954E+02  0.12035457272E+03  0.89406021643E+02 0.  0.
          5    1    3    3  502    0 -0.33410242880E+02  0.11605302071E+02  0.27572595922E+02  0.45040513000E+02  0.41800000000E+01 0. -1.
         -5    1    3    3    0  502  0.79364712167E+02  0.36686947705E+02 -0.43049473353E+02  0.97547010335E+02  0.41800000000E+01 0. -1.
        -11    1    4    4    0    0 -0.11177234463E+02 -0.15073589733E+02  0.27409640842E+02  0.33217948292E+02  0.00000000000E+00 0.  1.
         11    1    4    4    0    0 -0.34777234825E+02 -0.33218660043E+02 -0.72662616795E+02  0.87136624428E+02  0.00000000000E+00 0. -1.
</event>
<event>
 8    1  0.6965441E-009  0.1850198E+03  0.7561462E-02  0.1163031E+00
          2   -1    0    0  501    0  0.00000000000E+00  0.00000000000E+00  0.12756337666E+03  0.12756337666E+03  0.00000000000E+00 0. -1.
         -2   -1    0    0    0  501 -0.00000000000E+00 -0.00000000000E+00 -0.28827055808E+03  0.28827055808E+03  0.00000000000E+00 0.  1.
         25    2    1    2    0    0  0.15184788961E+03  0.24430311210E+02 -0.12381678844E+03  0.23373625861E+03  0.12508964707E+03 0.  0.
         23    2    1    2    0    0 -0.15184788961E+03 -0.24430311210E+02 -0.36890392987E+02  0.18209767613E+03  0.90244339826E+02 0.  0.
          5    1    3    3  502    0  0.35738217500E+02 -0.46455932952E+02 -0.57967231404E+02  0.82541178894E+02  0.41800000000E+01 0. -1.
         -5    1    3    3    0  502  0.11610967211E+03  0.70886244162E+02 -0.65849557037E+02  0.15119507972E+03  0.41800000000E+01 0. -1.
        -11    1    4    4    0    0 -0.35236858773E+02 -0.44593593204E+02  0.37852000797E+01  0.56960973575E+02  0.00000000000E+00 0. -1.
         11    1    4    4    0    0 -0.11661103084E+03  0.20163281993E+02 -0.40675593067E+02  0.12513670255E+03  0.00000000000E+00 0.  1.
</event>
<event>
 7    1  0.6965441E-009  0.1049568E+03  0.7561462E-02  0.1270205E+00
         -2   -1    0    0    0  501 -0.00000000000E+00  0.00000000000E+00  0.10773326347E+02  0.10773326347E+02  0.00000000000E+00 0.  1.
          2   -1    0    0  501    0  0.00000000000E+00 -0.00000000000E+00 -0.11073575296E+04  0.11073575296E+04  0.00000000000E+00 0. -1.
         23    2    1    2    0    0 -0.72819534506E+01  0.98301840958E+01 -0.47451987659E+03  0.48355893597E+03  0.92252219023E+02 0.  0.
          5    1    1    2  502    0 -0.15349795712E+02 -0.60364588078E+02 -0.43447150440E+03  0.43893332097E+03  0.41800000000E+01 0.  1.
         -5    1    1    2    0  502  0.22631749163E+02  0.50534403983E+02 -0.18759282229E+03  0.19563859903E+03  0.41800000000E+01 0.  1.
        -11    1    3    3    0    0 -0.35530785711E+02  0.38029332274E+02 -0.30457256442E+03  0.30898723897E+03  0.00000000000E+00 0. -1.
         11    1    3    3    0    0  0.28248832261E+02 -0.28199148178E+02 -0.16994731217E+03  0.17457169700E+03  0.00000000000E+00 0.  1.
</event>
<event>
 8    1  0.6965441E-009  0.1136155E+03  0.7561462E-02  0.1254017E+00
         -1   -1    0    0    0  501 -0.00000000000E+00  0.00000000000E+00  0.88343948305E+02  0.88343948305E+02  0.00000000000E+00 0.  1.
          1   -1    0    0  501    0  0.00000000000E+00 -0.00000000000E+00 -0.25861531181E+03  0.25861531181E+03  0.00000000000E+00 0. -1.
         25    2    1    2    0    0 -0.10372377918E+02 -0.10313586814E+03 -0.11807839113E+03  0.20082512550E+03  0.12507450204E+03 0.  0.
         23    2    1    2    0    0  0.10372377918E+02  0.10313586814E+03 -0.52192972373E+02  0.14613413462E+03  0.88805886146E+02 0.  0.
          5    1    3    3  502    0  0.76728575208E+01 -0.38529599594E+02 -0.12702126246E+03  0.13302359303E+03  0.41800000000E+01 0.  1.
         -5    1    3    3    0  502 -0.18045235439E+02 -0.64606268545E+02  0.89428713244E+01  0.67801532467E+02  0.41800000000E+01 0.  1.
        -11    1    4    4    0    0 -0.19678542857E+02  0.80557108138E+02 -0.13898241458E+01  0.82937472421E+02  0.00000000000E+00 0.  1.
         11    1    4    4    0    0  0.30050920775E+02  0.22578760002E+02 -0.50803148228E+02  0.63196662194E+02  0.00000000000E+00 0. -1.
</event>
<event>
 8    1  0.6965441E-009  0.1444488E+03  0.7561462E-02  0.1207465E+00
          3   -1    0    0  501    0  0.00000000000E+00  0.00000000000E+00  0.39117865277E+03  0.39117865277E+03  0.00000000000E+00 0. -1.
         -3   -1    0    0    0  501 -0.00000000000E+00 -0.00000000000E+00 -0.63150549511E+02  0.63150549511E+02  0.00000000000E+00 0.  1.
         25    2    1    2    0    0 -0.91669047817E+02  0.65882947530E+02  0.16529309972E+03  0.23603786149E+03  0.12509310988E+03 0.  0.
         23    2    1    2    0    0  0.91669047817E+02 -0.65882947530E+02  0.16273500354E+03  0.21829134079E+03  0.91785897524E+02 0.  0.
          5    1    3    3  502    0  0.13647757006E+02  0.60012151344E+02  0.47430866643E+02  0.77813103593E+02  0.41800000000E+01 0. -1.
         -5    1    3    3    0  502 -0.10531680482E+03  0.58707961855E+01  0.11786223308E+03  0.15822475790E+03  0.41800000000E+01 0. -1.
        -11    1    4    4    0    0  0.22830838213E+02  0.44204525040E+01 -0.50381160679E+01  0.23794330992E+02  0.00000000000E+00 0.  1.
         11    1    4    4    0    0  0.68838209603E+02 -0.70303400034E+02  0.16777311961E+03  0.19449700980E+03  0.00000000000E+00 0. -1.
</event>
<event>
 8    1  0.6965441E-009  0.1506218E+03  0.7561462E-02  0.1199711E+00
          1   -1    0    0  501    0  0.00000000000E+00  0.00000000000E+00  0.19335106302E+02  0.19335106302E+02  0.00000000000E+00 0. -1.
         -1   -1    0    0    0  501 -0.00000000000E+00 -0.00000000000E+00 -0.13287664815E+04  0.13287664815E+04  0.00000000000E+00 0.  1.
         25    2    1    2    0    0 -0.58331962447E+02 -0.10239829028E+03 -0.75530969476E+03  0.77461488507E+03  0.12508979769E+03 0.  0.
         23    2    1    2    0    0  0.58331962447E+02  0.10239829028E+03 -0.55412168049E+03  0.57348670278E+03  0.89152306650E+02 0.  0.
          5    1    3    3  502    0 -0.78189242985E+02 -0.11155981744E+03 -0.49708072774E+03  0.51542785419E+03  0.41800000000E+01 0.  1.
         -5    1    3    3    0  502  0.19857280538E+02  0.91615271612E+01 -0.25822896701E+03  0.25918703088E+03  0.41800000000E+01 0.  1.
        -11    1    4    4    0    0  0.63508811372E+02  0.30242932794E+02 -0.19885460947E+03  0.21092927681E+03  0.00000000000E+00 0.  1.
         11    1    4    4    0    0 -0.51768489257E+01  0.72155357484E+02 -0.35526707101E+03  0.36255742597E+03  0.00000000000E+00 0. -1.
</event>
<event>
 8    1  0.6965441E-009  0.1966819E+03  0.7561462E-02  0.1152569E+00
         -1   -1    0    0    0  501 -0.00000000000E+00  0.00000000000E+00  0.23474808095E+03  0.23474808095E+03  0.00000000000E+00 0.  1.
          1   -1    0    0  501    0  0.00000000000E+00 -0.00000000000E+00 -0.20488161596E+03  0.20488161596E+03  0.00000000000E+00 0. -1.
         25    2    1    2    0    0 -0.10376284953E+03  0.14400523191E+03 -0.50223485841E+02  0.22286726384E+03  0.12507271086E+03 0.  0.
         23    2    1    2    0    0  0.10376284953E+03 -0.14400523191E+03  0.80089950830E+02  0.21676243307E+03  0.95222457469E+02 0.  0.
          5    1    3    3  502    0 -0.10519478469E+03  0.92184588180E+02  0.13535355043E+02  0.14058669660E+03  0.41800000000E+01 0. -1.
         -5    1    3    3    0  502  0.14319351614E+01  0.51820643735E+02 -0.63758840884E+02  0.82280567245E+02  0.41800000000E+01 0. -1.
        -11    1    4    4    0    0  0.49516157761E+01 -0.87410301783E+02  0.34310964550E+02  0.94033619759E+02  0.00000000000E+00 0. -1.
         11    1    4    4    0    0  0.98811233756E+02 -0.56594930131E+02  0.45778986280E+02  0.12272881331E+03  0.00000000000E+00 0.  1.
</event>
<event>
 8    1  0.6965441E-009  0.1295271E+03  0.7561462E-02  0.1228159E+00
          1   -1    0    0  501    0  0.00000000000E+00  0.00000000000E+00  0.54788311238E+03  0.54788311238E+03  0.00000000000E+00 0. -1.
         -1   -1    0    0    0  501 -0.00000000000E+00 -0.00000000000E+00 -0.47185202577E+02  0.47185202577E+02  0.00000000000E+00 0.  1.
         25    2    1    2    0    0  0.45598596473E+02 -0.75007183002E+02  0.41441058399E+03  0.44168959357E+03  0.12509298718E+03 0.  0.
         23    2    1    2    0    0 -0.45598596473E+02  0.75007183002E+02  0.86287325819E+02  0.15337872139E+03  0.91510764816E+02 0.  0.
          5    1    3    3  502    0  0.77343452859E+02 -0.42134656054E+02  0.15563960732E+03  0.17888124191E+03  0.41800000000E+01 0.  1.
         -5    1    3    3    0  502 -0.31744856386E+02 -0.32872526948E+02  0.25877097667E+03  0.26280835165E+03  0.41800000000E+01 0.  1.
        -11    1    4    4    0    0 -0.67705636431E+02  0.28428872413E+02  0.37745000164E+02  0.82564756577E+02  0.00000000000E+00 0.  1.
         11    1    4    4    0    0  0.22107039958E+02  0.46578310589E+02  0.48542325655E+02  0.70813964817E+02  0.00000000000E+00 0. -1.
</event>
<event>
 8    1  0.6965441E-009  0.7981700E+02  0.7561462E-02  0.1329572E+00
          1   -1    0    0  501    0  0.00000000000E+00  0.00000000000E+00  0.18121978404E+03  0.18121978404E+03  0.00000000000E+00 0. -1.
         -1   -1    0    0    0  501 -0.00000000000E+00 -0.00000000000E+00 -0.78209358314E+02  0.78209358314E+02  0.00000000000E+00 0.  1.
         25    2    1    2    0    0  0.20342102652E+02 -0.74176956767E+01  0.10593619981E+02  0.12739136564E+03  0.12509001521E+03 0.  0.
         23    2    1    2    0    0 -0.20342102652E+02  0.74176956767E+01  0.92416805743E+02  0.13203777671E+03  0.91783904614E+02 0.  0.
          5    1    3    3  502    0 -0.27587785861E+02 -0.39515043887E+02 -0.29827618720E+02  0.56830307589E+02  0.41800000000E+01 0.  1.
         -5    1    3    3    0  502  0.47929888513E+02  0.32097348210E+02  0.40421238701E+02  0.70561058050E+02  0.41800000000E+01 0.  1.
        -11    1    4    4    0    0 -0.36466938861E+02  0.78148491749E+01 -0.93115951312E+00  0.37306521622E+02  0.00000000000E+00 0.  1.
         11    1    4    4    0    0  0.16124836209E+02 -0.39715349821E+00  0.93347965256E+02  0.94731255091E+02  0.00000000000E+00 0. -1.
</event>
<event>
 8    1  0.6965441E-009  0.1311332E+03  0.7561462E-02  0.1225784E+00
         -1   -1    0    0    0  501 -0.00000000000E+00  0.00000000000E+00  0.99207225964E+02  0.99207225964E+02  0.00000000000E+00 0.  1.
          1   -1    0    0  501    0  0.00000000000E+00 -0.00000000000E+00 -0.22270138424E+03  0.22270138424E+03  0.00000000000E+00 0. -1.
         25    2    1    2    0    0 -0.71202089202E+02  0.68692435041E+02 -0.48273126675E+02  0.16664800625E+03  0.12511145067E+03 0.  0.
         23    2    1    2    0    0  0.71202089202E+02 -0.68692435041E+02 -0.75221031601E+02  0.15526060396E+03  0.93055163246E+02 0.  0.
          5    1    3    3  502    0 -0.48893127997E+01 -0.33308232652E+02 -0.26353005440E+02  0.42956920720E+02  0.41800000000E+01 0. -1.
         -5    1    3    3    0  502 -0.66312776403E+02  0.10200066769E+03 -0.21920121235E+02  0.12369108553E+03  0.41800000000E+01 0. -1.
        -11    1    4    4    0    0  0.12748214630E+02 -0.39031769471E+02 -0.79599448738E+02  0.89565999373E+02  0.00000000000E+00 0. -1.
         11    1    4    4    0    0  0.58453874572E+02 -0.29660665570E+02  0.43784171373E+01  0.65694604582E+02  0.00000000000E+00 0.  1.
</event>
<event>
 8    1  0.6965441E-009  0.9541287E+02  0.7561462E-02  0.1290249E+00
         -3   -1    0    0    0  501 -0.00000000000E+00  0.00000000000E+00  0.26805921357E+02  0.26805921357E+02  0.00000000000E+00 0.  1.
          3   -1    0    0  501    0  0.00000000000E+00 -0.00000000000E+00 -0.47577957802E+03  0.47577957802E+03  0.00000000000E+00 0. -1.
         25    2    1    2    0    0 -0.29172034807E+02 -0.61559264883E+01 -0.28073895747E+03  0.30878965920E+03  0.12509112016E+03 0.  0.
         23    2    1    2    0    0  0.29172034807E+02  0.61559264883E+01 -0.16823469919E+03  0.19379584017E+03  0.91460431940E+02 0.  0.
          5    1    3    3  502    0  0.28563420533E+02 -0.24929624319E+02 -0.21827577087E+03  0.22158325683E+03  0.41800000000E+01 0. -1.
         -5    1    3    3    0  502 -0.57735455339E+02  0.18773697830E+02 -0.62463186604E+02  0.87206402369E+02  0.41800000000E+01 0. -1.
        -11    1    4    4    0    0 -0.24590753979E+02 -0.20320345512E+02 -0.33105376723E+02  0.45973770685E+02  0.00000000000E+00 0.  1.
         11    1    4    4    0    0  0.53762788786E+02  0.26476272000E+02 -0.13512932247E+03  0.14782206949E+03  0.00000000000E+00 0. -1.
</event>
<event>
 8    1  0.6965441E-009  0.1175723E+03  0.7561462E-02  0.1247157E+00
          3   -1    0    0  501    0  0.00000000000E+00  0.00000000000E+00  0.76376759499E+02  0.76376759499E+02  0.00000000000E+00 0. -1.
         -3   -1    0    0    0  501 -0.00000000000E+00 -0.00000000000E+00 -0.24037547026E+03  0.24037547026E+03  0.00000000000E+00 0.  1.
         25    2    1    2    0    0  0.60808369084E+01  0.60838539219E+02 -0.15236955355E+03  0.20640091502E+03  0.12508618005E+03 0.  0.
         23    2    1    2    0    0 -0.60808369084E+01 -0.60838539219E+02 -0.11629157211E+02  0.11035131474E+03  0.91125577835E+02 0.  0.
          5    1    3    3  502    0  0.60906226965E+02  0.45356793740E+02 -0.11591160519E+03  0.13863542058E+03  0.41800000000E+01 0.  1.
         -5    1    3    3    0  502 -0.54825390056E+02  0.15481745479E+02 -0.36457948362E+02  0.67765494440E+02  0.41800000000E+01 0.  1.
        -11    1    4    4    0    0  0.24949040589E+02  0.82116017577E+01  0.14824565518E+02  0.30160450469E+02  0.00000000000E+00 0. -1.
         11    1    4    4    0    0 -0.31029877497E+02 -0.69050140977E+02 -0.26453722728E+02  0.80190864271E+02  0.00000000000E+00 0.  1.
</event>
<event>
 8    1  0.6965441E-009  0.1544926E+03  0.7561462E-02  0.1195059E+00
         -2   -1    0    0    0  501 -0.00000000000E+00  0.00000000000E+00  0.26953360776E+02  0.26953360776E+02  0.00000000000E+00 0.  1.
          2   -1    0    0  501    0  0.00000000000E+00 -0.00000000000E+00 -0.11406652455E+04  0.11406652455E+04  0.00000000000E+00 0. -1.
         25    2    1    2    0    0  0.85078208120E+02 -0.92712154958E+02 -0.77713667192E+03  0.79713442565E+03  0.12509212818E+03 0.  0.
         23    2    1    2    0    0 -0.85078208120E+02  0.92712154958E+02 -0.33657521278E+03  0.37048418060E+03  0.90231973539E+02 0.  0.
          5    1    3    3  502    0  0.59933286577E+02  0.13304808665E+02 -0.18281987133E+03  0.19289788627E+03  0.41800000000E+01 0. -1.
         -5    1    3    3    0  502  0.25144921543E+02 -0.10601696362E+03 -0.59431680059E+03  0.60423653938E+03  0.41800000000E+01 0. -1.
        -11    1    4    4    0    0  0.87668457255E+01  0.10221597588E+02 -0.23527800125E+01  0.13670194403E+02  0.00000000000E+00 0.  1.
         11    1    4    4    0    0 -0.93845053845E+02  0.82490557370E+02 -0.33422243276E+03  0.35681398620E+03  0.00000000000E+00 0. -1.
</event>
<event>
 8    1  0.6965441E-009  0.1061062E+03  0.7561462E-02  0.1267955E+00
         -1   -1    0    0    0  501 -0.00000000000E+00  0.00000000000E+00  0.21405676421E+03  0.21405676421E+03  0.00000000000E+00 0.  1.
          1   -1    0    0  501    0  0.00000000000E+00 -0.00000000000E+00 -0.56743886856E+02  0.56743886856E+02  0.00000000000E+00 0. -1.
         25    2    1    2    0    0 -0.11793014025E+02 -0.29144835467E+01  0.72978816131E+02  0.14530053323E+03  0.12505505971E+03 0.  0.
         23    2    1    2    0    0  0.11793014025E+02  0.29144835467E+01  0.84334061228E+02  0.12550011784E+03  0.92143780590E+02 0.  0.
          5    1    3    3  502    0 -0.65640570346E+02  0.15855861865E+02  0.31317514480E+02  0.74554355634E+02  0.41800000000E+01 0.  1.
         -5    1    3    3    0  502  0.53847556321E+02 -0.18770345412E+02  0.41661301651E+02  0.70746177592E+02  0.41800000000E+01 0.  1.
        -11    1    4    4    0    0  0.16143199427E+02  0.43582627360E+02  0.23197305618E+02  0.51943847406E+02  0.00000000000E+00 0. -1.
         11    1    4    4    0    0 -0.43501854016E+01 -0.40668143814E+02  0.61136755609E+02  0.73556270438E+02  0.00000000000E+00 0.  1.
</event>
<event>
 8    1  0.6965441E-009  0.1103958E+03  0.7561462E-02  0.1259839E+00
         -1   -1    0    0    0  501 -0.00000000000E+00  0.00000000000E+00  0.14966666596E+03  0.14966666596E+03  0.00000000000E+00 0.  1.
          1   -1    0    0  501    0  0.00000000000E+00 -0.00000000000E+00 -0.14357765717E+03  0.14357765717E+03  0.00000000000E+00 0. -1.
         25    2    1    2    0    0  0.29478831224E+02  0.56402406667E+02 -0.70724951402E+02  0.15716556979E+03  0.12509502232E+03 0.  0.
         23    2    1    2    0    0 -0.29478831224E+02 -0.56402406667E+02  0.76813960187E+02  0.13607875333E+03  0.92557061650E+02 0.  0.
          5    1    3    3  502    0  0.31837801632E+02  0.93752314011E+02 -0.66339308207E+02  0.11925400710E+03  0.41800000000E+01 0.  1.
         -5    1    3    3    0  502 -0.23589704079E+01 -0.37349907344E+02 -0.43856431943E+01  0.37911562698E+02  0.41800000000E+01 0.  1.
        -11    1    4    4    0    0 -0.40791805355E+02 -0.19074962132E+02 -0.51329085606E+01  0.45322977779E+02  0.00000000000E+00 0. -1.
         11    1    4    4    0    0  0.11312974131E+02 -0.37327444535E+02  0.81946868748E+02  0.90755775556E+02  0.00000000000E+00 0.  1.
</event>
<event>
 8    1  0.6965441E-009  0.1181893E+03  0.7561462E-02  0.1246114E+00
          3   -1    0    0  501    0  0.00000000000E+00  0.00000000000E+00  0.23934625629E+03  0.23934625629E+03  0.00000000000E+00 0. -1.
         -3   -1    0    0    0  501 -0.00000000000E+00 -0.00000000000E+00 -0.71233556957E+02  0.71233556957E+02  0.00000000000E+00 0.  1.
         25    2    1    2    0    0  0.45129030126E+02 -0.40311841803E+02  0.14025781233E+03  0.19743035832E+03  0.12507924895E+03 0.  0.
         23    2    1    2    0    0 -0.45129030126E+02  0.40311841803E+02  0.27854887002E+02  0.11314945492E+03  0.91461633869E+02 0.  0.
          5    1    3    3  502    0 -0.11758169469E+02 -0.72076426776E+02  0.82520908048E+02  0.11027437831E+03  0.41800000000E+01 0. -1.
         -5    1    3    3    0  502  0.56887199595E+02  0.31764584974E+02  0.57736904281E+02  0.87155980015E+02  0.41800000000E+01 0. -1.
        -11    1    4    4    0    0 -0.63949623013E+02  0.13789041553E+02 -0.66224164001E+01  0.65753694569E+02  0.00000000000E+00 0.  1.
         11    1    4    4    0    0  0.18820592887E+02  0.26522800250E+02  0.34477303402E+02  0.47395760355E+02  0.00000000000E+00 0. -1.
</event>
<event>
 7    1  0.6965441E-009  0.2026012E+03  0.7561462E-02  0.1147563E+00
         -2   -1    0    0    0  501 -0.00000000000E+00  0.00000000000E+00  0.22371294696E+03  0.22371294696E+03  0.00000000000E+00 0.  1.
          2   -1    0    0  501    0  0.00000000000E+00 -0.00000000000E+00 -0.19664500215E+03  0.19664500215E+03  0.00000000000E+00 0. -1.
         23    2    1    2    0    0  0.74095475963E+01  0.17006155580E+03 -0.22632658231E+02  0.20342815662E+03  0.10906394240E+03 0.  0.
          5    1    1    2  502    0  0.36439173843E+02 -0.58393068622E+01 -0.68072564556E+01  0.37758734558E+02  0.41800000000E+01 0. -1.
         -5    1    1    2    0  502 -0.43848721439E+02 -0.16422224894E+03  0.56507859495E+02  0.17917105794E+03  0.41800000000E+01 0. -1.
        -11    1    3    3    0    0  0.44885207953E+02  0.32382139690E+02  0.11919059742E+02  0.56615800348E+02  0.00000000000E+00 0.  1.
         11    1    3    3    0    0 -0.37475660357E+02  0.13767941611E+03 -0.34551717973E+02  0.14681235627E+03  0.00000000000E+00 0. -1.
</event>
<event>
 8    1  0.6965441E-009  0.9668215E+02  0.7561462E-02  0.1287432E+00
         -2   -1    0    0    0  501 -0.00000000000E+00  0.00000000000E+00  0.11654271552E+03  0.11654271552E+03  0.00000000000E+00 0. -1.
          2   -1    0    0  501    0  0.00000000000E+00 -0.00000000000E+00 -0.12327728117E+03  0.12327728117E+03  0.00000000000E+00 0.  1.
         25    2    1    2    0    0  0.20194971151E+02 -0.97945558681E+01 -0.41445059893E+02  0.13367507003E+03  0.12509021215E+03 0.  0.
         23    2    1    2    0    0 -0.20194971151E+02  0.97945558681E+01  0.34710494247E+02  0.10614492665E+03  0.97765826641E+02 0.  0.
          5    1    3    3  502    0  0.52517280222E+02  0.18144446563E+02  0.19582883253E+02  0.59061386536E+02  0.41800000000E+01 0. -1.
         -5    1    3    3    0  502 -0.32322309071E+02 -0.27939002431E+02 -0.61027943146E+02  0.74613683498E+02  0.41800000000E+01 0. -1.
        -11    1    4    4    0    0 -0.39302121852E+02 -0.30745292016E+02  0.35637216796E+02  0.61318357644E+02  0.00000000000E+00 0. -1.
         11    1    4    4    0    0  0.19107150700E+02  0.40539847884E+02 -0.92672254881E+00  0.44826569008E+02  0.00000000000E+00 0.  1.
</event>
<event>
 8    1  0.6965441E-009  0.8883657E+02  0.7561462E-02  0.1305694E+00
         -1   -1    0    0    0  501 -0.00000000000E+00  0.00000000000E+00  0.56788509905E+02  0.56788509905E+02  0.00000000000E+00 0.  1.
          1   -1    0    0  501    0  0.00000000000E+00 -0.00000000000E+00 -0.31429256727E+03  0.31429256727E+03  0.00000000000E+00 0. -1.
         25    2    1    2    0    0  0.73993155404E+02 -0.36621826805E+02 -0.11817198655E+03  0.19086202677E+03  0.12509016593E+03 0.  0.
         23    2    1    2    0    0 -0.73993155404E+02  0.36621826805E+02 -0.13933207082E+03  0.18021905040E+03  0.79052735090E+02 0.  0.
          5    1    3    3  502    0  0.14640618830E+01  0.83951599708E+01  0.23534935166E+02  0.25376913945E+02  0.41800000000E+01 0. -1.
         -5    1    3    3    0  502  0.72529093521E+02 -0.45016986776E+02 -0.14170692171E+03  0.16548511282E+03  0.41800000000E+01 0. -1.
        -11    1    4    4    0    0 -0.25749006453E+02  0.10079141046E+02  0.28006997933E+01  0.27792882845E+02  0.00000000000E+00 0.  1.
         11    1    4    4    0    0 -0.48244148951E+02  0.26542685759E+02 -0.14213277061E+03  0.15242616756E+03  0.00000000000E+00 0. -1.
</event>
<event>
 8    1  0.6965441E-009  0.1262704E+03  0.7561462E-02  0.1233097E+00
          2   -1    0    0  501    0  0.00000000000E+00  0.00000000000E+00  0.10676640984E+04  0.10676640984E+04  0.00000000000E+00 0. -1.
         -2   -1    0    0    0  501 -0.00000000000E+00 -0.00000000000E+00 -0.15644387325E+02  0.15644387325E+02  0.00000000000E+00 0.  1.
         25    2    1    2    0    0 -0.33571795171E+02 -0.57511454044E+02  0.67483051073E+03  0.68954936395E+03  0.12508986504E+03 0.  0.
         23    2    1    2    0    0  0.33571795171E+02  0.57511454044E+02  0.37718920034E+03  0.39375912177E+03  0.91323164351E+02 0.  0.
          5    1    3    3  502    0 -0.80649254146E+02 -0.42184866227E+02  0.39802693369E+03  0.40832190423E+03  0.41800000000E+01 0. -1.
         -5    1    3    3    0  502  0.47077458975E+02 -0.15326587818E+02  0.27680357704E+03  0.28122745972E+03  0.41800000000E+01 0. -1.
        -11    1    4    4    0    0  0.12669058317E+01 -0.24015764932E+02  0.59172205068E+02  0.63872622212E+02  0.00000000000E+00 0.  1.
         11    1    4    4    0    0  0.32304889339E+02  0.81527218976E+02  0.31801699527E+03  0.32988649956E+03  0.00000000000E+00 0. -1.
</event>
<event>
 8    1  0.6965441E-009  0.1852711E+03  0.7561462E-02  0.1162797E+00
          1   -1    0    0  501    0  0.00000000000E+00  0.00000000000E+00  0.25905125663E+03  0.25905125663E+03  0.00000000000E+00 0. -1.
         -1   -1    0    0    0  501 -0.00000000000E+00 -0.00000000000E+00 -0.29624470814E+03  0.29624470814E+03  0.00000000000E+00 0.  1.
         25    2    1    2    0    0  0.83199998950E+02  0.13986508737E+03  0.17680016819E+03  0.27091224064E+03  0.12510259857E+03 0.  0.
         23    2    1    2    0    0 -0.83199998950E+02 -0.13986508737E+03 -0.21399361969E+03  0.28438372413E+03  0.92716507637E+02 0.  0.
          5    1    3    3  502    0  0.10719125738E+02 -0.10937932124E+02 -0.11030995689E+02  0.19331147964E+02  0.41800000000E+01 0.  1.
         -5    1    3    3    0  502  0.72480873212E+02  0.15080301949E+03  0.18783116388E+03  0.25158109268E+03  0.41800000000E+01 0.  1.
        -11    1    4    4    0    0 -0.55362626464E+02 -0.12275950700E+02 -0.65185896499E+02  0.86399771278E+02  0.00000000000E+00 0.  1.
         11    1    4    4    0    0 -0.27837372486E+02 -0.12758913667E+03 -0.14880772319E+03  0.19798395285E+03  0.00000000000E+00 0. -1.
</event>
<event>
 8    1  0.6965441E-009  0.3111668E+03  0.7561462E-02  0.1079788E+00
          1   -1    0    0  501    0  0.00000000000E+00  0.00000000000E+00  0.48086613761E+02  0.48086613761E+02  0.00000000000E+00 0. -1.
         -1   -1    0    0    0  501 -0.00000000000E+00 -0.00000000000E+00 -0.27073104211E+04  0.27073104211E+04  0.00000000000E+00 0.  1.
         25    2    1    2    0    0 -0.14573440815E+03  0.26018781231E+03 -0.20006251034E+04  0.20265927983E+04  0.12506538476E+03 0.  0.
         23    2    1    2    0    0  0.14573440815E+03 -0.26018781231E+03 -0.65859870393E+03  0.72880423653E+03  0.92017101515E+02 0.  0.
          5    1    3    3  502    0 -0.28984439965E+02 -0.73669699865E+01 -0.14169464820E+03  0.14487655343E+03  0.41800000000E+01 0.  1.
         -5    1    3    3    0  502 -0.11674996819E+03  0.26755478230E+03 -0.18589304552E+04  0.18817162449E+04  0.41800000000E+01 0.  1.
        -11    1    4    4    0    0  0.42738576657E+02 -0.11061571636E+03 -0.16770559550E+03  0.20539617670E+03  0.00000000000E+00 0.  1.
         11    1    4    4    0    0  0.10299583149E+03 -0.14957209595E+03 -0.49089310843E+03  0.52340805983E+03  0.00000000000E+00 0. -1.
</event>
<event>
 8    1  0.6965441E-009  0.1091354E+03  0.7561462E-02  0.1262179E+00
          2   -1    0    0  501    0  0.00000000000E+00  0.00000000000E+00  0.37409593720E+02  0.37409593720E+02  0.00000000000E+00 0.  1.
         -2   -1    0    0    0  501 -0.00000000000E+00 -0.00000000000E+00 -0.42948657378E+03  0.42948657378E+03  0.00000000000E+00 0. -1.
         25    2    1    2    0    0  0.17683742504E+02  0.42010016336E+02 -0.13321182250E+03  0.18833607773E+03  0.12509009672E+03 0.  0.
         23    2    1    2    0    0 -0.17683742504E+02 -0.42010016336E+02 -0.25886515756E+03  0.27856008977E+03  0.92233386549E+02 0.  0.
          5    1    3    3  502    0  0.63967224071E+02 -0.30831865453E+01 -0.89804587078E+02  0.11037956357E+03  0.41800000000E+01 0.  1.
         -5    1    3    3    0  502 -0.46283481567E+02  0.45093202882E+02 -0.43407235423E+02  0.77956514155E+02  0.41800000000E+01 0.  1.
        -11    1    4    4    0    0 -0.47985999422E+02 -0.30851458103E+02 -0.89437801698E+02  0.10608293444E+03  0.00000000000E+00 0. -1.
         11    1    4    4    0    0  0.30302256918E+02 -0.11158558234E+02 -0.16942735586E+03  0.17247715533E+03  0.00000000000E+00 0.  1.
</event>
<event>
 8    1  0.6965441E-009  0.1068449E+03  0.7561462E-02  0.1266527E+00
          4   -1    0    0  501    0  0.00000000000E+00  0.00000000000E+00  0.10314225140E+03  0.10314225140E+03  0.00000000000E+00 0.  1.
         -4   -1    0    0    0  501 -0.00000000000E+00 -0.00000000000E+00 -0.17160487511E+03  0.17160487511E+03  0.00000000000E+00 0. -1.
         25    2    1    2    0    0 -0.62702589612E+02  0.34428360259E+02 -0.76448095661E+02  0.16312108883E+03  0.12508897456E+03 0.  0.
         23    2    1    2    0    0  0.62702589612E+02 -0.34428360259E+02  0.79854719438E+01  0.11162603768E+03  0.85321027844E+02 0.  0.
          5    1    3    3  502    0 -0.71859305342E+02  0.61630318974E+02 -0.16036869572E+02  0.96107801800E+02  0.41800000000E+01 0.  1.
         -5    1    3    3    0  502  0.91567157303E+01 -0.27201958715E+02 -0.60411226090E+02  0.67013287030E+02  0.41800000000E+01 0.  1.
        -11    1    4    4    0    0 -0.30124409192E+01 -0.23032936176E+02  0.33032401157E+02  0.40382303988E+02  0.00000000000E+00 0.  1.
         11    1    4    4    0    0  0.65715030531E+02 -0.11395424084E+02 -0.25046929213E+02  0.71243733695E+02  0.00000000000E+00 0. -1.
</event>
<event>
 8    1  0.6965441E-009  0.9332740E+02  0.7561462E-02  0.1294988E+00
          3   -1    0    0  501    0  0.00000000000E+00  0.00000000000E+00  0.17984481122E+03  0.17984481122E+03  0.00000000000E+00 0. -1.
         -3   -1    0    0    0  501 -0.00000000000E+00 -0.00000000000E+00 -0.65429780097E+02  0.65429780097E+02  0.00000000000E+00 0.  1.
         25    2    1    2    0    0 -0.12401232892E+01  0.63514275613E+00  0.91002933153E+02  0.15469564752E+03  0.12508904111E+03 0.  0.
         23    2    1    2    0    0  0.12401232892E+01 -0.63514275613E+00  0.23412097966E+02  0.90578943797E+02  0.87489870363E+02 0.  0.
          5    1    3    3  502    0  0.18475056821E+02  0.59500045416E+02  0.39136761501E+02  0.73693565729E+02  0.41800000000E+01 0. -1.
         -5    1    3    3    0  502 -0.19715180111E+02 -0.58864902660E+02  0.51866171652E+02  0.81002081787E+02  0.41800000000E+01 0. -1.
        -11    1    4    4    0    0  0.10852940769E+02 -0.29572375245E+02 -0.20158165287E+02  0.37398707581E+02  0.00000000000E+00 0.  1.
         11    1    4    4    0    0 -0.96128174801E+01  0.28937232489E+02  0.43570263253E+02  0.53180236216E+02  0.00000000000E+00 0. -1.
</event>
<event>
 8    1  0.6965441E-009  0.1201340E+03  0.7561462E-02  0.1242876E+00
         -2   -1    0    0    0  501 -0.00000000000E+00  0.00000000000E+00  0.29717853063E+03  0.29717853063E+03  0.00000000000E+00 0.  1.
          2   -1    0    0  501    0  0.00000000000E+00 -0.00000000000E+00 -0.66186204264E+02  0.66186204264E+02  0.00000000000E+00 0. -1.
         25    2    1    2    0    0  0.76967784044E+02 -0.10966705405E+02  0.18497558976E+03  0.23644973045E+03  0.12509275685E+03 0.  0.
         23    2    1    2    0    0 -0.76967784044E+02  0.10966705405E+02  0.46016736601E+02  0.12691500444E+03  0.89137926252E+02 0.  0.
          5    1    3    3  502    0  0.22475230805E+02  0.41425418428E+02  0.14137744892E+03  0.14908473012E+03  0.41800000000E+01 0.  1.
         -5    1    3    3    0  502  0.54492553239E+02 -0.52392123833E+02  0.43598140841E+02  0.87365000332E+02  0.41800000000E+01 0.  1.
        -11    1    4    4    0    0  0.98574283446E+01  0.27185338426E+02  0.18794042885E+02  0.34488078620E+02  0.00000000000E+00 0.  1.
         11    1    4    4    0    0 -0.86825212388E+02 -0.16218633021E+02  0.27222693716E+02  0.92426925820E+02  0.00000000000E+00 0. -1.
</event>
<event>
 8    1  0.6965441E-009  0.1374582E+03  0.7561462E-02  0.1216791E+00
          2   -1    0    0  501    0  0.00000000000E+00  0.00000000000E+00  0.26711245468E+03  0.26711245468E+03  0.00000000000E+00 0. -1.
         -2   -1    0    0    0  501 -0.00000000000E+00 -0.00000000000E+00 -0.11314362122E+03  0.11314362122E+03  0.00000000000E+00 0.  1.
         25    2    1    2    0    0 -0.43221959572E+02 -0.12024581043E+03  0.29154818829E+02  0.18117713142E+03  0.12509179339E+03 0.  0.
         23    2    1    2    0    0  0.43221959572E+02  0.12024581043E+03  0.12481401463E+03  0.19907894448E+03  0.87901622127E+02 0.  0.
          5    1    3    3  502    0 -0.47532155840E+02 -0.10869372022E+03 -0.28492831994E+02  0.12207761682E+03  0.41800000000E+01 0. -1.
         -5    1    3    3    0  502  0.43101962684E+01 -0.11552090212E+02  0.57647650823E+02  0.59099514597E+02  0.41800000000E+01 0. -1.
        -11    1    4    4    0    0  0.56547967836E+02  0.64065450438E+02  0.35077184974E+02  0.92371334904E+02  0.00000000000E+00 0.  1.
         11    1    4    4    0    0 -0.13326008264E+02  0.56180359991E+02  0.89736829656E+02  0.10670760958E+03  0.00000000000E+00 0. -1.
</event>
<event>
 7    1  0.6965441E-009  0.1968212E+03  0.7561462E-02  0.1152449E+00
         -2   -1    0    0    0  501 -0.00000000000E+00  0.00000000000E+00  0.16297515940E+03  0.16297515940E+03  0.00000000000E+00 0.  1.
          2   -1    0    0  501    0  0.00000000000E+00 -0.00000000000E+00 -0.38368343580E+03  0.38368343580E+03  0.00000000000E+00 0. -1.
         23    2    1    2    0    0 -0.80072682551E+01  0.16508652149E+03  0.59231645397E+02  0.19830987473E+03  0.92199472215E+02 0.  0.
          5    1    1    2  502    0 -0.14078932684E+02  0.17085745790E+02 -0.43850307249E+02  0.49299704873E+02  0.41800000000E+01 0.  1.
         -5    1    1    2    0  502  0.22086200939E+02 -0.18217226728E+03 -0.23608961454E+03  0.29904901560E+03  0.41800000000E+01 0.  1.
        -11    1    3    3    0    0  0.39844394601E+02  0.91278273842E+02  0.44651692185E+02  0.10914702319E+03  0.00000000000E+00 0.  1.
         11    1    3    3    0    0 -0.47851662856E+02  0.73808247645E+02  0.14579953213E+02  0.89162851537E+02  0.00000000000E+00 0. -1.
</event>
<event>
 8    1  0.6965441E-009  0.1136655E+03  0.7561462E-02  0.1253929E+00
          2   -1    0    0  501    0  0.00000000000E+00  0.00000000000E+00  0.30380268318E+03  0.30380268318E+03  0.00000000000E+00 0. -1.
         -2   -1    0    0    0  501 -0.00000000000E+00 -0.00000000000E+00 -0.46216934445E+02  0.46216934445E+02  0.00000000000E+00 0.  1.
         25    2    1    2    0    0 -0.40466743964E+02  0.17371788391E+02  0.12588551382E+03  0.18285417741E+03  0.12509656753E+03 0.  0.
         23    2    1    2    0    0  0.40466743964E+02 -0.17371788391E+02  0.13170023491E+03  0.16716544021E+03  0.93059100179E+02 0.  0.
          5    1    3    3  502    0 -0.67933313437E+02 -0.32478415499E+02  0.67507267146E+02  0.10121504861E+03  0.41800000000E+01 0.  1.
         -5    1    3    3    0  502  0.27466569473E+02  0.49850203890E+02  0.58378246674E+02  0.81639128800E+02  0.41800000000E+01 0.  1.
        -11    1    4    4    0    0 -0.26380115089E+02 -0.41190076049E+01  0.71182814614E+02  0.76025454896E+02  0.00000000000E+00 0. -1.
         11    1    4    4    0    0  0.66846859053E+02 -0.13252780787E+02  0.60517420301E+02  0.91139985317E+02  0.00000000000E+00 0.  1.
</event>
<event>
 8    1  0.6965441E-009  0.1627920E+03  0.7561462E-02  0.1185580E+00
         -1   -1    0    0    0  501 -0.00000000000E+00  0.00000000000E+00  0.30372730609E+02  0.30372730609E+02  0.00000000000E+00 0.  1.
          1   -1    0    0  501    0  0.00000000000E+00 -0.00000000000E+00 -0.92135689415E+03  0.92135689415E+03  0.00000000000E+00 0. -1.
         25    2    1    2    0    0  0.10307408492E+03  0.73672175166E+02 -0.48635565393E+03  0.51792075888E+03  0.12509290147E+03 0.  0.
         23    2    1    2    0    0 -0.10307408492E+03 -0.73672175166E+02 -0.40462850962E+03  0.43380886588E+03  0.91728103360E+02 0.  0.
          5    1    3    3  502    0 -0.25017961378E+02  0.47652628801E+01 -0.33668664604E+02  0.42422370255E+02  0.41800000000E+01 0.  1.
         -5    1    3    3    0  502  0.12809204629E+03  0.68906912286E+02 -0.45268698932E+03  0.47549838863E+03  0.41800000000E+01 0.  1.
        -11    1    4    4    0    0 -0.11756839196E+03 -0.52864206286E+02 -0.30754128924E+03  0.33346453437E+03  0.00000000000E+00 0.  1.
         11    1    4    4    0    0  0.14494307047E+02 -0.20807968880E+02 -0.97087220376E+02  0.10034433151E+03  0.00000000000E+00 0. -1.
</event>
<event>
 8    1  0.6965441E-009  0.1163514E+03  0.7561462E-02  0.1249240E+00
          2   -1    0    0  501    0  0.00000000000E+00  0.00000000000E+00  0.36150908098E+03  0.36150908098E+03  0.00000000000E+00 0. -1.
         -2   -1    0    0    0  501 -0.00000000000E+00 -0.00000000000E+00 -0.46167163897E+02  0.46167163897E+02  0.00000000000E+00 0.  1.
         25    2    1    2    0    0 -0.65209849737E+02  0.18102555714E+02  0.20813816702E+03  0.25209480695E+03  0.12510103155E+03 0.  0.
         23    2    1    2    0    0  0.65209849737E+02 -0.18102555714E+02  0.10720375006E+03  0.15558143793E+03  0.90182663376E+02 0.  0.
          5    1    3    3  502    0 -0.98199808760E+02  0.30996146330E+02  0.12766750867E+03  0.16407446083E+03  0.41800000000E+01 0. -1.
         -5    1    3    3    0  502  0.32989959023E+02 -0.12893590616E+02  0.80470658348E+02  0.88020346116E+02  0.41800000000E+01 0. -1.
        -11    1    4    4    0    0  0.45020423376E+01 -0.31490006294E+02  0.17789210254E+00  0.31810698313E+02  0.00000000000E+00 0.  1.
         11    1    4    4    0    0  0.60707807399E+02  0.13387450579E+02  0.10702585796E+03  0.12377073961E+03  0.00000000000E+00 0. -1.
</event>
<event>
 8    1  0.6965441E-009  0.1107099E+03  0.7561462E-02  0.1259261E+00
         -2   -1    0    0    0  501 -0.00000000000E+00  0.00000000000E+00  0.43846421227E+02  0.43846421227E+02  0.00000000000E+00 0.  1.
          2   -1    0    0  501    0  0.00000000000E+00 -0.00000000000E+00 -0.77563191000E+03  0.77563191000E+03  0.00000000000E+00 0. -1.
         25    2    1    2    0    0 -0.34617371735E+02 -0.10404256589E+03 -0.60380499509E+03  0.62630122291E+03  0.12509808860E+03 0.  0.
         23    2    1    2    0    0  0.34617371735E+02  0.10404256589E+03 -0.12798049368E+03  0.19317710832E+03  0.94420180441E+02 0.  0.
          5    1    3    3  502    0 -0.12391790246E+02 -0.61169075839E+02 -0.86591025790E+02  0.10682083342E+03  0.41800000000E+01 0.  1.
         -5    1    3    3    0  502 -0.22225581489E+02 -0.42873490046E+02 -0.51721396930E+03  0.51948038949E+03  0.41800000000E+01 0.  1.
        -11    1    4    4    0    0  0.80095541892E+01  0.43980704378E+02  0.48737413257E+01  0.44968974532E+02  0.00000000000E+00 0.  1.
         11    1    4    4    0    0  0.26607817546E+02  0.60061861507E+02 -0.13285423500E+03  0.14820813379E+03  0.00000000000E+00 0. -1.
</event>
<event>
 8    1  0.6965441E-009  0.1267990E+03  0.7561462E-02  0.1232284E+00
         -2   -1    0    0    0  501 -0.00000000000E+00  0.00000000000E+00  0.52569753594E+02  0.52569753594E+02  0.00000000000E+00 0.  1.
          2   -1    0    0  501    0  0.00000000000E+00 -0.00000000000E+00 -0.65039913229E+03  0.65039913229E+03  0.00000000000E+00 0. -1.
         25    2    1    2    0    0 -0.99409735971E+02 -0.67141869743E+02 -0.14643054220E+03  0.22689641811E+03  0.12509897915E+03 0.  0.
         23    2    1    2    0    0  0.99409735971E+02  0.67141869743E+02 -0.45139883650E+03  0.47607246777E+03  0.92161590158E+02 0.  0.
          5    1    3    3  502    0 -0.33875787375E+02 -0.30926669042E+02  0.15374551275E+02  0.48557976226E+02  0.41800000000E+01 0. -1.
         -5    1    3    3    0  502 -0.65533948596E+02 -0.36215200701E+02 -0.16180509348E+03  0.17833844189E+03  0.41800000000E+01 0. -1.
        -11    1    4    4    0    0  0.89380543430E+02  0.30319430616E+02 -0.40569834389E+03  0.41653246651E+03  0.00000000000E+00 0. -1.
         11    1    4    4    0    0  0.10029192541E+02  0.36822439127E+02 -0.45700492604E+02  0.59540001264E+02  0.00000000000E+00 0.  1.
</event>
<event>
 8    1  0.6965441E-009  0.8431937E+02  0.7561462E-02  0.1317222E+00
         -1   -1    0    0    0  501 -0.00000000000E+00  0.00000000000E+00  0.36881371644E+03  0.36881371644E+03  0.00000000000E+00 0.  1.
          1   -1    0    0  501    0  0.00000000000E+00 -0.00000000000E+00 -0.37471763546E+02  0.37471763546E+02  0.00000000000E+00 0. -1.
         25    2    1    2    0    0 -0.12810549331E+02  0.11540822077E+02  0.11530470185E+03  0.17099534677E+03  0.12508770363E+03 0.  0.
         23    2    1    2    0    0  0.12810549331E+02 -0.11540822077E+02  0.21603725104E+03  0.23529013322E+03  0.91608144843E+02 0.  0.
          5    1    3    3  502    0 -0.33165714488E+02  0.49308411784E+02  0.14427096778E+02  0.61293536458E+02  0.41800000000E+01 0. -1.
         -5    1    3    3    0  502  0.20355165156E+02 -0.37767589707E+02  0.10087760507E+03  0.10970181031E+03  0.41800000000E+01 0. -1.
        -11    1    4    4    0    0 -0.25521550014E+02  0.12459347818E+01  0.13770203419E+02  0.29026201453E+02  0.00000000000E+00 0. -1.
         11    1    4    4    0    0  0.38332099345E+02 -0.12786756859E+02  0.20226704762E+03  0.20626393176E+03  0.00000000000E+00 0.  1.
</event>
<event>
 8    1  0.6965441E-009  0.1587304E+03  0.7561462E-02  0.1190138E+00
          1   -1    0    0  501    0  0.00000000000E+00  0.00000000000E+00  0.83785059993E+03  0.83785059993E+03  0.00000000000E+00 0. -1.
         -1   -1    0    0    0  501 -0.00000000000E+00 -0.00000000000E+00 -0.38268515626E+02  0.38268515626E+02  0.00000000000E+00 0.  1.
         25    2    1    2    0    0 -0.11684045444E+03  0.67666871421E+02  0.53290664011E+03  0.56379767968E+03  0.12509132368E+03 0.  0.
         23    2    1    2    0    0  0.11684045444E+03 -0.67666871421E+02  0.26667544419E+03  0.31232143587E+03  0.90544958390E+02 0.  0.
          5    1    3    3  502    0 -0.46445831132E+02  0.95545725148E+02  0.27016016576E+03  0.29032772583E+03  0.41800000000E+01 0. -1.
         -5    1    3    3    0  502 -0.70394623303E+02 -0.27878853727E+02  0.26274647435E+03  0.27346995385E+03  0.41800000000E+01 0. -1.
        -11    1    4    4    0    0  0.39443065295E+02 -0.27762364203E+02  0.22771277741E+02  0.53338872842E+02  0.00000000000E+00 0.  1.
         11    1    4    4    0    0  0.77397389140E+02 -0.39904507218E+02  0.24390416645E+03  0.25898256303E+03  0.00000000000E+00 0. -1.
</event>
<event>
 8    1  0.6965441E-009  0.1193375E+03  0.7561462E-02  0.1244194E+00
          2   -1    0    0  501    0  0.00000000000E+00  0.00000000000E+00  0.35713860333E+02  0.35713860333E+02  0.00000000000E+00 0. -1.
         -2   -1    0    0    0  501 -0.00000000000E+00 -0.00000000000E+00 -0.41230516586E+03  0.41230516586E+03  0.00000000000E+00 0.  1.
         25    2    1    2    0    0  0.34120472281E+02  0.40594833044E+02 -0.18228267228E+03  0.22735429690E+03  0.12510338367E+03 0.  0.
         23    2    1    2    0    0 -0.34120472281E+02 -0.40594833044E+02 -0.19430863325E+03  0.22066472929E+03  0.90138397489E+02 0.  0.
          5    1    3    3  502    0 -0.43303717352E+02 -0.65528833552E+01 -0.73822469297E+02  0.85938242883E+02  0.41800000000E+01 0.  1.
         -5    1    3    3    0  502  0.77424189633E+02  0.47147716399E+02 -0.10846020298E+03  0.14141605401E+03  0.41800000000E+01 0.  1.
        -11    1    4    4    0    0 -0.15981815219E+02  0.28403111275E+02 -0.49991905156E+02  0.59677011729E+02  0.00000000000E+00 0. -1.
         11    1    4    4    0    0 -0.18138657063E+02 -0.68997944319E+02 -0.14431672809E+03  0.16098771757E+03  0.00000000000E+00 0.  1.
</event>
<event>
 8    1  0.6965441E-009  0.1060044E+03  0.7561462E-02  0.1268153E+00
         -2   -1    0    0    0  501 -0.00000000000E+00  0.00000000000E+00  0.39982010740E+02  0.39982010740E+02  0.00000000000E+00 0.  1.
          2   -1    0    0  501    0  0.00000000000E+00 -0.00000000000E+00 -0.43639045021E+03  0.43639045021E+03  0.00000000000E+00 0. -1.
         25    2    1    2    0    0 -0.33443391365E+02 -0.25106224545E+02 -0.33095505243E+03  0.35626918334E+03  0.12509077236E+03 0.  0.
         23    2    1    2    0    0  0.33443391365E+02  0.25106224545E+02 -0.65453387037E+02  0.12010327761E+03  0.91607142085E+02 0.  0.
          5    1    3    3  502    0 -0.46426077783E+02  0.38501037058E+02 -0.21470939107E+03  0.22305897330E+03  0.41800000000E+01 0.  1.
         -5    1    3    3    0  502  0.12982686418E+02 -0.63607261603E+02 -0.11624566136E+03  0.13321021004E+03  0.41800000000E+01 0.  1.
        -11    1    4    4    0    0  0.47485843054E+02 -0.10140608563E+02 -0.51120376982E+01  0.48824892852E+02  0.00000000000E+00 0.  1.
         11    1    4    4    0    0 -0.14042451689E+02  0.35246833108E+02 -0.60341349339E+02  0.71278384757E+02  0.00000000000E+00 0. -1.
</event>
<event>
 8    1  0.6965441E-009  0.1517127E+03  0.7561462E-02  0.1198384E+00
         -2   -1    0    0    0  501 -0.00000000000E+00  0.00000000000E+00  0.72229196398E+02  0.72229196398E+02  0.00000000000E+00 0.  1.
          2   -1    0    0  501    0  0.00000000000E+00 -0.00000000000E+00 -0.63718793932E+03  0.63718793932E+03  0.00000000000E+00 0. -1.
         25    2    1    2    0    0 -0.14690707609E+03  0.14450757335E+02 -0.10987845110E+03  0.22251259487E+03  0.12509223583E+03 0.  0.
         23    2    1    2    0    0  0.14690707609E+03 -0.14450757335E+02 -0.45508029183E+03  0.48690454086E+03  0.90484509751E+02 0.  0.
          5    1    3    3  502    0 -0.10080646707E+03  0.25064472934E+02 -0.13371655439E+03  0.16937461712E+03  0.41800000000E+01 0.  1.
         -5    1    3    3    0  502 -0.46100609025E+02 -0.10613715599E+02  0.23838103286E+02  0.53137977752E+02  0.41800000000E+01 0.  1.
        -11    1    4    4    0    0  0.74734861593E+02  0.10803005808E+02 -0.10980105545E+03  0.13326018254E+03  0.00000000000E+00 0.  1.
         11    1    4    4    0    0  0.72172214497E+02 -0.25253763143E+02 -0.34527923638E+03  0.35364435832E+03  0.00000000000E+00 0. -1.
</event>
<event>
 8    1  0.6965441E-009  0.1159479E+03  0.7561462E-02  0.1249936E+00
         -1   -1    0    0    0  501 -0.00000000000E+00  0.00000000000E+00  0.25077629328E+03  0.25077629328E+03  0.00000000000E+00 0.  1.
          1   -1    0    0  501    0  0.00000000000E+00 -0.00000000000E+00 -0.79010826934E+02  0.79010826934E+02  0.00000000000E+00 0. -1.
         25    2    1    2    0    0 -0.47530467784E+02  0.71762956461E+02  0.63304938793E+02  0.16451744095E+03  0.12509758516E+03 0.  0.
         23    2    1    2    0    0  0.47530467784E+02 -0.71762956461E+02  0.10846052755E+03  0.16526967926E+03  0.90229227856E+02 0.  0.
          5    1    3    3  502    0 -0.41062651839E+02 -0.13519089326E+02 -0.17458377699E+02  0.46809982954E+02  0.41800000000E+01 0. -1.
         -5    1    3    3    0  502 -0.64678159444E+01  0.85282045787E+02  0.80763316492E+02  0.11770745799E+03  0.41800000000E+01 0. -1.
        -11    1    4    4    0    0  0.19823581675E+02 -0.72455838364E+02  0.27996666649E+02  0.80166303688E+02  0.00000000000E+00 0. -1.
         11    1    4    4    0    0  0.27706886109E+02  0.69288190362E+00  0.80463860900E+02  0.85103375574E+02  0.00000000000E+00 0.  1.
</event>
<event>
 8    1  0.6965441E-009  0.1889374E+03  0.7561462E-02  0.1159423E+00
         -3   -1    0    0    0  501 -0.00000000000E+00  0.00000000000E+00  0.33253589922E+03  0.33253589922E+03  0.00000000000E+00 0.  1.
          3   -1    0    0  501    0  0.00000000000E+00 -0.00000000000E+00 -0.11155149744E+03  0.11155149744E+03  0.00000000000E+00 0. -1.
         25    2    1    2    0    0  0.12696338429E+03 -0.94443303804E+02  0.13015772401E+03  0.24005959527E+03  0.12509331549E+03 0.  0.
         23    2    1    2    0    0 -0.12696338429E+03  0.94443303804E+02  0.90826677769E+02  0.20402780139E+03  0.91316043285E+02 0.  0.
          5    1    3    3  502    0  0.97270111914E+02  0.53190278299E+01  0.65166954499E+02  0.11727732555E+03  0.41800000000E+01 0. -1.
         -5    1    3    3    0  502  0.29693272371E+02 -0.99762331633E+02  0.64990769510E+02  0.12278226972E+03  0.41800000000E+01 0. -1.
        -11    1    4    4    0    0 -0.95869782149E+01  0.49647108562E+02  0.28335379908E+01  0.50643602532E+02  0.00000000000E+00 0.  1.
         11    1    4    4    0    0 -0.11737640607E+03  0.44796195242E+02  0.87993139778E+02  0.15338419885E+03  0.00000000000E+00 0. -1.
</event>
<event>
 8    1  0.6965441E-009  0.9716147E+02  0.7561462E-02  0.1286381E+00
          2   -1    0    0  501    0  0.00000000000E+00  0.00000000000E+00  0.21845418510E+03  0.21845418510E+03  0.00000000000E+00 0. -1.
         -2   -1    0    0    0  501 -0.00000000000E+00 -0.00000000000E+00 -0.66176331445E+02  0.66176331445E+02  0.00000000000E+00 0.  1.
         25    2    1    2    0    0 -0.22770518950E+02 -0.40194211654E+02  0.11334997176E+03  0.17501375258E+03  0.12509007279E+03 0.  0.
         23    2    1    2    0    0  0.22770518950E+02  0.40194211654E+02  0.38927881902E+02  0.10961676397E+03  0.91467938486E+02 0.  0.
          5    1    3    3  502    0  0.27493094564E+02  0.14747256007E+02 -0.80897992481E+01  0.32500293234E+02  0.41800000000E+01 0.  1.
         -5    1    3    3    0  502 -0.50263613513E+02 -0.54941467661E+02  0.12143977101E+03  0.14251345934E+03  0.41800000000E+01 0.  1.
        -11    1    4    4    0    0  0.47896579948E+02  0.99061165617E+01 -0.66947894753E+01  0.49366321740E+02  0.00000000000E+00 0.  1.
         11    1    4    4    0    0 -0.25126060998E+02  0.30288095092E+02  0.45622671378E+02  0.60250442233E+02  0.00000000000E+00 0. -1.
</event>
<event>
 8    1  0.6965441E-009  0.9210087E+02  0.7561462E-02  0.1297842E+00
          1   -1    0    0  501    0  0.00000000000E+00  0.00000000000E+00  0.22966253684E+02  0.22966253684E+02  0.00000000000E+00 0. -1.
         -1   -1    0    0    0  501 -0.00000000000E+00 -0.00000000000E+00 -0.60881524451E+03  0.60881524451E+03  0.00000000000E+00 0.  1.
         25    2    1    2    0    0  0.34205409301E+02 -0.13272010785E+02 -0.24746497701E+03  0.27970369216E+03  0.12509629998E+03 0.  0.
         23    2    1    2    0    0 -0.34205409301E+02  0.13272010785E+02 -0.33838401382E+03  0.35207780603E+03  0.90049344222E+02 0.  0.
          5    1    3    3  502    0  0.50659462875E+02 -0.37334556196E+02 -0.24157467244E+03  0.24967187472E+03  0.41800000000E+01 0.  1.
         -5    1    3    3    0  502 -0.16454053574E+02  0.24062545411E+02 -0.58903045673E+01  0.30031817437E+02  0.41800000000E+01 0.  1.
        -11    1    4    4    0    0  0.10386762725E+02  0.38892608597E+02 -0.92611971200E+02  0.10098265719E+03  0.00000000000E+00 0. -1.
         11    1    4    4    0    0 -0.44592172026E+02 -0.25620597812E+02 -0.24577204262E+03  0.25109514884E+03  0.00000000000E+00 0.  1.
</event>
<event>
 8    1  0.6965441E-009  0.4673488E+03  0.7561462E-02  0.1022671E+00
          2   -1    0    0  501    0  0.00000000000E+00  0.00000000000E+00  0.21720935600E+04  0.21720935600E+04  0.00000000000E+00 0. -1.
         -2   -1    0    0    0  501 -0.00000000000E+00 -0.00000000000E+00 -0.16052461751E+03  0.16052461751E+03  0.00000000000E+00 0.  1.
         25    2    1    2    0    0 -0.31574139838E+03  0.33928228528E+03  0.32227130401E+03  0.57819951216E+03  0.12510308836E+03 0.  0.
         23    2    1    2    0    0  0.31574139838E+03 -0.33928228528E+03  0.16892976385E+04  0.17544186653E+04  0.97227785239E+02 0.  0.
          5    1    3    3  502    0 -0.16870470047E+03  0.17175112567E+03  0.24163080065E+03  0.34111968772E+03  0.41800000000E+01 0.  1.
         -5    1    3    3    0  502 -0.14703669791E+03  0.16753115961E+03  0.80640503363E+02  0.23707982444E+03  0.41800000000E+01 0.  1.
        -11    1    4    4    0    0  0.10723467064E+03 -0.17617529622E+03  0.64999804610E+03  0.68193435866E+03  0.00000000000E+00 0.  1.
         11    1    4    4    0    0  0.20850672774E+03 -0.16310698906E+03  0.10392995924E+04  0.10724843067E+04  0.00000000000E+00 0. -1.
</event>
<event>
 8    1  0.6965441E-009  0.2112894E+03  0.7561462E-02  0.1140549E+00
         -2   -1    0    0    0  501 -0.00000000000E+00  0.00000000000E+00  0.11541370614E+03  0.11541370614E+03  0.00000000000E+00 0.  1.
          2   -1    0    0  501    0  0.00000000000E+00 -0.00000000000E+00 -0.48515101280E+03  0.48515101280E+03  0.00000000000E+00 0. -1.
         25    2    1    2    0    0 -0.56585474931E+02  0.19173066329E+03 -0.11201583935E+03  0.26107100929E+03  0.12509180792E+03 0.  0.
         23    2    1    2    0    0  0.56585474931E+02 -0.19173066329E+03 -0.25772146731E+03  0.33949370964E+03  0.94196926455E+02 0.  0.
          5    1    3    3  502    0 -0.29890587197E+02  0.17934800600E+03 -0.13246204779E+03  0.22499515765E+03  0.41800000000E+01 0. -1.
         -5    1    3    3    0  502 -0.26694887734E+02  0.12382657289E+02  0.20446208438E+02  0.36075851649E+02  0.41800000000E+01 0. -1.
        -11    1    4    4    0    0  0.49272187553E+02 -0.54150680504E+02 -0.14120324838E+03  0.15905471391E+03  0.00000000000E+00 0.  1.
         11    1    4    4    0    0  0.73132873778E+01 -0.13757998279E+03 -0.11651821893E+03  0.18043899573E+03  0.00000000000E+00 0. -1.
</event>
<event>
 8    1  0.6965441E-009  0.1817241E+03  0.7561462E-02  0.1166145E+00
         -1   -1    0    0    0  501 -0.00000000000E+00  0.00000000000E+00  0.19423554140E+03  0.19423554140E+03  0.00000000000E+00 0. -1.
          1   -1    0    0  501    0  0.00000000000E+00 -0.00000000000E+00 -0.23812047758E+03  0.23812047758E+03  0.00000000000E+00 0.  1.
         25    2    1    2    0    0 -0.12487696175E+03 -0.12591437615E+03 -0.78430388452E+02  0.23074988946E+03  0.12508197294E+03 0.  0.
         23    2    1    2    0    0  0.12487696175E+03  0.12591437615E+03  0.34545452274E+02  0.20160612952E+03  0.89459250439E+02 0.  0.
          5    1    3    3  502    0 -0.11236166158E+02 -0.26108172891E+02  0.32320528663E+02  0.43243231780E+02  0.41800000000E+01 0.  1.
         -5    1    3    3    0  502 -0.11364079560E+03 -0.99806203260E+02 -0.11075091711E+03  0.18750665768E+03  0.41800000000E+01 0.  1.
        -11    1    4    4    0    0  0.67830039206E+02  0.35632516327E+02 -0.23387432950E+02  0.80109690166E+02  0.00000000000E+00 0.  1.
         11    1    4    4    0    0  0.57046922548E+02  0.90281859825E+02  0.57932885224E+02  0.12149643936E+03  0.00000000000E+00 0. -1.
</event>
<event>
 8    1  0.6965441E-009  0.1226298E+03  0.7561462E-02  0.1238821E+00
          3   -1    0    0  501    0  0.00000000000E+00  0.00000000000E+00  0.52112245576E+02  0.52112245576E+02  0.00000000000E+00 0. -1.
         -3   -1    0    0    0  501 -0.00000000000E+00 -0.00000000000E+00 -0.31546484311E+03  0.31546484311E+03  0.00000000000E+00 0.  1.
         25    2    1    2    0    0 -0.42621644744E+02 -0.48866541472E+02 -0.11703056827E+03  0.18316282210E+03  0.12509165445E+03 0.  0.
         23    2    1    2    0    0  0.42621644744E+02  0.48866541472E+02 -0.14632202925E+03  0.18441426658E+03  0.91618458829E+02 0.  0.
          5    1    3    3  502    0 -0.16179234298E+02 -0.88675823173E+02 -0.92718118126E+02  0.12938041222E+03  0.41800000000E+01 0. -1.
         -5    1    3    3    0  502 -0.26442410447E+02  0.39809281701E+02 -0.24312450148E+02  0.53782409875E+02  0.41800000000E+01 0. -1.
        -11    1    4    4    0    0 -0.22144136786E+02 -0.51261829656E+01 -0.11696622651E+02  0.25562697965E+02  0.00000000000E+00 0.  1.
         11    1    4    4    0    0  0.64765781530E+02  0.53992724438E+02 -0.13462540660E+03  0.15885156862E+03  0.00000000000E+00 0. -1.
</event>
<event>
 8    1  0.6965441E-009  0.1377586E+03  0.7561462E-02  0.1216377E+00
         -4   -1    0    0    0  501 -0.00000000000E+00  0.00000000000E+00  0.46427302841E+02  0.46427302841E+02  0.00000000000E+00 0.  1.
          4   -1    0    0  501    0  0.00000000000E+00 -0.00000000000E+00 -0.47459667224E+03  0.47459667224E+03  0.00000000000E+00 0. -1.
         25    2    1    2    0    0 -0.86419584367E+02  0.23427538145E+02 -0.14848892888E+03  0.21380826886E+03  0.12509124561E+03 0.  0.
         23    2    1    2    0    0  0.86419584367E+02 -0.23427538145E+02 -0.27968044052E+03  0.30721570622E+03  0.90239388476E+02 0.  0.
          5    1    3    3  502    0 -0.14590075051E+02 -0.47753165444E+02 -0.68147699279E+02  0.84586147903E+02  0.41800000000E+01 0.  1.
         -5    1    3    3    0  502 -0.71829509316E+02  0.71180703589E+02 -0.80341229602E+02  0.12922212096E+03  0.41800000000E+01 0.  1.
        -11    1    4    4    0    0  0.62109538091E+02  0.27378941009E+02 -0.11963648641E+03  0.13755031812E+03  0.00000000000E+00 0. -1.
         11    1    4    4    0    0  0.24310046277E+02 -0.50806479154E+02 -0.16004395411E+03  0.16966538810E+03  0.00000000000E+00 0.  1.
</event>
<event>
 8    1  0.6965441E-009  0.9990743E+02  0.7561462E-02  0.1280491E+00
         -2   -1    0    0    0  501 -0.00000000000E+00  0.00000000000E+00  0.64856457355E+02  0.64856457355E+02  0.00000000000E+00 0.  1.
          2   -1    0    0  501    0  0.00000000000E+00 -0.00000000000E+00 -0.20903137913E+03  0.20903137913E+03  0.00000000000E+00 0. -1.
         25    2    1    2    0    0  0.28873403600E+02  0.23867708447E+02 -0.10525683216E+03  0.16772088055E+03  0.12509177477E+03 0.  0.
         23    2    1    2    0    0 -0.28873403600E+02 -0.23867708447E+02 -0.38918089619E+02  0.10616695594E+03  0.91397286017E+02 0.  0.
          5    1    3    3  502    0  0.41367842234E+02 -0.27500927261E+02 -0.10324675126E+03  0.11465148677E+03  0.41800000000E+01 0.  1.
         -5    1    3    3    0  502 -0.12494438633E+02  0.51368635709E+02 -0.20100808940E+01  0.53069393783E+02  0.41800000000E+01 0.  1.
        -11    1    4    4    0    0 -0.25959472378E+02  0.31878224495E+02 -0.65211034997E+01  0.41624994822E+02  0.00000000000E+00 0. -1.
         11    1    4    4    0    0 -0.29139312222E+01 -0.55745932943E+02 -0.32396986120E+02  0.64541961114E+02  0.00000000000E+00 0.  1.
</event>
<event>
 8    1  0.6965441E-009  0.2148293E+03  0.7561462E-02  0.1137798E+00
         -1   -1    0    0    0  501 -0.00000000000E+00  0.00000000000E+00  0.17789685496E+03  0.17789685496E+03  0.00000000000E+00 0.  1.
          1   -1    0    0  501    0  0.00000000000E+00 -0.00000000000E+00 -0.27961061848E+03  0.27961061848E+03  0.00000000000E+00 0. -1.
         25    2    1    2    0    0 -0.51770254403E+02 -0.18458786380E+03 -0.18747270935E+02  0.22967684887E+03  0.12508859276E+03 0.  0.
         23    2    1    2    0    0  0.51770254403E+02  0.18458786380E+03 -0.82966492583E+02  0.22783062457E+03  0.90942376801E+02 0.  0.
          5    1    3    3  502    0  0.34753653939E+02 -0.36742068259E+02  0.19047655184E+02  0.54204073741E+02  0.41800000000E+01 0.  1.
         -5    1    3    3    0  502 -0.86523908342E+02 -0.14784579554E+03 -0.37794926119E+02  0.17547277513E+03  0.41800000000E+01 0.  1.
        -11    1    4    4    0    0  0.23948149463E+02  0.33321287164E+01  0.46079220443E+01  0.24614018161E+02  0.00000000000E+00 0.  1.
         11    1    4    4    0    0  0.27822104940E+02  0.18125573508E+03 -0.87574414628E+02  0.20321660641E+03  0.00000000000E+00 0. -1.
</event>
<event>
 8    1  0.6965441E-009  0.9791170E+02  0.7561462E-02  0.1284750E+00
          1   -1    0    0  501    0  0.00000000000E+00  0.00000000000E+00  0.16629538092E+03  0.16629538092E+03  0.00000000000E+00 0. -1.
         -1   -1    0    0    0  501 -0.00000000000E+00 -0.00000000000E+00 -0.73490336253E+02  0.73490336253E+02  0.00000000000E+00 0.  1.
         25    2    1    2    0    0  0.31988784708E+01  0.18139296649E+02  0.60023248908E+02  0.13996351830E+03  0.12509088352E+03 0.  0.
         23    2    1    2    0    0 -0.31988784708E+01 -0.18139296649E+02  0.32781795755E+02  0.99822198868E+02  0.92469229193E+02 0.  0.
          5    1    3    3  502    0  0.24848278011E+02 -0.43346542916E+02  0.55041513514E+02  0.74454014753E+02  0.41800000000E+01 0. -1.
         -5    1    3    3    0  502 -0.21649399540E+02  0.61485839565E+02  0.49817353936E+01  0.65509503548E+02  0.41800000000E+01 0. -1.
        -11    1    4    4    0    0 -0.50324003567E+01  0.30892343984E+02 -0.11875408463E+02  0.33476667939E+02  0.00000000000E+00 0.  1.
         11    1    4    4    0    0  0.18335218859E+01 -0.49031640633E+02  0.44657204218E+02  0.66345530929E+02  0.00000000000E+00 0. -1.
</event>
<event>
 8    1  0.6965441E-009  0.2096053E+03  0.7561462E-02  0.1141879E+00
         -2   -1    0    0    0  501 -0.00000000000E+00  0.00000000000E+00  0.28595366179E+02  0.28595366179E+02  0.00000000000E+00 0.  1.
          2   -1    0    0  501    0  0.00000000000E+00 -0.00000000000E+00 -0.19821386082E+04  0.19821386082E+04  0.00000000000E+00 0. -1.
         25    2    1    2    0    0 -0.50873961011E+02  0.19435911450E+03 -0.12832167443E+04  0.13048591175E+04  0.12509387806E+03 0.  0.
         23    2    1    2    0    0  0.50873961011E+02 -0.19435911450E+03 -0.67032649771E+03  0.70587485688E+03  0.92509863001E+02 0.  0.
          5    1    3    3  502    0 -0.55702555349E+02  0.11621820535E+03 -0.45436461759E+03  0.47230723480E+03  0.41800000000E+01 0. -1.
         -5    1    3    3    0  502  0.48285943386E+01  0.78140909155E+02 -0.82885212676E+03  0.83255188274E+03  0.41800000000E+01 0. -1.
        -11    1    4    4    0    0  0.55889436935E+02 -0.81095277987E+02 -0.41469285565E+03  0.42622791767E+03  0.00000000000E+00 0. -1.
         11    1    4    4    0    0 -0.50154759242E+01 -0.11326383651E+03 -0.25563364206E+03  0.27964693922E+03  0.00000000000E+00 0.  1.
</event>
<event>
 8    1  0.6965441E-009  0.1094999E+03  0.7561462E-02  0.1261499E+00
         -1   -1    0    0    0  501 -0.00000000000E+00  0.00000000000E+00  0.29639395459E+02  0.29639395459E+02  0.00000000000E+00 0.  1.
          1   -1    0    0  501    0  0.00000000000E+00 -0.00000000000E+00 -0.65204904172E+03  0.65204904172E+03  0.00000000000E+00 0. -1.
         25    2    1    2    0    0  0.67975160025E+02 -0.34193744968E+02 -0.44229677794E+03  0.46590071793E+03  0.12508878695E+03 0.  0.
         23    2    1    2    0    0 -0.67975160025E+02  0.34193744968E+02 -0.18011286833E+03  0.21578771925E+03  0.91289976813E+02 0.  0.
          5    1    3    3  502    0 -0.14213274551E+02 -0.10326324425E+02 -0.29768020505E+01  0.18302565395E+02  0.41800000000E+01 0. -1.
         -5    1    3    3    0  502  0.82188434576E+02 -0.23867420543E+02 -0.43931997589E+03  0.44759815254E+03  0.41800000000E+01 0. -1.
        -11    1    4    4    0    0 -0.31404906838E+01  0.48713327475E+02 -0.51082035880E+02  0.70655681619E+02  0.00000000000E+00 0.  1.
         11    1    4    4    0    0 -0.64834669341E+02 -0.14519582507E+02 -0.12903083245E+03  0.14513203763E+03  0.00000000000E+00 0. -1.
</event>
<event>
 8    1  0.6965441E-009  0.1340678E+03  0.7561462E-02  0.1221542E+00
         -2   -1    0    0    0  501 -0.00000000000E+00  0.00000000000E+00  0.78781081020E+02  0.78781081020E+02  0.00000000000E+00 0.  1.
          2   -1    0    0  501    0  0.00000000000E+00 -0.00000000000E+00 -0.24725306920E+03  0.24725306920E+03  0.00000000000E+00 0. -1.
         25    2    1    2    0    0  0.61695625921E+02  0.61383409711E+02 -0.11064365249E+03  0.18831861619E+03  0.12509040780E+03 0.  0.
         23    2    1    2    0    0 -0.61695625921E+02 -0.61383409711E+02 -0.57828335693E+02  0.13771553403E+03  0.89706068122E+02 0.  0.
          5    1    3    3  502    0  0.55078132447E+02  0.95125692022E+02 -0.10705485867E+03  0.15349499380E+03  0.41800000000E+01 0.  1.
         -5    1    3    3    0  502  0.66174934737E+01 -0.33742282310E+02 -0.35887938157E+01  0.34823622391E+02  0.41800000000E+01 0.  1.
        -11    1    4    4    0    0 -0.18976831647E+02 -0.76010827408E+02 -0.46714895925E+02  0.91214294515E+02  0.00000000000E+00 0. -1.
         11    1    4    4    0    0 -0.42718794274E+02  0.14627417697E+02 -0.11113439769E+02  0.46501239513E+02  0.00000000000E+00 0.  1.
</event>
<event>
 8    1  0.6965441E-009  0.1186589E+03  0.7561462E-02  0.1245326E+00
         -2   -1    0    0    0  501 -0.00000000000E+00  0.00000000000E+00  0.90939865081E+02  0.90939865081E+02  0.00000000000E+00 0.  1.
          2   -1    0    0  501    0  0.00000000000E+00 -0.00000000000E+00 -0.28041634787E+03  0.28041634787E+03  0.00000000000E+00 0. -1.
         25    2    1    2    0    0  0.66203720200E+02 -0.79227606042E+02 -0.16711533796E+03  0.23288356268E+03  0.12508905411E+03 0.  0.
         23    2    1    2    0    0 -0.66203720200E+02  0.79227606042E+02 -0.22361144821E+02  0.13847265026E+03  0.89524901262E+02 0.  0.
          5    1    3    3  502    0  0.38948578479E+02 -0.28855034882E+02  0.73551254814E+01  0.49205437447E+02  0.41800000000E+01 0.  1.
         -5    1    3    3    0  502  0.27255141722E+02 -0.50372571160E+02 -0.17447046345E+03  0.18367812524E+03  0.41800000000E+01 0.  1.
        -11    1    4    4    0    0 -0.70042073899E+02  0.21334478780E+02 -0.31553467498E+02  0.79728748968E+02  0.00000000000E+00 0. -1.
         11    1    4    4    0    0  0.38383536986E+01  0.57893127262E+02  0.91923226772E+01  0.58743901296E+02  0.00000000000E+00 0.  1.
</event>
<event>
 8    1  0.6965441E-009  0.1056672E+03  0.7561462E-02  0.1268811E+00
         -3   -1    0    0    0  501 -0.00000000000E+00  0.00000000000E+00  0.25793020694E+03  0.25793020694E+03  0.00000000000E+00 0.  1.
          3   -1    0    0  501    0  0.00000000000E+00 -0.00000000000E+00 -0.59588551443E+02  0.59588551443E+02  0.00000000000E+00 0. -1.
         25    2    1    2    0    0 -0.48931540377E+00 -0.16868185562E+02  0.36465676613E+02  0.13138115929E+03  0.12508592380E+03 0.  0.
         23    2    1    2    0    0  0.48931540377E+00  0.16868185562E+02  0.16187597888E+03  0.18613759909E+03  0.90324958580E+02 0.  0.
          5    1    3    3  502    0  0.47623066035E+02 -0.48220271599E+02  0.26792209899E+02  0.72996204853E+02  0.41800000000E+01 0. -1.
         -5    1    3    3    0  502 -0.48112381439E+02  0.31352086037E+02  0.96734667140E+01  0.58384954439E+02  0.41800000000E+01 0. -1.
        -11    1    4    4    0    0 -0.41797355887E+02  0.63203246614E+01  0.46696240098E+02  0.62988128264E+02  0.00000000000E+00 0. -1.
         11    1    4    4    0    0  0.42286671290E+02  0.10547860901E+02  0.11517973879E+03  0.12314947083E+03  0.00000000000E+00 0.  1.
</event>
<event>
 8    1  0.6965441E-009  0.1020379E+03  0.7561462E-02  0.1276068E+00
         -1   -1    0    0    0  501 -0.00000000000E+00  0.00000000000E+00  0.31935670939E+02  0.31935670939E+02  0.00000000000E+00 0.  1.
          1   -1    0    0  501    0  0.00000000000E+00 -0.00000000000E+00 -0.48342497254E+03  0.48342497254E+03  0.00000000000E+00 0. -1.
         25    2    1    2    0    0 -0.47054286325E+02  0.29927591994E+02 -0.21783532186E+03  0.25730818038E+03  0.12508199557E+03 0.  0.
         23    2    1    2    0    0  0.47054286325E+02 -0.29927591994E+02 -0.23365397975E+03  0.25805246310E+03  0.94271548407E+02 0.  0.
          5    1    3    3  502    0 -0.72766130690E+02 -0.16483143911E+02 -0.17020135844E+03  0.18588323923E+03  0.41800000000E+01 0.  1.
         -5    1    3    3    0  502  0.25711844365E+02  0.46410735905E+02 -0.47633963413E+02  0.71424941150E+02  0.41800000000E+01 0.  1.
        -11    1    4    4    0    0 -0.11097646411E+02 -0.91226799909E+01  0.19410387552E+01  0.14496505701E+02  0.00000000000E+00 0.  1.
         11    1    4    4    0    0  0.58151932736E+02 -0.20804912003E+02 -0.23559501850E+03  0.24355595740E+03  0.00000000000E+00 0. -1.
</event>
<event>
 8    1  0.6965441E-009  0.2087932E+03  0.7561462E-02  0.1142525E+00
          2   -1    0    0  501    0  0.00000000000E+00  0.00000000000E+00  0.24457722412E+03  0.24457722412E+03  0.00000000000E+00 0. -1.
         -2   -1    0    0    0  501 -0.00000000000E+00 -0.00000000000E+00 -0.25954418317E+03  0.25954418317E+03  0.00000000000E+00 0.  1.
         25    2    1    2    0    0 -0.19427416305E+03 -0.73502688555E+02  0.84059467849E+02  0.25662905881E+03  0.12508950409E+03 0.  0.
         23    2    1    2    0    0  0.19427416305E+03  0.73502688555E+02 -0.99026426892E+02  0.24749234849E+03  0.91110557465E+02 0.  0.
          5    1    3    3  502    0 -0.17441752071E+03 -0.72245845205E+02  0.20555247155E+02  0.18994979407E+03  0.41800000000E+01 0.  1.
         -5    1    3    3    0  502 -0.19856642343E+02 -0.12568433503E+01  0.63504220694E+02  0.66679264741E+02  0.41800000000E+01 0.  1.
        -11    1    4    4    0    0  0.15055752871E+03  0.49137136266E+02 -0.28350901044E+02  0.16089064983E+03  0.00000000000E+00 0. -1.
         11    1    4    4    0    0  0.43716634341E+02  0.24365552289E+02 -0.70675525848E+02  0.86601698657E+02  0.00000000000E+00 0.  1.
</event>
<event>
 8    1  0.6965441E-009  0.9560210E+02  0.7561462E-02  0.1289826E+00
          1   -1    0    0  501    0  0.00000000000E+00  0.00000000000E+00  0.42954038980E+03  0.42954038980E+03  0.00000000000E+00 0. -1.
         -1   -1    0    0    0  501 -0.00000000000E+00 -0.00000000000E+00 -0.35015880785E+02  0.35015880785E+02  0.00000000000E+00 0.  1.
         25    2    1    2    0    0 -0.58571173650E+00 -0.54376598020E+02  0.25414962255E+03  0.28843826829E+03  0.12508975380E+03 0.  0.
         23    2    1    2    0    0  0.58571173650E+00  0.54376598020E+02  0.14037488647E+03  0.17611800230E+03  0.91407245388E+02 0.  0.
          5    1    3    3  502    0 -0.46019427495E+02 -0.57398808519E+01  0.19100511926E+03  0.19659898759E+03  0.41800000000E+01 0. -1.
         -5    1    3    3    0  502  0.45433715759E+02 -0.48636717169E+02  0.63144503290E+02  0.91839280704E+02  0.41800000000E+01 0. -1.
        -11    1    4    4    0    0  0.73593386396E+01  0.64966369055E+02  0.14773133222E+03  0.16155288760E+03  0.00000000000E+00 0. -1.
         11    1    4    4    0    0 -0.67736269031E+01 -0.10589771034E+02 -0.73564457463E+01  0.14565114692E+02  0.00000000000E+00 0.  1.
</event>
<event>
 8    1  0.6965441E-009  0.1075258E+03  0.7561462E-02  0.1265222E+00
          2   -1    0    0  501    0  0.00000000000E+00  0.00000000000E+00  0.54686286372E+03  0.54686286372E+03  0.00000000000E+00 0. -1.
         -2   -1    0    0    0  501 -0.00000000000E+00 -0.00000000000E+00 -0.28443052930E+02  0.28443052930E+02  0.00000000000E+00 0.  1.
         25    2    1    2    0    0  0.11152539074E+02 -0.78728329465E+01  0.15006220884E+03  0.19583809431E+03  0.12509009568E+03 0.  0.
         23    2    1    2    0    0 -0.11152539074E+02  0.78728329465E+01  0.36835760195E+03  0.37946782234E+03  0.90122941833E+02 0.  0.
          5    1    3    3  502    0  0.46301699672E+02  0.42622728304E+02  0.88750280189E+02  0.10887896488E+03  0.41800000000E+01 0.  1.
         -5    1    3    3    0  502 -0.35149160598E+02 -0.50495561251E+02  0.61311928647E+02  0.86959129430E+02  0.41800000000E+01 0.  1.
        -11    1    4    4    0    0  0.28477986304E+02 -0.25710777509E+02  0.18236484034E+03  0.18635711625E+03  0.00000000000E+00 0. -1.
         11    1    4    4    0    0 -0.39630525378E+02  0.33583610455E+02  0.18599276162E+03  0.19311070609E+03  0.00000000000E+00 0.  1.
</event>
<event>
 8    1  0.6965441E-009  0.1711402E+03  0.7561462E-02  0.1176664E+00
         -1   -1    0    0    0  501 -0.00000000000E+00  0.00000000000E+00  0.98364684403E+02  0.98364684403E+02  0.00000000000E+00 0.  1.
          1   -1    0    0  501    0  0.00000000000E+00 -0.00000000000E+00 -0.46877423251E+03  0.46877423251E+03  0.00000000000E+00 0. -1.
         25    2    1    2    0    0  0.15768919401E+03  0.61809224618E+02 -0.28840656072E+03  0.35708873239E+03  0.12509099238E+03 0.  0.
         23    2    1    2    0    0 -0.15768919401E+03 -0.61809224618E+02 -0.82002987386E+02  0.21005018453E+03  0.93329137609E+02 0.  0.
          5    1    3    3  502    0  0.13462823039E+03  0.39304824756E+02 -0.11718002755E+03  0.18280662166E+03  0.41800000000E+01 0.  1.
         -5    1    3    3    0  502  0.23060963621E+02  0.22504399862E+02 -0.17122653318E+03  0.17428211073E+03  0.41800000000E+01 0.  1.
        -11    1    4    4    0    0 -0.62607238119E+02 -0.21376660167E+02 -0.83733223588E+02  0.10671401312E+03  0.00000000000E+00 0. -1.
         11    1    4    4    0    0 -0.95081955887E+02 -0.40432564451E+02  0.17302362020E+01  0.10333617141E+03  0.00000000000E+00 0.  1.
</event>
<event>
 8    1  0.6965441E-009  0.7779879E+02  0.7561462E-02  0.1335417E+00
         -4   -1    0    0    0  501 -0.00000000000E+00  0.00000000000E+00  0.14120800813E+03  0.14120800813E+03  0.00000000000E+00 0.  1.
          4   -1    0    0  501    0  0.00000000000E+00 -0.00000000000E+00 -0.85385777911E+02  0.85385777911E+02  0.00000000000E+00 0. -1.
         25    2    1    2    0    0  0.13627554652E+02  0.33350498955E+01  0.40817401566E+02  0.13232507664E+03  0.12508810029E+03 0.  0.
         23    2    1    2    0    0 -0.13627554652E+02 -0.33350498955E+01  0.15004828657E+02  0.94268709405E+02  0.92003325408E+02 0.  0.
          5    1    3    3  502    0  0.26049065236E+02  0.34712671792E+02  0.73307766825E+02  0.85293753930E+02  0.41800000000E+01 0. -1.
         -5    1    3    3    0  502 -0.12421510584E+02 -0.31377621897E+02 -0.32490365260E+02  0.47031322709E+02  0.41800000000E+01 0. -1.
        -11    1    4    4    0    0  0.23841638486E+02  0.22258197845E+02  0.32115595802E+02  0.45774038392E+02  0.00000000000E+00 0. -1.
         11    1    4    4    0    0 -0.37469193138E+02 -0.25593247741E+02 -0.17110767145E+02  0.48494671013E+02  0.00000000000E+00 0.  1.
</event>
<event>
 8    1  0.6965441E-009  0.1049062E+03  0.7561462E-02  0.1270305E+00
          1   -1    0    0  501    0  0.00000000000E+00  0.00000000000E+00  0.10114097136E+02  0.10114097136E+02  0.00000000000E+00 0. -1.
         -1   -1    0    0    0  501 -0.00000000000E+00 -0.00000000000E+00 -0.13227361162E+04  0.13227361162E+04  0.00000000000E+00 0.  1.
         25    2    1    2    0    0 -0.23236330695E+02 -0.21830732422E+01 -0.96499259905E+03  0.97334708045E+03  0.12509648249E+03 0.  0.
         23    2    1    2    0    0  0.23236330695E+02  0.21830732422E+01 -0.34762942004E+03  0.35950313291E+03  0.88609232145E+02 0.  0.
          5    1    3    3  502    0  0.29094748410E+02  0.40876828496E+02 -0.24252461047E+03  0.24769553604E+03  0.41800000000E+01 0.  1.
         -5    1    3    3    0  502 -0.52331079104E+02 -0.43059901738E+02 -0.72246798858E+03  0.72565154441E+03  0.41800000000E+01 0.  1.
        -11    1    4    4    0    0 -0.31050361232E+02  0.16857508812E+02 -0.14077586569E+03  0.14514180961E+03  0.00000000000E+00 0.  1.
         11    1    4    4    0    0  0.54286691926E+02 -0.14674435570E+02 -0.20685355436E+03  0.21436132331E+03  0.00000000000E+00 0. -1.
</event>
<event>
 8    1  0.6965441E-009  0.1739167E+03  0.7561462E-02  0.1173824E+00
          1   -1    0    0  501    0  0.00000000000E+00  0.00000000000E+00  0.92281083872E+03  0.92281083872E+03  0.00000000000E+00 0. -1.
         -1   -1    0    0    0  501 -0.00000000000E+00 -0.00000000000E+00 -0.35452849840E+02  0.35452849840E+02  0.00000000000E+00 0.  1.
         25    2    1    2    0    0  0.12784764423E+03  0.62189398626E+02  0.54085709111E+03  0.57304996927E+03  0.12508929943E+03 0.  0.
         23    2    1    2    0    0 -0.12784764423E+03 -0.62189398626E+02  0.34650089777E+03  0.38521371929E+03  0.90078831817E+02 0.  0.
          5    1    3    3  502    0  0.13057723158E+03  0.90133349048E+02  0.42230486472E+03  0.45114665596E+03  0.41800000000E+01 0.  1.
         -5    1    3    3    0  502 -0.27295873497E+01 -0.27943950422E+02  0.11855222639E+03  0.12190331331E+03  0.41800000000E+01 0.  1.
        -11    1    4    4    0    0 -0.31932984833E+02 -0.56184296322E+02  0.19844284973E+03  0.20870063556E+03  0.00000000000E+00 0. -1.
         11    1    4    4    0    0 -0.95914659398E+02 -0.60051023041E+01  0.14805804804E+03  0.17651308374E+03  0.00000000000E+00 0.  1.
</event>
<event>
 8    1  0.6965441E-009  0.1086070E+03  0.7561462E-02  0.1263172E+00
         -1   -1    0    0    0  501 -0.00000000000E+00  0.00000000000E+00  0.11026038152E+03  0.11026038152E+03  0.00000000000E+00 0.  1.
          1   -1    0    0  501    0  0.00000000000E+00 -0.00000000000E+00 -0.20382154204E+03  0.20382154204E+03  0.00000000000E+00 0. -1.
         25    2    1    2    0    0  0.52228786043E+02  0.66399217438E+02 -0.11106214039E+03  0.18740539196E+03  0.12509708127E+03 0.  0.
         23    2    1    2    0    0 -0.52228786043E+02 -0.66399217438E+02  0.17500979873E+02  0.12667653160E+03  0.92757518260E+02 0.  0.
          5    1    3    3  502    0  0.71249433742E+02  0.14107272835E+02 -0.12038739290E+02  0.73742122285E+02  0.41800000000E+01 0. -1.
         -5    1    3    3    0  502 -0.19020647699E+02  0.52291944603E+02 -0.99023401097E+02  0.11366326968E+03  0.41800000000E+01 0. -1.
        -11    1    4    4    0    0 -0.29992527955E+02 -0.57220333724E+02 -0.31660289791E+02  0.71945064280E+02  0.00000000000E+00 0. -1.
         11    1    4    4    0    0 -0.22236258088E+02 -0.91788837141E+01  0.49161269664E+02  0.54731467319E+02  0.00000000000E+00 0.  1.
</event>
<event>
 8    1  0.6965441E-009  0.1120072E+03  0.7561462E-02  0.1256897E+00
          2   -1    0    0  501    0  0.00000000000E+00  0.00000000000E+00  0.40741931130E+03  0.40741931130E+03  0.00000000000E+00 0.  1.
         -2   -1    0    0    0  501 -0.00000000000E+00 -0.00000000000E+00 -0.35952507277E+02  0.35952507277E+02  0.00000000000E+00 0. -1.
         25    2    1    2    0    0  0.15452395062E+02 -0.35966745889E+02  0.27650647344E+03  0.30599991813E+03  0.12509091381E+03 0.  0.
         23    2    1    2    0    0 -0.15452395062E+02  0.35966745889E+02  0.94960330584E+02  0.13737190045E+03  0.91220564159E+02 0.  0.
          5    1    3    3  502    0 -0.54558194827E+02 -0.23078915066E+02  0.13726592003E+03  0.14956148617E+03  0.41800000000E+01 0.  1.
         -5    1    3    3    0  502  0.70010589889E+02 -0.12887830823E+02  0.13924055342E+03  0.15643843196E+03  0.41800000000E+01 0.  1.
        -11    1    4    4    0    0  0.18396900928E+02  0.52512633304E+02  0.32529223152E+02  0.64452874095E+02  0.00000000000E+00 0. -1.
         11    1    4    4    0    0 -0.33849295990E+02 -0.16545887415E+02  0.62431107431E+02  0.72919026354E+02  0.00000000000E+00 0.  1.
</event>
<event>
 8    1  0.6965441E-009  0.1177727E+03  0.7561462E-02  0.1246817E+00
          2   -1    0    0  501    0  0.00000000000E+00  0.00000000000E+00  0.75961914777E+03  0.75961914777E+03  0.00000000000E+00 0.  1.
         -2   -1    0    0    0  501 -0.00000000000E+00 -0.00000000000E+00 -0.22400546282E+02  0.22400546282E+02  0.00000000000E+00 0. -1.
         25    2    1    2    0    0 -0.15384033859E+02 -0.73345984238E+02  0.41531602851E+03  0.44017172715E+03  0.12508974357E+03 0.  0.
         23    2    1    2    0    0  0.15384033859E+02  0.73345984238E+02  0.32190257298E+03  0.34184796690E+03  0.87306724144E+02 0.  0.
          5    1    3    3  502    0  0.13008499743E+01 -0.94180502457E+02  0.39571851702E+03  0.40679512825E+03  0.41800000000E+01 0. -1.
         -5    1    3    3    0  502 -0.16684883833E+02  0.20834518219E+02  0.19597511490E+02  0.33376598906E+02  0.41800000000E+01 0. -1.
        -11    1    4    4    0    0  0.49856460835E+02  0.27665945706E+02  0.14036562683E+03  0.15150439081E+03  0.00000000000E+00 0. -1.
         11    1    4    4    0    0 -0.34472426976E+02  0.45680038532E+02  0.18153694614E+03  0.19034357608E+03  0.00000000000E+00 0.  1.
</event>
<event>
 8    1  0.6965441E-009  0.1390253E+03  0.7561462E-02  0.1214647E+00
         -2   -1    0    0    0  501 -0.00000000000E+00  0.00000000000E+00  0.11414816972E+03  0.11414816972E+03  0.00000000000E+00 0.  1.
          2   -1    0    0  501    0  0.00000000000E+00 -0.00000000000E+00 -0.18077199133E+03  0.18077199133E+03  0.00000000000E+00 0. -1.
         25    2    1    2    0    0 -0.91153897565E+02  0.17016896975E+02 -0.41407697890E+02  0.16112645315E+03  0.12509407914E+03 0.  0.
         23    2    1    2    0    0  0.91153897565E+02 -0.17016896975E+02 -0.25216123727E+02  0.13379370790E+03  0.93092940404E+02 0.  0.
          5    1    3    3  502    0 -0.10274395038E+03 -0.22898356783E+02 -0.45963459667E+01  0.10544786806E+03  0.41800000000E+01 0.  1.
         -5    1    3    3    0  502  0.11590052815E+02  0.39915253757E+02 -0.36811351924E+02  0.55678585086E+02  0.41800000000E+01 0.  1.
        -11    1    4    4    0    0 -0.55242138395E+01  0.24936381648E+02 -0.50046949410E+00  0.25545851678E+02  0.00000000000E+00 0. -1.
         11    1    4    4    0    0  0.96678111405E+02 -0.41953278623E+02 -0.24715654233E+02  0.10824785622E+03  0.00000000000E+00 0.  1.
</event>
<event>
 8    1  0.6965441E-009  0.9137970E+02  0.7561462E-02  0.1299545E+00
         -2   -1    0    0    0  501 -0.00000000000E+00  0.00000000000E+00  0.12151602460E+03  0.12151602460E+03  0.00000000000E+00 0.  1.
          2   -1    0    0  501    0  0.00000000000E+00 -0.00000000000E+00 -0.16518872574E+03  0.16518872574E+03  0.00000000000E+00 0. -1.
         25    2    1    2    0    0 -0.68859263620E+02  0.51274746459E+02  0.30514012782E+01  0.15175078750E+03  0.12509313589E+03 0.  0.
         23    2    1    2    0    0  0.68859263620E+02 -0.51274746459E+02 -0.46724102418E+02  0.13495396285E+03  0.93052310723E+02 0.  0.
          5    1    3    3  502    0 -0.22985724221E+02  0.43327994268E+02  0.60301091699E+02  0.77841843923E+02  0.41800000000E+01 0. -1.
         -5    1    3    3    0  502 -0.45873539399E+02  0.79467521909E+01 -0.57249690420E+02  0.73908943576E+02  0.41800000000E+01 0. -1.
        -11    1    4    4    0    0  0.31446598084E+02 -0.31343920017E+02  0.25505402653E+02  0.51204056651E+02  0.00000000000E+00 0.  1.
         11    1    4    4    0    0  0.37412665536E+02 -0.19930826442E+02 -0.72229505071E+02  0.83749906197E+02  0.00000000000E+00 0. -1.
</event>
<event>
 8    1  0.6965441E-009  0.1173577E+03  0.7561462E-02  0.1247521E+00
          2   -1    0    0  501    0  0.00000000000E+00  0.00000000000E+00  0.10044152171E+04  0.10044152171E+04  0.00000000000E+00 0. -1.
         -2   -1    0    0    0  501 -0.00000000000E+00 -0.00000000000E+00 -0.17789095400E+02  0.17789095400E+02  0.00000000000E+00 0.  1.
         25    2    1    2    0    0 -0.50951015515E+02  0.39599036187E+02  0.71737362999E+03  0.73104992750E+03  0.12507990182E+03 0.  0.
         23    2    1    2    0    0  0.50951015515E+02 -0.39599036187E+02  0.26925249175E+03  0.29115438504E+03  0.90054883081E+02 0.  0.
          5    1    3    3  502    0 -0.35632556140E+02 -0.36549236420E+02  0.44016247441E+03  0.44313203678E+03  0.41800000000E+01 0.  1.
         -5    1    3    3    0  502 -0.15318459376E+02  0.76148272606E+02  0.27721115558E+03  0.28791789072E+03  0.41800000000E+01 0.  1.
        -11    1    4    4    0    0  0.51467717758E+02 -0.63538827363E+02  0.16452411557E+03  0.18372341483E+03  0.00000000000E+00 0.  1.
         11    1    4    4    0    0 -0.51670224259E+00  0.23939791176E+02  0.10472837618E+03  0.10743097021E+03  0.00000000000E+00 0. -1.
</event>
<event>
 8    1  0.6965441E-009  0.2634863E+03  0.7561462E-02  0.1105067E+00
          1   -1    0    0  501    0  0.00000000000E+00  0.00000000000E+00  0.79481410155E+02  0.79481410155E+02  0.00000000000E+00 0.  1.
         -1   -1    0    0    0  501 -0.00000000000E+00 -0.00000000000E+00 -0.93126640115E+03  0.93126640115E+03  0.00000000000E+00 0. -1.
         25    2    1    2    0    0  0.23043783828E+03 -0.75581643361E+02 -0.33332602009E+03  0.43077616149E+03  0.12509070112E+03 0.  0.
         23    2    1    2    0    0 -0.23043783828E+03  0.75581643361E+02 -0.51845897090E+03  0.57997164982E+03  0.93558687251E+02 0.  0.
          5    1    3    3  502    0  0.11368735778E+02  0.27743823043E+02 -0.30451392604E+02  0.42938649045E+02  0.41800000000E+01 0. -1.
         -5    1    3    3    0  502  0.21906910250E+03 -0.10332546640E+03 -0.30287462749E+03  0.38783751244E+03  0.41800000000E+01 0. -1.
        -11    1    4    4    0    0 -0.10703566795E+03  0.75610349664E+02 -0.32593706472E+03  0.35129550146E+03  0.00000000000E+00 0. -1.
         11    1    4    4    0    0 -0.12340217034E+03 -0.28706302936E-01 -0.19252190619E+03  0.22867614836E+03  0.00000000000E+00 0.  1.
</event>
<event>
 8    1  0.6965441E-009  0.9203191E+02  0.7561462E-02  0.1298004E+00
          2   -1    0    0  501    0  0.00000000000E+00  0.00000000000E+00  0.40814018368E+02  0.40814018368E+02  0.00000000000E+00 0. -1.
         -2   -1    0    0    0  501 -0.00000000000E+00 -0.00000000000E+00 -0.43527804291E+03  0.43527804291E+03  0.00000000000E+00 0.  1.
         25    2    1    2    0    0  0.56817326696E+02 -0.50921572250E+02 -0.19563243568E+03  0.24441773782E+03  0.12508703187E+03 0.  0.
         23    2    1    2    0    0 -0.56817326696E+02  0.50921572250E+02 -0.19883158886E+03  0.23167432345E+03  0.91201843640E+02 0.  0.
          5    1    3    3  502    0  0.31980292609E+02 -0.63738044220E+01  0.85092672604E+01  0.33959454170E+02  0.41800000000E+01 0.  1.
         -5    1    3    3    0  502  0.24837034087E+02 -0.44547767828E+02 -0.20414170294E+03  0.21045828365E+03  0.41800000000E+01 0.  1.
        -11    1    4    4    0    0 -0.13394072347E+01  0.44096497849E+02 -0.28786376544E+02  0.52677799962E+02  0.00000000000E+00 0. -1.
         11    1    4    4    0    0 -0.55477919462E+02  0.68250744006E+01 -0.17004521232E+03  0.17899652349E+03  0.00000000000E+00 0.  1.
</event>
<event>
 8    1  0.6965441E-009  0.1591101E+03  0.7561462E-02  0.1189705E+00
          2   -1    0    0  501    0  0.00000000000E+00  0.00000000000E+00  0.38786849784E+03  0.38786849784E+03  0.00000000000E+00 0. -1.
         -2   -1    0    0    0  501 -0.00000000000E+00 -0.00000000000E+00 -0.84383556415E+02  0.84383556415E+02  0.00000000000E+00 0.  1.
         25    2    1    2    0    0  0.12463236006E+03 -0.81213338167E+02  0.18674965650E+03  0.26953895649E+03  0.12508790265E+03 0.  0.
         23    2    1    2    0    0 -0.12463236006E+03  0.81213338167E+02  0.11673528492E+03  0.20271309777E+03  0.73052322281E+02 0.  0.
          5    1    3    3  502    0  0.37083862860E+02 -0.46308341484E+02 -0.93010139983E+00  0.59481197569E+02  0.41800000000E+01 0. -1.
         -5    1    3    3    0  502  0.87548497198E+02 -0.34904996683E+02  0.18767975790E+03  0.21005775892E+03  0.41800000000E+01 0. -1.
        -11    1    4    4    0    0 -0.13553399803E+02  0.45880191226E+02  0.22723344280E+02  0.52962599713E+02  0.00000000000E+00 0.  1.
         11    1    4    4    0    0 -0.11107896025E+03  0.35333146941E+02  0.94011940639E+02  0.14975049805E+03  0.00000000000E+00 0. -1.
</event>
<event>
 8    1  0.6965441E-009  0.1349891E+03  0.7561462E-02  0.1220235E+00
          1   -1    0    0  501    0  0.00000000000E+00  0.00000000000E+00  0.10715278662E+03  0.10715278662E+03  0.00000000000E+00 0. -1.
         -1   -1    0    0    0  501 -0.00000000000E+00 -0.00000000000E+00 -0.22998669341E+03  0.22998669341E+03  0.00000000000E+00 0.  1.
         25    2    1    2    0    0  0.28357556582E+02  0.10957236711E+03 -0.88631377994E+02  0.19055804367E+03  0.12508633895E+03 0.  0.
         23    2    1    2    0    0 -0.28357556582E+02 -0.10957236711E+03 -0.34202528794E+02  0.14658143636E+03  0.86637462221E+02 0.  0.
          5    1    3    3  502    0 -0.24097056085E+02  0.10347219424E+02  0.20811165788E+02  0.33738851243E+02  0.41800000000E+01 0.  1.
         -5    1    3    3    0  502  0.52454612667E+02  0.99225147690E+02 -0.10944254378E+03  0.15681919243E+03  0.41800000000E+01 0.  1.
        -11    1    4    4    0    0 -0.32325924057E+02 -0.13627455763E+02 -0.36367794163E+02  0.50530083802E+02  0.00000000000E+00 0.  1.
         11    1    4    4    0    0  0.39683674753E+01 -0.95944911352E+02  0.21652653697E+01  0.96051352561E+02  0.00000000000E+00 0. -1.
</event>
<event>
 8    1  0.6965441E-009  0.1322865E+03  0.7561462E-02  0.1224102E+00
          4   -1    0    0  501    0  0.00000000000E+00  0.00000000000E+00  0.16605999097E+03  0.16605999097E+03  0.00000000000E+00 0. -1.
         -4   -1    0    0    0  501 -0.00000000000E+00 -0.00000000000E+00 -0.17383897052E+03  0.17383897052E+03  0.00000000000E+00 0.  1.
         25    2    1    2    0    0 -0.30172943461E+02 -0.98010134005E+02  0.76878603414E+02  0.17909028854E+03  0.12508644572E+03 0.  0.
         23    2    1    2    0    0  0.30172943461E+02  0.98010134005E+02 -0.84657582956E+02  0.16080867295E+03  0.90421955617E+02 0.  0.
          5    1    3    3  502    0 -0.22637139788E+02 -0.12330733053E+03  0.36448442504E+02  0.13062579845E+03  0.41800000000E+01 0. -1.
         -5    1    3    3    0  502 -0.75358036731E+01  0.25297196523E+02  0.40430160910E+02  0.48464490095E+02  0.41800000000E+01 0. -1.
        -11    1    4    4    0    0 -0.10617891204E+02  0.40725907703E+02 -0.79921523105E+02  0.90326015229E+02  0.00000000000E+00 0.  1.
         11    1    4    4    0    0  0.40790834666E+02  0.57284226302E+02 -0.47360598516E+01  0.70482657716E+02  0.00000000000E+00 0. -1.
</event>
<event>
 8    1  0.6965441E-009  0.2359332E+03  0.7561462E-02  0.1122532E+00
         -2   -1    0    0    0  501 -0.00000000000E+00  0.00000000000E+00  0.71717038101E+02  0.71717038101E+02  0.00000000000E+00 0.  1.
          2   -1    0    0  501    0  0.00000000000E+00 -0.00000000000E+00 -0.87073515668E+03  0.87073515668E+03  0.00000000000E+00 0. -1.
         25    2    1    2    0    0 -0.11271909078E+03 -0.19146012232E+03 -0.35360383031E+03  0.43594281202E+03  0.12509154520E+03 0.  0.
         23    2    1    2    0    0  0.11271909078E+03  0.19146012232E+03 -0.44541428828E+03  0.50650938276E+03  0.93783232852E+02 0.  0.
          5    1    3    3  502    0  0.19671772969E+02 -0.98394658444E+01 -0.73262174697E+02  0.76606869021E+02  0.41800000000E+01 0.  1.
         -5    1    3    3    0  502 -0.13239086375E+03 -0.18162065647E+03 -0.28034165561E+03  0.35933594300E+03  0.41800000000E+01 0.  1.
        -11    1    4    4    0    0  0.40940643207E+02  0.40789035465E+02 -0.21087496445E+03  0.21865070846E+03  0.00000000000E+00 0. -1.
         11    1    4    4    0    0  0.71778447575E+02  0.15067108685E+03 -0.23453932383E+03  0.28785867430E+03  0.00000000000E+00 0.  1.
</event>
<event>
 8    1  0.6965441E-009  0.1183808E+03  0.7561462E-02  0.1245792E+00
          3   -1    0    0  501    0  0.00000000000E+00  0.00000000000E+00  0.57194103888E+02  0.57194103888E+02  0.00000000000E+00 0. -1.
         -3   -1    0    0    0  501 -0.00000000000E+00 -0.00000000000E+00 -0.40180631041E+03  0.40180631041E+03  0.00000000000E+00 0.  1.
         25    2    1    2    0    0 -0.20948813336E+02  0.10008906519E+03 -0.14350620186E+03  0.21609768384E+03  0.12508998856E+03 0.  0.
         23    2    1    2    0    0  0.20948813336E+02 -0.10008906519E+03 -0.20110600466E+03  0.24290273046E+03  0.90007986318E+02 0.  0.
          5    1    3    3  502    0 -0.19088909519E+02  0.21711440666E+02 -0.13384392517E+03  0.13699431312E+03  0.41800000000E+01 0. -1.
         -5    1    3    3    0  502 -0.18599038176E+01  0.78377624525E+02 -0.96622766877E+01  0.79103370720E+02  0.41800000000E+01 0. -1.
        -11    1    4    4    0    0 -0.22108681274E+02 -0.77146179209E+02 -0.16042837958E+03  0.17938113538E+03  0.00000000000E+00 0. -1.
         11    1    4    4    0    0  0.43057494610E+02 -0.22942885982E+02 -0.40677625086E+02  0.63521595083E+02  0.00000000000E+00 0.  1.
</event>
<event>
 8    1  0.6965441E-009  0.1303752E+03  0.7561462E-02  0.1226900E+00
         -1   -1    0    0    0  501 -0.00000000000E+00  0.00000000000E+00  0.66590748297E+02  0.66590748297E+02  0.00000000000E+00 0.  1.
          1   -1    0    0  501    0  0.00000000000E+00 -0.00000000000E+00 -0.33197092056E+03  0.33197092056E+03  0.00000000000E+00 0. -1.
         25    2    1    2    0    0  0.18252681529E+02  0.97905268537E+02 -0.17016395673E+03  0.23350129600E+03  0.12509388904E+03 0.  0.
         23    2    1    2    0    0 -0.18252681529E+02 -0.97905268537E+02 -0.95216215537E+02  0.16506037286E+03  0.90885625904E+02 0.  0.
          5    1    3    3  502    0  0.20825501458E+02  0.12768399666E+03 -0.14319980985E+03  0.19302995222E+03  0.41800000000E+01 0.  1.
         -5    1    3    3    0  502 -0.25728199291E+01 -0.29778728119E+02 -0.26964146883E+02  0.40471343787E+02  0.41800000000E+01 0.  1.
        -11    1    4    4    0    0  0.15945467771E+01 -0.37805726701E+02  0.12733512389E+02  0.39924402170E+02  0.00000000000E+00 0.  1.
         11    1    4    4    0    0 -0.19847228306E+02 -0.60099541835E+02 -0.10794972793E+03  0.12513597069E+03  0.00000000000E+00 0. -1.
</event>
<event>
 8    1  0.6965441E-009  0.7819835E+02  0.7561462E-02  0.1334243E+00
          3   -1    0    0  501    0  0.00000000000E+00  0.00000000000E+00  0.86563038309E+02  0.86563038309E+02  0.00000000000E+00 0. -1.
         -3   -1    0    0    0  501 -0.00000000000E+00 -0.00000000000E+00 -0.16520754776E+03  0.16520754776E+03  0.00000000000E+00 0.  1.
         25    2    1    2    0    0  0.37868886383E+02 -0.28628999003E+02 -0.58766576902E+02  0.14613187947E+03  0.12508934206E+03 0.  0.
         23    2    1    2    0    0 -0.37868886383E+02  0.28628999003E+02 -0.19877932552E+02  0.10563870660E+03  0.92253628601E+02 0.  0.
          5    1    3    3  502    0  0.41534305266E+02 -0.34299426256E+02  0.26722119614E+02  0.60275146056E+02  0.41800000000E+01 0.  1.
         -5    1    3    3    0  502 -0.36654188828E+01  0.56704272530E+01 -0.85488696516E+02  0.85856733415E+02  0.41800000000E+01 0.  1.
        -11    1    4    4    0    0 -0.45296442788E+02 -0.16862789678E+02 -0.32013240969E+02  0.57973864821E+02  0.00000000000E+00 0.  1.
         11    1    4    4    0    0  0.74275564046E+01  0.45491788681E+02  0.12135308417E+02  0.47664841780E+02  0.00000000000E+00 0. -1.
</event>
<event>
 8    1  0.6965441E-009  0.8994789E+02  0.7561462E-02  0.1302978E+00
         -2   -1    0    0    0  501 -0.00000000000E+00  0.00000000000E+00  0.43993538581E+02  0.43993538581E+02  0.00000000000E+00 0.  1.
          2   -1    0    0  501    0  0.00000000000E+00 -0.00000000000E+00 -0.31259762291E+03  0.31259762291E+03  0.00000000000E+00 0. -1.
         25    2    1    2    0    0  0.39669079068E+02  0.37613528675E+01 -0.20889337558E+03  0.24671991077E+03  0.12508592407E+03 0.  0.
         23    2    1    2    0    0 -0.39669079068E+02 -0.37613528675E+01 -0.59710708744E+02  0.10987125071E+03  0.83177757756E+02 0.  0.
          5    1    3    3  502    0  0.39359148563E+02 -0.49721898406E+02 -0.16690403261E+03  0.17859405998E+03  0.41800000000E+01 0. -1.
         -5    1    3    3    0  502  0.30993050441E+00  0.53483251274E+02 -0.41989342967E+02  0.68125850795E+02  0.41800000000E+01 0. -1.
        -11    1    4    4    0    0 -0.91876493139E+01 -0.24274644370E+02  0.12532085282E+02  0.28822290345E+02  0.00000000000E+00 0.  1.
         11    1    4    4    0    0 -0.30481429754E+02  0.20513291503E+02 -0.72242794027E+02  0.81048960369E+02  0.00000000000E+00 0. -1.
</event>
<event>
 8    1  0.6965441E-009  0.2709846E+03  0.7561462E-02  0.1100717E+00
          3   -1    0    0  501    0  0.00000000000E+00  0.00000000000E+00  0.33866271367E+03  0.33866271367E+03  0.00000000000E+00 0. -1.
         -3   -1    0    0    0  501 -0.00000000000E+00 -0.00000000000E+00 -0.32780550185E+03  0.32780550185E+03  0.00000000000E+00 0.  1.
         25    2    1    2    0    0  0.15823978644E+02  0.24803083631E+03  0.19830371999E+03  0.34167556635E+03  0.12509249866E+03 0.  0.
         23    2    1    2    0    0 -0.15823978644E+02 -0.24803083631E+03 -0.18744650817E+03  0.32479264917E+03  0.92651915642E+02 0.  0.
          5    1    3    3  502    0 -0.45021530186E+02  0.18455773282E+03  0.12945355621E+03  0.22992214017E+03  0.41800000000E+01 0.  1.
         -5    1    3    3    0  502  0.60845508831E+02  0.63473103485E+02  0.68850163779E+02  0.11175342618E+03  0.41800000000E+01 0.  1.
        -11    1    4    4    0    0  0.34444914965E+02 -0.58917213800E+02 -0.34750994094E+02  0.76585389203E+02  0.00000000000E+00 0.  1.
         11    1    4    4    0    0 -0.50268893610E+02 -0.18911362251E+03 -0.15269551408E+03  0.24820725997E+03  0.00000000000E+00 0. -1.
</event>
<event>
 8    1  0.6965441E-009  0.8988446E+02  0.7561462E-02  0.1303132E+00
          2   -1    0    0  501    0  0.00000000000E+00  0.00000000000E+00  0.13436069830E+03  0.13436069830E+03  0.00000000000E+00 0. -1.
         -2   -1    0    0    0  501 -0.00000000000E+00 -0.00000000000E+00 -0.19593328128E+03  0.19593328128E+03  0.00000000000E+00 0.  1.
         25    2    1    2    0    0  0.23642108209E+02 -0.59030557668E+02  0.70437978364E+02  0.15701116334E+03  0.12508973018E+03 0.  0.
         23    2    1    2    0    0 -0.23642108209E+02  0.59030557668E+02 -0.13201056135E+03  0.17328281624E+03  0.92501838248E+02 0.  0.
          5    1    3    3  502    0  0.38096894013E+02 -0.72375302396E+02 -0.19110000936E+01  0.81918752747E+02  0.41800000000E+01 0.  1.
         -5    1    3    3    0  502 -0.14454785804E+02  0.13344744728E+02  0.72348978457E+02  0.75092410591E+02  0.41800000000E+01 0.  1.
        -11    1    4    4    0    0  0.11058744409E+02  0.31747403296E+02 -0.12392795246E+03  0.12840689562E+03  0.00000000000E+00 0.  1.
         11    1    4    4    0    0 -0.34700852618E+02  0.27283154372E+02 -0.80826088896E+01  0.44875920619E+02  0.00000000000E+00 0. -1.
</event>
<event>
 8    1  0.6965441E-009  0.1174327E+03  0.7561462E-02  0.1247393E+00
         -2   -1    0    0    0  501 -0.00000000000E+00  0.00000000000E+00  0.11650006146E+02  0.11650006146E+02  0.00000000000E+00 0.  1.
          2   -1    0    0  501    0  0.00000000000E+00 -0.00000000000E+00 -0.13090865098E+04  0.13090865098E+04  0.00000000000E+00 0. -1.
         25    2    1    2    0    0 -0.44095546666E+02 -0.27762821845E+02 -0.86701792958E+03  0.87754354323E+03  0.12508952213E+03 0.  0.
         23    2    1    2    0    0  0.44095546666E+02  0.27762821845E+02 -0.43041857412E+03  0.44319297275E+03  0.91894889088E+02 0.  0.
          5    1    3    3  502    0  0.40694189306E+02 -0.16611332109E+02 -0.42668635713E+03  0.42896465257E+03  0.41800000000E+01 0.  1.
         -5    1    3    3    0  502 -0.84789735973E+02 -0.11151489735E+02 -0.44033157245E+03  0.44857889066E+03  0.41800000000E+01 0.  1.
        -11    1    4    4    0    0  0.65732173204E+02 -0.48971917778E+01 -0.29122580621E+03  0.29859198128E+03  0.00000000000E+00 0. -1.
         11    1    4    4    0    0 -0.21636626538E+02  0.32660013622E+02 -0.13919276791E+03  0.14460099147E+03  0.00000000000E+00 0.  1.
</event>
<event>
 8    1  0.6965441E-009  0.2890340E+03  0.7561462E-02  0.1090855E+00
         -2   -1    0    0    0  501 -0.00000000000E+00  0.00000000000E+00  0.73518137715E+02  0.73518137715E+02  0.00000000000E+00 0.  1.
          2   -1    0    0  501    0  0.00000000000E+00 -0.00000000000E+00 -0.12589789448E+04  0.12589789448E+04  0.00000000000E+00 0. -1.
         25    2    1    2    0    0  0.27741726168E+03  0.46014279985E+02 -0.68315200262E+03  0.74928079843E+03  0.12508958860E+03 0.  0.
         23    2    1    2    0    0 -0.27741726168E+03 -0.46014279985E+02 -0.50230880448E+03  0.58321628410E+03  0.93538483751E+02 0.  0.
          5    1    3    3  502    0  0.15861174293E+03 -0.19556860416E-01 -0.51100179609E+03  0.53506821377E+03  0.41800000000E+01 0. -1.
         -5    1    3    3    0  502  0.11880551875E+03  0.46033836845E+02 -0.17215020653E+03  0.21421258466E+03  0.41800000000E+01 0. -1.
        -11    1    4    4    0    0 -0.25286756739E+03 -0.16322349730E+02 -0.39590444779E+03  0.47005186684E+03  0.00000000000E+00 0.  1.
         11    1    4    4    0    0 -0.24549694289E+02 -0.29691930255E+02 -0.10640435668E+03  0.11316441726E+03  0.00000000000E+00 0. -1.
</event>
<event>
 8    1  0.6965441E-009  0.6648759E+02  0.7561462E-02  0.1372462E+00
          2   -1    0    0  501    0  0.00000000000E+00  0.00000000000E+00  0.23510706540E+02  0.23510706540E+02  0.00000000000E+00 0.  1.
         -2   -1    0    0    0  501 -0.00000000000E+00 -0.00000000000E+00 -0.47107181479E+03  0.47107181479E+03  0.00000000000E+00 0. -1.
         25    2    1    2    0    0 -0.65487229844E+01  0.40903733662E+01 -0.26581252851E+03  0.29387476582E+03  0.12508581354E+03 0.  0.
         23    2    1    2    0    0  0.65487229844E+01 -0.40903733662E+01 -0.18174857975E+03  0.20070775551E+03  0.84802358197E+02 0.  0.
          5    1    3    3  502    0  0.13354738901E+02 -0.20679934426E+02  0.11492334611E+01  0.24996037216E+02  0.41800000000E+01 0. -1.
         -5    1    3    3    0  502 -0.19903461885E+02  0.24770307792E+02 -0.26696176197E+03  0.26887872860E+03  0.41800000000E+01 0. -1.
        -11    1    4    4    0    0 -0.65426407788E+01  0.34546865299E+02 -0.40245290340E+02  0.53441327125E+02  0.00000000000E+00 0.  1.
         11    1    4    4    0    0  0.13091363763E+02 -0.38637238665E+02 -0.14150328941E+03  0.14726642839E+03  0.00000000000E+00 0. -1.
</event>
<event>
 8    1  0.6965441E-009  0.1073251E+03  0.7561462E-02  0.1265605E+00
          2   -1    0    0  501    0  0.00000000000E+00  0.00000000000E+00  0.28197120032E+03  0.28197120032E+03  0.00000000000E+00 0.  1.
         -2   -1    0    0    0  501 -0.00000000000E+00 -0.00000000000E+00 -0.18590018061E+03  0.18590018061E+03  0.00000000000E+00 0. -1.
         25    2    1    2    0    0  0.69368044776E+02  0.26117306871E+02 -0.14129087429E+03  0.20274980184E+03  0.12510128551E+03 0.  0.
         23    2    1    2    0    0 -0.69368044776E+02 -0.26117306871E+02  0.23736189400E+03  0.26512157910E+03  0.91949679857E+02 0.  0.
          5    1    3    3  502    0  0.42972192803E+02 -0.33357051996E+02 -0.90462219968E+01  0.55304690620E+02  0.41800000000E+01 0. -1.
         -5    1    3    3    0  502  0.26395851973E+02  0.59474358867E+02 -0.13224465229E+03  0.14744511122E+03  0.41800000000E+01 0. -1.
        -11    1    4    4    0    0 -0.56245340774E+02 -0.44903914806E+02  0.23008366343E+03  0.24107756449E+03  0.00000000000E+00 0.  1.
         11    1    4    4    0    0 -0.13122704003E+02  0.18786607935E+02  0.72782305656E+01  0.24044014603E+02  0.00000000000E+00 0. -1.
</event>
<event>
 8    1  0.6965441E-009  0.1016202E+03  0.7561462E-02  0.1276925E+00
         -1   -1    0    0    0  501 -0.00000000000E+00  0.00000000000E+00  0.17120793451E+02  0.17120793451E+02  0.00000000000E+00 0.  1.
          1   -1    0    0  501    0  0.00000000000E+00 -0.00000000000E+00 -0.74980845859E+03  0.74980845859E+03  0.00000000000E+00 0. -1.
         25    2    1    2    0    0  0.27885585257E+02 -0.30914024608E+01 -0.51420067109E+03  0.52993966838E+03  0.12508620762E+03 0.  0.
         23    2    1    2    0    0 -0.27885585257E+02  0.30914024608E+01 -0.21848699405E+03  0.23698958367E+03  0.87409001607E+02 0.  0.
          5    1    3    3  502    0 -0.12676414363E+02  0.52361677374E+02 -0.30373916019E+03  0.30850832496E+03  0.41800000000E+01 0.  1.
         -5    1    3    3    0  502  0.40561999620E+02 -0.55453079835E+02 -0.21046151090E+03  0.22143134342E+03  0.41800000000E+01 0.  1.
        -11    1    4    4    0    0  0.12822686577E+02 -0.26906343774E+02 -0.14338725205E+03  0.14645230171E+03  0.00000000000E+00 0. -1.
         11    1    4    4    0    0 -0.40708271833E+02  0.29997746235E+02 -0.75099742004E+02  0.90537281955E+02  0.00000000000E+00 0.  1.
</event>
<event>
 8    1  0.6965441E-009  0.8782981E+02  0.7561462E-02  0.1308194E+00
         -2   -1    0    0    0  501 -0.00000000000E+00  0.00000000000E+00  0.10361580404E+03  0.10361580404E+03  0.00000000000E+00 0.  1.
          2   -1    0    0  501    0  0.00000000000E+00 -0.00000000000E+00 -0.15416057409E+03  0.15416057409E+03  0.00000000000E+00 0. -1.
         25    2    1    2    0    0 -0.20905568140E+02  0.61059834795E+02 -0.20791603299E+02  0.14228710952E+03  0.12509190446E+03 0.  0.
         23    2    1    2    0    0  0.20905568140E+02 -0.61059834795E+02 -0.29753166752E+02  0.11548926861E+03  0.91033916909E+02 0.  0.
          5    1    3    3  502    0 -0.38285091982E+02  0.39100323551E+02 -0.67910571614E+02  0.87314956948E+02  0.41800000000E+01 0. -1.
         -5    1    3    3    0  502  0.17379523841E+02  0.21959511244E+02  0.47118968315E+02  0.54972152569E+02  0.41800000000E+01 0. -1.
        -11    1    4    4    0    0  0.14727892333E+02  0.12088494903E+02  0.19362267282E+02  0.27165049528E+02  0.00000000000E+00 0.  1.
         11    1    4    4    0    0  0.61776758074E+01 -0.73148329698E+02 -0.49115434034E+02  0.88324219082E+02  0.00000000000E+00 0. -1.
</event>
<event>
 8    1  0.6965441E-009  0.9715555E+02  0.7561462E-02  0.1286394E+00
          2   -1    0    0  501    0  0.00000000000E+00  0.00000000000E+00  0.90558154137E+03  0.90558154137E+03  0.00000000000E+00 0. -1.
         -2   -1    0    0    0  501 -0.00000000000E+00 -0.00000000000E+00 -0.20389011448E+02  0.20389011448E+02  0.00000000000E+00 0.  1.
         25    2    1    2    0    0 -0.74147467249E+02  0.12803054530E+01  0.59304975722E+03  0.61061951662E+03  0.12509473789E+03 0.  0.
         23    2    1    2    0    0  0.74147467249E+02 -0.12803054530E+01  0.29214277270E+03  0.31535103621E+03  0.92732897683E+02 0.  0.
          5    1    3    3  502    0 -0.62021869251E+02  0.61332168603E+01  0.10357574977E+03  0.12095344954E+03  0.41800000000E+01 0. -1.
         -5    1    3    3    0  502 -0.12125597998E+02 -0.48529114074E+01  0.48947400745E+03  0.48966606708E+03  0.41800000000E+01 0. -1.
        -11    1    4    4    0    0 -0.83506069388E+01 -0.29720038327E+02  0.63060195847E+02  0.70211121730E+02  0.00000000000E+00 0.  1.
         11    1    4    4    0    0  0.82498074188E+02  0.28439732874E+02  0.22908257685E+03  0.24513991448E+03  0.00000000000E+00 0. -1.
</event>
<event>
 8    1  0.6965441E-009  0.1063321E+03  0.7561462E-02  0.1267517E+00
          1   -1    0    0  501    0  0.00000000000E+00  0.00000000000E+00  0.67976564124E+03  0.67976564124E+03  0.00000000000E+00 0. -1.
         -1   -1    0    0    0  501 -0.00000000000E+00 -0.00000000000E+00 -0.17789308831E+02  0.17789308831E+02  0.00000000000E+00 0.  1.
         25    2    1    2    0    0 -0.10180228700E+02 -0.16266705816E+02  0.36762813005E+03  0.38880106023E+03  0.12509028604E+03 0.  0.
         23    2    1    2    0    0  0.10180228700E+02  0.16266705816E+02  0.29434820236E+03  0.30875388984E+03  0.91213252775E+02 0.  0.
          5    1    3    3  502    0  0.35784113445E+01 -0.68670032997E+02  0.24835491886E+03  0.25773245155E+03  0.41800000000E+01 0.  1.
         -5    1    3    3    0  502 -0.13758640045E+02  0.52403327182E+02  0.11927321119E+03  0.13106860869E+03  0.41800000000E+01 0.  1.
        -11    1    4    4    0    0  0.48853208839E+02  0.13384294223E+02  0.12201985556E+03  0.13211593581E+03  0.00000000000E+00 0.  1.
         11    1    4    4    0    0 -0.38672980139E+02  0.28824115931E+01  0.17232834680E+03  0.17663795402E+03  0.00000000000E+00 0. -1.
</event>
<event>
 8    1  0.6965441E-009  0.8791358E+02  0.7561462E-02  0.1307984E+00
          2   -1    0    0  501    0  0.00000000000E+00  0.00000000000E+00  0.11938778943E+03  0.11938778943E+03  0.00000000000E+00 0. -1.
         -2   -1    0    0    0  501 -0.00000000000E+00 -0.00000000000E+00 -0.11857758994E+03  0.11857758994E+03  0.00000000000E+00 0.  1.
         25    2    1    2    0    0  0.37649019337E+02 -0.96969705441E+01 -0.28862326425E+02  0.13412835810E+03  0.12508358272E+03 0.  0.
         23    2    1    2    0    0 -0.37649019337E+02  0.96969705441E+01  0.29672525918E+02  0.10383702127E+03  0.91597971035E+02 0.  0.
          5    1    3    3  502    0  0.56623128135E+02 -0.14023545404E+02  0.34371310109E+02  0.67835815201E+02  0.41800000000E+01 0. -1.
         -5    1    3    3    0  502 -0.18974108798E+02  0.43265748597E+01 -0.63233636534E+02  0.66292542899E+02  0.41800000000E+01 0. -1.
        -11    1    4    4    0    0 -0.10053009188E+01  0.45909614235E+02  0.24533040143E+02  0.52063167093E+02  0.00000000000E+00 0. -1.
         11    1    4    4    0    0 -0.36643718418E+02 -0.36212643691E+02  0.51394857748E+01  0.51773854179E+02  0.00000000000E+00 0.  1.
</event>
<event>
 8    1  0.6965441E-009  0.1231011E+03  0.7561462E-02  0.1238067E+00
         -2   -1    0    0    0  501 -0.00000000000E+00  0.00000000000E+00  0.28821103957E+03  0.28821103957E+03  0.00000000000E+00 0.  1.
          2   -1    0    0  501    0  0.00000000000E+00 -0.00000000000E+00 -0.79441750339E+02  0.79441750339E+02  0.00000000000E+00 0. -1.
         25    2    1    2    0    0  0.79621875029E+02 -0.30428238701E+01  0.19465227684E+03  0.24472474152E+03  0.12510710801E+03 0.  0.
         23    2    1    2    0    0 -0.79621875029E+02  0.30428238701E+01  0.14117012391E+02  0.12292804839E+03  0.92537091380E+02 0.  0.
          5    1    3    3  502    0 -0.31984240622E+02  0.76382308522E+01  0.67167110697E+02  0.74901451108E+02  0.41800000000E+01 0.  1.
         -5    1    3    3    0  502  0.11160611565E+03 -0.10681054722E+02  0.12748516614E+03  0.16982329041E+03  0.41800000000E+01 0.  1.
        -11    1    4    4    0    0  0.91845656902E+01 -0.69155857888E+01  0.30033281314E+02  0.32158662289E+02  0.00000000000E+00 0.  1.
         11    1    4    4    0    0 -0.88806440719E+02  0.99584096589E+01 -0.15916268923E+02  0.90769386097E+02  0.00000000000E+00 0. -1.
</event>
<event>
 8    1  0.6965441E-009  0.1346777E+03  0.7561462E-02  0.1220675E+00
         -4   -1    0    0    0  501 -0.00000000000E+00  0.00000000000E+00  0.38637713106E+02  0.38637713106E+02  0.00000000000E+00 0.  1.
          4   -1    0    0  501    0  0.00000000000E+00 -0.00000000000E+00 -0.60639944860E+03  0.60639944860E+03  0.00000000000E+00 0. -1.
         25    2    1    2    0    0 -0.31093698109E+02 -0.93388059269E+02 -0.20779498350E+03  0.26175308095E+03  0.12509105699E+03 0.  0.
         23    2    1    2    0    0  0.31093698109E+02  0.93388059269E+02 -0.35996675199E+03  0.38328408076E+03  0.87421257992E+02 0.  0.
          5    1    3    3  502    0 -0.48838817075E+02 -0.54438256102E+01 -0.14227380052E+03  0.15057945412E+03  0.41800000000E+01 0. -1.
         -5    1    3    3    0  502  0.17745118967E+02 -0.87944233659E+02 -0.65521182987E+02  0.11117362682E+03  0.41800000000E+01 0. -1.
        -11    1    4    4    0    0 -0.29525018184E+02  0.23711470455E+02 -0.13187701093E+03  0.13720607327E+03  0.00000000000E+00 0.  1.
         11    1    4    4    0    0  0.60618716293E+02  0.69676588814E+02 -0.22808974106E+03  0.24607800749E+03  0.00000000000E+00 0. -1.
</event>
<event>
 8    1  0.6965441E-009  0.1711908E+03  0.7561462E-02  0.1176612E+00
          2   -1    0    0  501    0  0.00000000000E+00  0.00000000000E+00  0.48779912879E+03  0.48779912879E+03  0.00000000000E+00 0. -1.
         -2   -1    0    0    0  501 -0.00000000000E+00 -0.00000000000E+00 -0.81127113813E+02  0.81127113813E+02  0.00000000000E+00 0.  1.
         25    2    1    2    0    0 -0.15860799183E+03  0.23645872835E+01  0.14305037059E+03  0.24753132943E+03  0.12508502780E+03 0.  0.
         23    2    1    2    0    0  0.15860799183E+03 -0.23645872835E+01  0.26362164439E+03  0.32139491317E+03  0.92931332059E+02 0.  0.
          5    1    3    3  502    0  0.33484128526E+01  0.11104378341E+02  0.67394864192E+02  0.68513204614E+02  0.41800000000E+01 0. -1.
         -5    1    3    3    0  502 -0.16195640468E+03 -0.87397910571E+01  0.75655506395E+02  0.17901812482E+03  0.41800000000E+01 0. -1.
        -11    1    4    4    0    0  0.99040588994E+02 -0.28052920479E+02  0.22093968357E+03  0.24374238120E+03  0.00000000000E+00 0. -1.
         11    1    4    4    0    0  0.59567402833E+02  0.25688333195E+02  0.42681960816E+02  0.77652531972E+02  0.00000000000E+00 0.  1.
</event>
<event>
 8    1  0.6965441E-009  0.3185788E+03  0.7561462E-02  0.1076305E+00
         -1   -1    0    0    0  501 -0.00000000000E+00  0.00000000000E+00  0.27738972694E+03  0.27738972694E+03  0.00000000000E+00 0.  1.
          1   -1    0    0  501    0  0.00000000000E+00 -0.00000000000E+00 -0.42675120148E+03  0.42675120148E+03  0.00000000000E+00 0. -1.
         25    2    1    2    0    0 -0.30125161589E+03 -0.57068442055E+02  0.38677790817E+02  0.33339762064E+03  0.12509459938E+03 0.  0.
         23    2    1    2    0    0  0.30125161589E+03  0.57068442055E+02 -0.18803926536E+03  0.37074330779E+03  0.89902679591E+02 0.  0.
          5    1    3    3  502    0 -0.14634843451E+03  0.34631544753E+02  0.27921740633E+02  0.15301733292E+03  0.41800000000E+01 0.  1.
         -5    1    3    3    0  502 -0.15490318138E+03 -0.91699986808E+02  0.10756050184E+02  0.18038028772E+03  0.41800000000E+01 0.  1.
        -11    1    4    4    0    0  0.25448635792E+03  0.46362586667E+02 -0.19267210780E+03  0.32254509287E+03  0.00000000000E+00 0. -1.
         11    1    4    4    0    0  0.46765257965E+02  0.10705855388E+02  0.46328424370E+01  0.48198214917E+02  0.00000000000E+00 0.  1.
</event>
<event>
 8    1  0.6965441E-009  0.1285899E+03  0.7561462E-02  0.1229563E+00
          1   -1    0    0  501    0  0.00000000000E+00  0.00000000000E+00  0.13413927005E+03  0.13413927005E+03  0.00000000000E+00 0. -1.
         -1   -1    0    0    0  501 -0.00000000000E+00 -0.00000000000E+00 -0.15205611839E+03  0.15205611839E+03  0.00000000000E+00 0.  1.
         25    2    1    2    0    0  0.33780367156E+02  0.80677187925E+02 -0.37176462153E+02  0.15709759439E+03  0.12509053909E+03 0.  0.
         23    2    1    2    0    0 -0.33780367156E+02 -0.80677187925E+02  0.19259613806E+02  0.12909779405E+03  0.92980567044E+02 0.  0.
          5    1    3    3  502    0  0.72938695750E+02  0.68417360441E+02  0.21408122351E+01  0.10011515382E+03  0.41800000000E+01 0.  1.
         -5    1    3    3    0  502 -0.39158328594E+02  0.12259827484E+02 -0.39317274388E+02  0.56982440572E+02  0.41800000000E+01 0.  1.
        -11    1    4    4    0    0 -0.40426326233E+02 -0.93241900999E+02 -0.41473206846E+01  0.10171302878E+03  0.00000000000E+00 0.  1.
         11    1    4    4    0    0  0.66459590770E+01  0.12564713073E+02  0.23406934491E+02  0.27384765270E+02  0.00000000000E+00 0. -1.
</event>
<event>
 8    1  0.6965441E-009  0.1242475E+03  0.7561462E-02  0.1236250E+00
         -1   -1    0    0    0  501 -0.00000000000E+00  0.00000000000E+00  0.16665859438E+03  0.16665859438E+03  0.00000000000E+00 0.  1.
          1   -1    0    0  501    0  0.00000000000E+00 -0.00000000000E+00 -0.15457241998E+03  0.15457241998E+03  0.00000000000E+00 0. -1.
         25    2    1    2    0    0 -0.15475036383E+02 -0.93249734133E+02 -0.64726344855E+02  0.16962233730E+03  0.12508896005E+03 0.  0.
         23    2    1    2    0    0  0.15475036383E+02  0.93249734133E+02  0.76812519252E+02  0.15160867706E+03  0.90277561879E+02 0.  0.
          5    1    3    3  502    0 -0.28721881475E+01  0.15214590609E+02 -0.57961236769E+02  0.60139093773E+02  0.41800000000E+01 0. -1.
         -5    1    3    3    0  502 -0.12602848236E+02 -0.10846432474E+03 -0.67651080869E+01  0.10948324353E+03  0.41800000000E+01 0. -1.
        -11    1    4    4    0    0  0.44881325646E+02  0.31631839021E+02  0.94861311418E+01  0.55721569573E+02  0.00000000000E+00 0.  1.
         11    1    4    4    0    0 -0.29406289262E+02  0.61617895112E+02  0.67326388111E+02  0.95887107487E+02  0.00000000000E+00 0. -1.
</event>
<event>
 8    1  0.6965441E-009  0.1406722E+03  0.7561462E-02  0.1212427E+00
          1   -1    0    0  501    0  0.00000000000E+00  0.00000000000E+00  0.21184113438E+03  0.21184113438E+03  0.00000000000E+00 0. -1.
         -1   -1    0    0    0  501 -0.00000000000E+00 -0.00000000000E+00 -0.11989607892E+03  0.11989607892E+03  0.00000000000E+00 0.  1.
         25    2    1    2    0    0 -0.90558390571E+02 -0.71380222955E+02 -0.20347560668E+01  0.17013995514E+03  0.12508999069E+03 0.  0.
         23    2    1    2    0    0  0.90558390571E+02  0.71380222955E+02  0.93979811533E+02  0.16159725816E+03  0.63130900018E+02 0.  0.
          5    1    3    3  502    0  0.23269424694E+02  0.95648126368E+01  0.14648414581E+02  0.29410886013E+02  0.41800000000E+01 0. -1.
         -5    1    3    3    0  502 -0.11382781526E+03 -0.80945035592E+02 -0.16683170648E+02  0.14072906913E+03  0.41800000000E+01 0. -1.
        -11    1    4    4    0    0  0.70960068856E+02  0.48363618586E+02  0.30224114709E+02  0.91037728908E+02  0.00000000000E+00 0.  1.
         11    1    4    4    0    0  0.19598321715E+02  0.23016604369E+02  0.63755696824E+02  0.70559529252E+02  0.00000000000E+00 0. -1.
</event>
<event>
 8    1  0.6965441E-009  0.1632478E+03  0.7561462E-02  0.1185078E+00
         -1   -1    0    0    0  501 -0.00000000000E+00  0.00000000000E+00  0.13755840499E+03  0.13755840499E+03  0.00000000000E+00 0.  1.
          1   -1    0    0  501    0  0.00000000000E+00 -0.00000000000E+00 -0.26755307587E+03  0.26755307587E+03  0.00000000000E+00 0. -1.
         25    2    1    2    0    0  0.54273684859E+02 -0.14799597191E+03 -0.57076441713E+02  0.20917941094E+03  0.12509942124E+03 0.  0.
         23    2    1    2    0    0 -0.54273684859E+02  0.14799597191E+03 -0.72918229166E+02  0.19593206991E+03  0.90685540779E+02 0.  0.
          5    1    3    3  502    0 -0.10868124750E+02 -0.38080884791E+02 -0.70161635166E+02  0.80674638959E+02  0.41800000000E+01 0.  1.
         -5    1    3    3    0  502  0.65141809609E+02 -0.10991508712E+03  0.13085193453E+02  0.12850477198E+03  0.41800000000E+01 0.  1.
        -11    1    4    4    0    0 -0.11625732557E+02  0.59199268506E+02 -0.76418274584E+02  0.97362537660E+02  0.00000000000E+00 0. -1.
         11    1    4    4    0    0 -0.42647952303E+02  0.88796703401E+02  0.35000454182E+01  0.98569532252E+02  0.00000000000E+00 0.  1.
</event>
<event>
 8    1  0.6965441E-009  0.1544764E+03  0.7561462E-02  0.1195078E+00
          2   -1    0    0  501    0  0.00000000000E+00  0.00000000000E+00  0.36556206488E+03  0.36556206488E+03  0.00000000000E+00 0. -1.
         -2   -1    0    0    0  501 -0.00000000000E+00 -0.00000000000E+00 -0.79447190062E+02  0.79447190062E+02  0.00000000000E+00 0.  1.
         25    2    1    2    0    0 -0.87670958294E+02 -0.92637565880E+02  0.11287436689E+03  0.21131943248E+03  0.12508942523E+03 0.  0.
         23    2    1    2    0    0  0.87670958294E+02  0.92637565880E+02  0.17324050793E+03  0.23368982246E+03  0.91272909423E+02 0.  0.
          5    1    3    3  502    0  0.25548012235E+02 -0.47785099942E+02  0.51550682944E+02  0.74907022486E+02  0.41800000000E+01 0.  1.
         -5    1    3    3    0  502 -0.11321897053E+03 -0.44852465938E+02  0.61323683949E+02  0.13641241000E+03  0.41800000000E+01 0.  1.
        -11    1    4    4    0    0  0.39681823520E+02  0.16982575229E+02  0.54859323704E+01  0.43510348576E+02  0.00000000000E+00 0.  1.
         11    1    4    4    0    0  0.47989134775E+02  0.75654990651E+02  0.16775457556E+03  0.19017947388E+03  0.00000000000E+00 0. -1.
</event>
<event>
 8    1  0.6965441E-009  0.1221618E+03  0.7561462E-02  0.1239573E+00
          1   -1    0    0  501    0  0.00000000000E+00  0.00000000000E+00  0.10985231597E+03  0.10985231597E+03  0.00000000000E+00 0. -1.
         -1   -1    0    0    0  501 -0.00000000000E+00 -0.00000000000E+00 -0.28092672114E+03  0.28092672114E+03  0.00000000000E+00 0.  1.
         25    2    1    2    0    0 -0.18510175551E+02 -0.88741990845E+02  0.26358718455E+02  0.15671846208E+03  0.12509247291E+03 0.  0.
         23    2    1    2    0    0  0.18510175551E+02  0.88741990845E+02 -0.19743312363E+03  0.23406057504E+03  0.87101934230E+02 0.  0.
          5    1    3    3  502    0  0.22246374058E+02 -0.16398741393E+01  0.52313235425E+02  0.57024006757E+02  0.41800000000E+01 0. -1.
         -5    1    3    3    0  502 -0.40756549609E+02 -0.87102116706E+02 -0.25954516970E+02  0.99694455321E+02  0.41800000000E+01 0. -1.
        -11    1    4    4    0    0  0.29518024496E+02 -0.58915806090E+01 -0.40282092158E+02  0.50285897037E+02  0.00000000000E+00 0.  1.
         11    1    4    4    0    0 -0.11007848945E+02  0.94633571454E+02 -0.15715103147E+03  0.18377467800E+03  0.00000000000E+00 0. -1.
</event>
<event>
 8    1  0.6965441E-009  0.1263111E+03  0.7561462E-02  0.1233034E+00
         -1   -1    0    0    0  501 -0.00000000000E+00  0.00000000000E+00  0.10487241898E+03  0.10487241898E+03  0.00000000000E+00 0.  1.
          1   -1    0    0  501    0  0.00000000000E+00 -0.00000000000E+00 -0.19418204284E+03  0.19418204284E+03  0.00000000000E+00 0. -1.
         25    2    1    2    0    0 -0.64841736663E+02 -0.47397863905E+02 -0.10011316169E+03  0.17922351404E+03  0.12508962596E+03 0.  0.
         23    2    1    2    0    0  0.64841736663E+02  0.47397863905E+02  0.10803537837E+02  0.11983094778E+03  0.88270783958E+02 0.  0.
          5    1    3    3  502    0 -0.21484637732E+02 -0.78147019113E+02 -0.96059505418E+02  0.12575152976E+03  0.41800000000E+01 0.  1.
         -5    1    3    3    0  502 -0.43357098930E+02  0.30749155208E+02 -0.40536562723E+01  0.53471984280E+02  0.41800000000E+01 0.  1.
        -11    1    4    4    0    0  0.21737354947E+02 -0.25471652933E+02  0.10742953914E+02  0.35167154591E+02  0.00000000000E+00 0. -1.
         11    1    4    4    0    0  0.43104381715E+02  0.72869516838E+02  0.60583923048E-01  0.84663793192E+02  0.00000000000E+00 0.  1.
</event>
<event>
 8    1  0.6965441E-009  0.1090360E+03  0.7561462E-02  0.1262366E+00
         -2   -1    0    0    0  501 -0.00000000000E+00  0.00000000000E+00  0.62648828435E+03  0.62648828435E+03  0.00000000000E+00 0.  1.
          2   -1    0    0  501    0  0.00000000000E+00 -0.00000000000E+00 -0.27023461658E+02  0.27023461658E+02  0.00000000000E+00 0. -1.
         25    2    1    2    0    0  0.41945689834E+02  0.14382799404E+02  0.47661100646E+03  0.49473233755E+03  0.12504290671E+03 0.  0.
         23    2    1    2    0    0 -0.41945689834E+02 -0.14382799404E+02  0.12285381623E+03  0.15877940846E+03  0.90285849250E+02 0.  0.
          5    1    3    3  502    0  0.63732475393E+02 -0.27951488682E+02  0.38643183739E+03  0.39267053809E+03  0.41800000000E+01 0.  1.
         -5    1    3    3    0  502 -0.21786785559E+02  0.42334288087E+02  0.90179169076E+02  0.10206179946E+03  0.41800000000E+01 0.  1.
        -11    1    4    4    0    0 -0.51040272906E+02  0.27309248274E+02  0.72567920874E+02  0.92827838711E+02  0.00000000000E+00 0.  1.
         11    1    4    4    0    0  0.90945830723E+01 -0.41692047679E+02  0.50285895352E+02  0.65951569748E+02  0.00000000000E+00 0. -1.
</event>
<event>
 8    1  0.6965441E-009  0.1056415E+03  0.7561462E-02  0.1268861E+00
          4   -1    0    0  501    0  0.00000000000E+00  0.00000000000E+00  0.56652838418E+03  0.56652838418E+03  0.00000000000E+00 0. -1.
         -4   -1    0    0    0  501 -0.00000000000E+00 -0.00000000000E+00 -0.64707740925E+02  0.64707740925E+02  0.00000000000E+00 0.  1.
         25    2    1    2    0    0  0.41540440416E+02  0.30819568762E+01  0.51329437500E+03  0.52995659634E+03  0.12509105464E+03 0.  0.
         23    2    1    2    0    0 -0.41540440416E+02 -0.30819568762E+01 -0.11473731736E+02  0.10127952877E+03  0.91601254250E+02 0.  0.
          5    1    3    3  502    0 -0.13096701282E+02 -0.50211984231E+02  0.26868207515E+03  0.27367918601E+03  0.41800000000E+01 0. -1.
         -5    1    3    3    0  502  0.54637141698E+02  0.53293941107E+02  0.24461229984E+03  0.25627741033E+03  0.41800000000E+01 0. -1.
        -11    1    4    4    0    0  0.18026873449E+00 -0.32013151433E+02 -0.33141691869E+02  0.46078694659E+02  0.00000000000E+00 0.  1.
         11    1    4    4    0    0 -0.41720709150E+02  0.28931194557E+02  0.21667960133E+02  0.55200834114E+02  0.00000000000E+00 0. -1.
</event>
<event>
 8    1  0.6965441E-009  0.1148807E+03  0.7561462E-02  0.1251789E+00
          3   -1    0    0  501    0  0.00000000000E+00  0.00000000000E+00  0.37052593822E+02  0.37052593822E+02  0.00000000000E+00 0. -1.
         -3   -1    0    0    0  501 -0.00000000000E+00 -0.00000000000E+00 -0.47577341268E+03  0.47577341268E+03  0.00000000000E+00 0.  1.
         25    2    1    2    0    0  0.75096155117E+02 -0.14827239582E+02 -0.24133777524E+03  0.28240148793E+03  0.12508956423E+03 0.  0.
         23    2    1    2    0    0 -0.75096155117E+02  0.14827239582E+02 -0.19738304362E+03  0.23042451857E+03  0.90973146060E+02 0.  0.
          5    1    3    3  502    0 -0.28771999705E+02 -0.23933331019E+02 -0.36135471791E+02  0.52190775260E+02  0.41800000000E+01 0.  1.
         -5    1    3    3    0  502  0.10386815482E+03  0.91060914371E+01 -0.20520230345E+03  0.23021071267E+03  0.41800000000E+01 0.  1.
        -11    1    4    4    0    0  0.18604206388E+01  0.10512673683E+02  0.64720258485E+01  0.12484574142E+02  0.00000000000E+00 0. -1.
         11    1    4    4    0    0 -0.76956575756E+02  0.43145658989E+01 -0.20385506947E+03  0.21793994443E+03  0.00000000000E+00 0.  1.
</event>
<event>
 8    1  0.6965441E-009  0.3136375E+03  0.7561462E-02  0.1078615E+00
         -1   -1    0    0    0  501 -0.00000000000E+00  0.00000000000E+00  0.38182061513E+03  0.38182061513E+03  0.00000000000E+00 0.  1.
          1   -1    0    0  501    0  0.00000000000E+00 -0.00000000000E+00 -0.27260696169E+03  0.27260696169E+03  0.00000000000E+00 0. -1.
         25    2    1    2    0    0  0.32505634706E+02 -0.29492466874E+03 -0.97274860643E+01  0.32214586468E+03  0.12508460187E+03 0.  0.
         23    2    1    2    0    0 -0.32505634706E+02  0.29492466874E+03  0.11894113951E+03  0.33228171214E+03  0.90702618664E+02 0.  0.
          5    1    3    3  502    0  0.75419655660E+02 -0.11991711661E+03 -0.66108040214E+01  0.14187816762E+03  0.41800000000E+01 0. -1.
         -5    1    3    3    0  502 -0.42914020954E+02 -0.17500755213E+03 -0.31166820429E+01  0.18026769706E+03  0.41800000000E+01 0. -1.
        -11    1    4    4    0    0 -0.42705892431E+02  0.84879243210E+02  0.65182881992E+02  0.11522624389E+03  0.00000000000E+00 0.  1.
         11    1    4    4    0    0  0.10200257725E+02  0.21004542553E+03  0.53758257517E+02  0.21705546825E+03  0.00000000000E+00 0. -1.
</event>
<event>
 8    1  0.6965441E-009  0.9576195E+02  0.7561462E-02  0.1289469E+00
         -2   -1    0    0    0  501 -0.00000000000E+00  0.00000000000E+00  0.69210874804E+02  0.69210874804E+02  0.00000000000E+00 0.  1.
          2   -1    0    0  501    0  0.00000000000E+00 -0.00000000000E+00 -0.24910143892E+03  0.24910143892E+03  0.00000000000E+00 0. -1.
         25    2    1    2    0    0  0.61410225372E+02 -0.37757265473E+02 -0.75318058237E+02  0.16284009238E+03  0.12508900396E+03 0.  0.
         23    2    1    2    0    0 -0.61410225372E+02  0.37757265473E+02 -0.10457250588E+03  0.15547222135E+03  0.89662566041E+02 0.  0.
          5    1    3    3  502    0  0.42663205717E+01 -0.26054812209E+02  0.31346633420E+02  0.41196341552E+02  0.41800000000E+01 0.  1.
         -5    1    3    3    0  502  0.57143904800E+02 -0.11702453264E+02 -0.10666469166E+03  0.12164375082E+03  0.41800000000E+01 0.  1.
        -11    1    4    4    0    0 -0.23371670913E+01  0.46533699767E+02 -0.76289695600E+02  0.89392198870E+02  0.00000000000E+00 0.  1.
         11    1    4    4    0    0 -0.59073058281E+02 -0.87764342942E+01 -0.28282810281E+02  0.66080022480E+02  0.00000000000E+00 0. -1.
</event>
<event>
 8    1  0.6965441E-009  0.1150364E+03  0.7561462E-02  0.1251518E+00
         -1   -1    0    0    0  501 -0.00000000000E+00  0.00000000000E+00  0.20594861727E+03  0.20594861727E+03  0.00000000000E+00 0.  1.
          1   -1    0    0  501    0  0.00000000000E+00 -0.00000000000E+00 -0.28574032912E+03  0.28574032912E+03  0.00000000000E+00 0. -1.
         25    2    1    2    0    0  0.37966729104E+02 -0.61285865361E+02 -0.24712360928E+03  0.28620799430E+03  0.12508999930E+03 0.  0.
         23    2    1    2    0    0 -0.37966729104E+02  0.61285865361E+02  0.16733189743E+03  0.20548095209E+03  0.95000147175E+02 0.  0.
          5    1    3    3  502    0  0.71421388764E+02 -0.44514740442E+02 -0.22979454681E+03  0.24475617057E+03  0.41800000000E+01 0. -1.
         -5    1    3    3    0  502 -0.33454659660E+02 -0.16771124919E+02 -0.17329062468E+02  0.41451823723E+02  0.41800000000E+01 0. -1.
        -11    1    4    4    0    0 -0.59001220271E+02  0.63883247770E+02  0.16162092085E+03  0.18353074782E+03  0.00000000000E+00 0.  1.
         11    1    4    4    0    0  0.21034491167E+02 -0.25973824093E+01  0.57109765781E+01  0.21950204270E+02  0.00000000000E+00 0. -1.
</event>
<event>
 8    1  0.6965441E-009  0.1319125E+03  0.7561462E-02  0.1224645E+00
          1   -1    0    0  501    0  0.00000000000E+00  0.00000000000E+00  0.21016102077E+03  0.21016102077E+03  0.00000000000E+00 0. -1.
         -1   -1    0    0    0  501 -0.00000000000E+00 -0.00000000000E+00 -0.94949518639E+02  0.94949518639E+02  0.00000000000E+00 0.  1.
         25    2    1    2    0    0  0.79738573446E+02  0.35826841586E+02  0.83820057769E+02  0.17412245404E+03  0.12510405367E+03 0.  0.
         23    2    1    2    0    0 -0.79738573446E+02 -0.35826841586E+02  0.31391444362E+02  0.13098808537E+03  0.92361534501E+02 0.  0.
          5    1    3    3  502    0  0.10388986488E+03  0.44262338085E+02  0.93279383227E+02  0.14652909040E+03  0.41800000000E+01 0.  1.
         -5    1    3    3    0  502 -0.24151291434E+02 -0.84354964989E+01 -0.94593254583E+01  0.27593363645E+02  0.41800000000E+01 0.  1.
        -11    1    4    4    0    0 -0.39533358655E+02 -0.64406952680E+02  0.30932647230E+02  0.81657643027E+02  0.00000000000E+00 0. -1.
         11    1    4    4    0    0 -0.40205214791E+02  0.28580111094E+02  0.45879713131E+00  0.49330442339E+02  0.00000000000E+00 0.  1.
</event>
<event>
 8    1  0.6965441E-009  0.9630560E+02  0.7561462E-02  0.1288262E+00
          1   -1    0    0  501    0  0.00000000000E+00  0.00000000000E+00  0.91426877078E+03  0.91426877078E+03  0.00000000000E+00 0. -1.
         -1   -1    0    0    0  501 -0.00000000000E+00 -0.00000000000E+00 -0.14672907336E+02  0.14672907336E+02  0.00000000000E+00 0.  1.
         25    2    1    2    0    0  0.36913697954E+02 -0.25832988365E+01  0.63963723277E+03  0.65280362059E+03  0.12508989959E+03 0.  0.
         23    2    1    2    0    0 -0.36913697954E+02  0.25832988365E+01  0.25995863067E+03  0.27613805752E+03  0.85466031978E+02 0.  0.
          5    1    3    3  502    0  0.48615896856E+02 -0.38835980338E+02  0.16133837233E+03  0.17297190980E+03  0.41800000000E+01 0.  1.
         -5    1    3    3    0  502 -0.11702198902E+02  0.36252681502E+02  0.47829886045E+03  0.47983171079E+03  0.41800000000E+01 0.  1.
        -11    1    4    4    0    0  0.19248714203E+02 -0.23183876634E+02  0.65519571884E+02  0.72116707039E+02  0.00000000000E+00 0.  1.
         11    1    4    4    0    0 -0.56162412157E+02  0.25767175470E+02  0.19443905878E+03  0.20402135048E+03  0.00000000000E+00 0. -1.
</event>
<event>
 8    1  0.6965441E-009  0.1756079E+03  0.7561462E-02  0.1172123E+00
         -2   -1    0    0    0  501 -0.00000000000E+00  0.00000000000E+00  0.11393175230E+03  0.11393175230E+03  0.00000000000E+00 0.  1.
          2   -1    0    0  501    0  0.00000000000E+00 -0.00000000000E+00 -0.31434540784E+03  0.31434540784E+03  0.00000000000E+00 0. -1.
         25    2    1    2    0    0  0.48370038940E+02  0.13377703153E+03 -0.38376040644E+02  0.19327845009E+03  0.12509150228E+03 0.  0.
         23    2    1    2    0    0 -0.48370038940E+02 -0.13377703153E+03 -0.16203761490E+03  0.23499871006E+03  0.93446510138E+02 0.  0.
          5    1    3    3  502    0  0.30225066538E+02 -0.18538891028E+02 -0.11372986018E+02  0.37470819831E+02  0.41800000000E+01 0.  1.
         -5    1    3    3    0  502  0.18144972402E+02  0.15231592255E+03 -0.27003054625E+02  0.15580763026E+03  0.41800000000E+01 0.  1.
        -11    1    4    4    0    0  0.20969278087E+02 -0.42928773663E+02 -0.17829064657E+02  0.50994762263E+02  0.00000000000E+00 0.  1.
         11    1    4    4    0    0 -0.69339317027E+02 -0.90848257863E+02 -0.14420855024E+03  0.18400394780E+03  0.00000000000E+00 0. -1.
</event>
<event>
 8    1  0.6965441E-009  0.1729454E+03  0.7561462E-02  0.1174811E+00
          1   -1    0    0  501    0  0.00000000000E+00  0.00000000000E+00  0.61176288240E+02  0.61176288240E+02  0.00000000000E+00 0. -1.
         -1   -1    0    0    0  501 -0.00000000000E+00 -0.00000000000E+00 -0.61688075493E+03  0.61688075493E+03  0.00000000000E+00 0.  1.
         25    2    1    2    0    0  0.13209401346E+03 -0.42945454677E+02 -0.43267068526E+03  0.47132232566E+03  0.12509065640E+03 0.  0.
         23    2    1    2    0    0 -0.13209401346E+03  0.42945454677E+02 -0.12303378143E+03  0.20673471751E+03  0.91152573081E+02 0.  0.
          5    1    3    3  502    0  0.45274970420E+02 -0.78876974193E+02 -0.24575550809E+03  0.26207754990E+03  0.41800000000E+01 0. -1.
         -5    1    3    3    0  502  0.86819043040E+02  0.35931519516E+02 -0.18691517717E+03  0.20924477577E+03  0.41800000000E+01 0. -1.
        -11    1    4    4    0    0 -0.90595834427E+02  0.67135611569E+02 -0.10866460535E+03  0.15659754791E+03  0.00000000000E+00 0.  1.
         11    1    4    4    0    0 -0.41498179033E+02 -0.24190156892E+02 -0.14369176082E+02  0.50137169593E+02  0.00000000000E+00 0. -1.
</event>
<event>
 8    1  0.6965441E-009  0.1963447E+03  0.7561462E-02  0.1152860E+00
          1   -1    0    0  501    0  0.00000000000E+00  0.00000000000E+00  0.38254564697E+03  0.38254564697E+03  0.00000000000E+00 0. -1.
         -1   -1    0    0    0  501 -0.00000000000E+00 -0.00000000000E+00 -0.13311025830E+03  0.13311025830E+03  0.00000000000E+00 0.  1.
         25    2    1    2    0    0  0.17166555031E+03 -0.39153836169E+02  0.23850326930E+03  0.32176652350E+03  0.12509117526E+03 0.  0.
         23    2    1    2    0    0 -0.17166555031E+03  0.39153836169E+02  0.10932119368E+02  0.19388938178E+03  0.80445615685E+02 0.  0.
          5    1    3    3  502    0  0.14039445796E+03 -0.81895432434E+02  0.18658718413E+03  0.24748679835E+03  0.41800000000E+01 0.  1.
         -5    1    3    3    0  502  0.31271092350E+02  0.42741596265E+02  0.51916085177E+02  0.74279725149E+02  0.41800000000E+01 0.  1.
        -11    1    4    4    0    0 -0.77954875860E+02  0.86844678876E+01 -0.34122827900E+02  0.85538003464E+02  0.00000000000E+00 0. -1.
         11    1    4    4    0    0 -0.93710674446E+02  0.30469368282E+02  0.45054947268E+02  0.10835137831E+03  0.00000000000E+00 0.  1.
</event>
<event>
 8    1  0.6965441E-009  0.1897776E+03  0.7561462E-02  0.1158662E+00
          1   -1    0    0  501    0  0.00000000000E+00  0.00000000000E+00  0.16663917128E+03  0.16663917128E+03  0.00000000000E+00 0. -1.
         -1   -1    0    0    0  501 -0.00000000000E+00 -0.00000000000E+00 -0.24539589639E+03  0.24539589639E+03  0.00000000000E+00 0.  1.
         25    2    1    2    0    0  0.15816771516E+03 -0.30610151137E+02 -0.96643332179E+02  0.22570077979E+03  0.12508757281E+03 0.  0.
         23    2    1    2    0    0 -0.15816771516E+03  0.30610151137E+02  0.17886607070E+02  0.18633428788E+03  0.91904997983E+02 0.  0.
          5    1    3    3  502    0  0.57139149723E+02  0.44294011567E+02 -0.10433210777E+02  0.73165334543E+02  0.41800000000E+01 0.  1.
         -5    1    3    3    0  502  0.10102856544E+03 -0.74904162704E+02 -0.86210121403E+02  0.15253544525E+03  0.41800000000E+01 0.  1.
        -11    1    4    4    0    0  0.80681206604E+01 -0.72064830754E+01  0.11417575056E+02  0.15728604181E+02  0.00000000000E+00 0. -1.
         11    1    4    4    0    0 -0.16623583582E+03  0.37816634213E+02  0.64690320134E+01  0.17060568369E+03  0.00000000000E+00 0.  1.
</event>
<event>
 8    1  0.6965441E-009  0.1314038E+03  0.7561462E-02  0.1225388E+00
          2   -1    0    0  501    0  0.00000000000E+00  0.00000000000E+00  0.13119792080E+03  0.13119792080E+03  0.00000000000E+00 0.  1.
         -2   -1    0    0    0  501 -0.00000000000E+00 -0.00000000000E+00 -0.16958933391E+03  0.16958933391E+03  0.00000000000E+00 0. -1.
         25    2    1    2    0    0  0.24617595855E+02 -0.95017119821E+02  0.99134822597E+01  0.15931064480E+03  0.12508926945E+03 0.  0.
         23    2    1    2    0    0 -0.24617595855E+02  0.95017119821E+02 -0.48304895370E+02  0.14147660992E+03  0.89710585506E+02 0.  0.
          5    1    3    3  502    0 -0.33598103352E+02 -0.14832632729E+02 -0.34573810303E+02  0.50612847197E+02  0.41800000000E+01 0. -1.
         -5    1    3    3    0  502  0.58215699207E+02 -0.80184487092E+02  0.44487292563E+02  0.10869779760E+03  0.41800000000E+01 0. -1.
        -11    1    4    4    0    0 -0.32162624002E+02  0.82525090119E+00  0.56478094807E+01  0.32665167590E+02  0.00000000000E+00 0.  1.
         11    1    4    4    0    0  0.75450281470E+01  0.94191868920E+02 -0.53952704851E+02  0.10881144233E+03  0.00000000000E+00 0. -1.
</event>
<event>
 8    1  0.6965441E-009  0.9834840E+02  0.7561462E-02  0.1283808E+00
          1   -1    0    0  501    0  0.00000000000E+00  0.00000000000E+00  0.15646627198E+03  0.15646627198E+03  0.00000000000E+00 0. -1.
         -1   -1    0    0    0  501 -0.00000000000E+00 -0.00000000000E+00 -0.12867473891E+03  0.12867473891E+03  0.00000000000E+00 0.  1.
         25    2    1    2    0    0  0.42810735313E+02  0.79652423249E+02  0.28117030820E+02  0.15689350365E+03  0.12509091285E+03 0.  0.
         23    2    1    2    0    0 -0.42810735313E+02 -0.79652423249E+02 -0.32549774781E+00  0.12824750725E+03  0.90939812951E+02 0.  0.
          5    1    3    3  502    0  0.25772437968E+02  0.66413003276E+02  0.75972998333E+02  0.10423183026E+03  0.41800000000E+01 0.  1.
         -5    1    3    3    0  502  0.17038297344E+02  0.13239419974E+02 -0.47855967513E+02  0.52661673390E+02  0.41800000000E+01 0.  1.
        -11    1    4    4    0    0 -0.13185792066E+02 -0.71395940264E+02  0.35678925405E+02  0.80896422150E+02  0.00000000000E+00 0. -1.
         11    1    4    4    0    0 -0.29624943247E+02 -0.82564829852E+01 -0.36004423152E+02  0.47351085100E+02  0.00000000000E+00 0.  1.
</event>
<event>
 8    1  0.6965441E-009  0.8555283E+02  0.7561462E-02  0.1313993E+00
         -1   -1    0    0    0  501 -0.00000000000E+00  0.00000000000E+00  0.12643832630E+03  0.12643832630E+03  0.00000000000E+00 0.  1.
          1   -1    0    0  501    0  0.00000000000E+00 -0.00000000000E+00 -0.11633378956E+03  0.11633378956E+03  0.00000000000E+00 0. -1.
         25    2    1    2    0    0  0.12733659318E+02  0.49518941675E+02  0.24882763748E+02  0.13740702271E+03  0.12508903347E+03 0.  0.
         23    2    1    2    0    0 -0.12733659318E+02 -0.49518941675E+02 -0.14778227012E+02  0.10536509315E+03  0.90934785410E+02 0.  0.
          5    1    3    3  502    0 -0.63155061492E+01 -0.14040454977E+02 -0.40886443171E+02  0.43888422494E+02  0.41800000000E+01 0.  1.
         -5    1    3    3    0  502  0.19049165468E+02  0.63559396651E+02  0.65769206919E+02  0.93518600216E+02  0.41800000000E+01 0.  1.
        -11    1    4    4    0    0  0.25804626990E+02 -0.42165880997E+02 -0.35627629541E+02  0.60935771769E+02  0.00000000000E+00 0. -1.
         11    1    4    4    0    0 -0.38538286309E+02 -0.73530606778E+01  0.20849402529E+02  0.44429321385E+02  0.00000000000E+00 0.  1.
</event>
<event>
 8    1  0.6965441E-009  0.1298514E+03  0.7561462E-02  0.1227676E+00
         -2   -1    0    0    0  501 -0.00000000000E+00  0.00000000000E+00  0.24395930755E+02  0.24395930755E+02  0.00000000000E+00 0.  1.
          2   -1    0    0  501    0  0.00000000000E+00 -0.00000000000E+00 -0.94740794385E+03  0.94740794385E+03  0.00000000000E+00 0. -1.
         25    2    1    2    0    0  0.48859753038E+02 -0.90396902935E+02 -0.61588313685E+03  0.63680489739E+03  0.12509821569E+03 0.  0.
         23    2    1    2    0    0 -0.48859753038E+02  0.90396902935E+02 -0.30712887625E+03  0.33499897721E+03  0.85657997750E+02 0.  0.
          5    1    3    3  502    0  0.23467733251E+00 -0.10355272179E+03 -0.31242178034E+03  0.32916266875E+03  0.41800000000E+01 0.  1.
         -5    1    3    3    0  502  0.48625075706E+02  0.13155818856E+02 -0.30346135650E+03  0.30764222865E+03  0.41800000000E+01 0.  1.
        -11    1    4    4    0    0 -0.44197417128E+02  0.58687517226E+02 -0.28896734209E+03  0.29816062978E+03  0.00000000000E+00 0. -1.
         11    1    4    4    0    0 -0.46623359098E+01  0.31709385709E+02 -0.18161534164E+02  0.36838347429E+02  0.00000000000E+00 0.  1.
</event>
<event>
 8    1  0.6965441E-009  0.2458667E+03  0.7561462E-02  0.1115945E+00
          1   -1    0    0  501    0  0.00000000000E+00  0.00000000000E+00  0.21512851188E+04  0.21512851188E+04  0.00000000000E+00 0. -1.
         -1   -1    0    0    0  501 -0.00000000000E+00 -0.00000000000E+00 -0.30023622033E+02  0.30023622033E+02  0.00000000000E+00 0.  1.
         25    2    1    2    0    0  0.19920546437E+03 -0.11355390429E+03  0.11291030689E+04  0.11589215746E+04  0.12509264422E+03 0.  0.
         23    2    1    2    0    0 -0.19920546437E+03  0.11355390429E+03  0.99215842791E+03  0.10223871663E+04  0.91213296709E+02 0.  0.
          5    1    3    3  502    0  0.19407800148E+03 -0.65262916393E+02  0.10036549186E+04  0.10243369499E+04  0.41800000000E+01 0.  1.
         -5    1    3    3    0  502  0.51274628941E+01 -0.48290987894E+02  0.12544815028E+03  0.13458462466E+03  0.41800000000E+01 0.  1.
        -11    1    4    4    0    0 -0.18752607240E+03  0.12205257314E+03  0.97299530721E+03  0.99839006721E+03  0.00000000000E+00 0. -1.
         11    1    4    4    0    0 -0.11679391977E+02 -0.84986688562E+01  0.19163120693E+02  0.23997099074E+02  0.00000000000E+00 0.  1.
</event>
<event>
 7    1  0.6965441E-009  0.1147484E+03  0.7561462E-02  0.1252021E+00
          2   -1    0    0  501    0  0.00000000000E+00  0.00000000000E+00  0.36680512965E+03  0.36680512965E+03  0.00000000000E+00 0. -1.
         -2   -1    0    0    0  501 -0.00000000000E+00 -0.00000000000E+00 -0.64461171180E+02  0.64461171180E+02  0.00000000000E+00 0.  1.
         23    2    1    2    0    0 -0.64976547213E+01  0.59920618114E+02  0.26130751081E+03  0.28653758082E+03  0.10094290478E+03 0.  0.
          5    1    1    2  502    0  0.47122261529E+02  0.25428929608E+01 -0.16848063484E+02  0.50282238209E+02  0.41800000000E+01 0.  1.
         -5    1    1    2    0  502 -0.40624606807E+02 -0.62463511075E+02  0.57884511149E+02  0.94446481804E+02  0.41800000000E+01 0.  1.
        -11    1    3    3    0    0  0.23965663595E+02 -0.13849368635E+02  0.25670705136E+02  0.37751068134E+02  0.00000000000E+00 0.  1.
         11    1    3    3    0    0 -0.30463318316E+02  0.73769986749E+02  0.23563680567E+03  0.24878651269E+03  0.00000000000E+00 0. -1.
</event>
<event>
 7    1  0.6965441E-009  0.9538475E+02  0.7561462E-02  0.1290312E+00
         -2   -1    0    0    0  501 -0.00000000000E+00  0.00000000000E+00  0.26584157103E+02  0.26584157103E+02  0.00000000000E+00 0.  1.
          2   -1    0    0  501    0  0.00000000000E+00 -0.00000000000E+00 -0.60360948721E+03  0.60360948721E+03  0.00000000000E+00 0. -1.
         23    2    1    2    0    0  0.20963116278E+02 -0.52951529304E+02 -0.18440217556E+03  0.21414636742E+03  0.92796485003E+02 0.  0.
          5    1    1    2  502    0  0.11499761765E+02  0.71115952938E+02 -0.11398946801E+03  0.13491032021E+03  0.41800000000E+01 0. -1.
         -5    1    1    2    0  502 -0.32462878043E+02 -0.18164423634E+02 -0.27863368654E+03  0.28113695668E+03  0.41800000000E+01 0. -1.
        -11    1    3    3    0    0 -0.19703217699E+02 -0.24991051253E+02 -0.10707974192E+02  0.33577226535E+02  0.00000000000E+00 0.  1.
         11    1    3    3    0    0  0.40666333978E+02 -0.27960478051E+02 -0.17369420136E+03  0.18056914088E+03  0.00000000000E+00 0. -1.
</event>
<event>
 8    1  0.6965441E-009  0.7681522E+02  0.7561462E-02  0.1338340E+00
          2   -1    0    0  501    0  0.00000000000E+00  0.00000000000E+00  0.67516684504E+02  0.67516684504E+02  0.00000000000E+00 0. -1.
         -2   -1    0    0    0  501 -0.00000000000E+00 -0.00000000000E+00 -0.17765103069E+03  0.17765103069E+03  0.00000000000E+00 0.  1.
         25    2    1    2    0    0 -0.13163422259E+02 -0.23810594043E+01 -0.50452966003E+02  0.13554473462E+03  0.12509167909E+03 0.  0.
         23    2    1    2    0    0  0.13163422259E+02  0.23810594043E+01 -0.59681380185E+02  0.10962298057E+03  0.90974642616E+02 0.  0.
          5    1    3    3  502    0 -0.19130428667E+02 -0.53598452341E+02 -0.60149588935E+02  0.82910872890E+02  0.41800000000E+01 0.  1.
         -5    1    3    3    0  502  0.59670064084E+01  0.51217392937E+02  0.96966229324E+01  0.52633861734E+02  0.41800000000E+01 0.  1.
        -11    1    4    4    0    0 -0.16621519282E+01  0.20981929885E+02 -0.77240971431E+02  0.80057303217E+02  0.00000000000E+00 0.  1.
         11    1    4    4    0    0  0.14825574187E+02 -0.18600870481E+02  0.17559591247E+02  0.29565677354E+02  0.00000000000E+00 0. -1.
</event>
<event>
 8    1  0.6965441E-009  0.1189532E+03  0.7561462E-02  0.1244834E+00
         -2   -1    0    0    0  501 -0.00000000000E+00  0.00000000000E+00  0.93782670214E+02  0.93782670214E+02  0.00000000000E+00 0. -1.
          2   -1    0    0  501    0  0.00000000000E+00 -0.00000000000E+00 -0.44817661091E+03  0.44817661091E+03  0.00000000000E+00 0.  1.
         25    2    1    2    0    0 -0.43189113877E+02 -0.69933541397E+02  0.17009233641E+02  0.15063961678E+03  0.12508789048E+03 0.  0.
         23    2    1    2    0    0  0.43189113877E+02  0.69933541397E+02 -0.37140317434E+03  0.39131966434E+03  0.91840960481E+02 0.  0.
          5    1    3    3  502    0  0.22606939598E+02 -0.41474398537E+02  0.52325568615E+02  0.70616124100E+02  0.41800000000E+01 0. -1.
         -5    1    3    3    0  502 -0.65796053475E+02 -0.28459142860E+02 -0.35316334973E+02  0.80023492683E+02  0.41800000000E+01 0. -1.
        -11    1    4    4    0    0  0.67391028877E+02  0.65682476134E+02 -0.33017816025E+03  0.34332689372E+03  0.00000000000E+00 0.  1.
         11    1    4    4    0    0 -0.24201914999E+02  0.42510652629E+01 -0.41225014084E+02  0.47992770620E+02  0.00000000000E+00 0. -1.
</event>
<event>
 8    1  0.6965441E-009  0.9880771E+02  0.7561462E-02  0.1282823E+00
         -2   -1    0    0    0  501 -0.00000000000E+00  0.00000000000E+00  0.19271036361E+02  0.19271036361E+02  0.00000000000E+00 0.  1.
          2   -1    0    0  501    0  0.00000000000E+00 -0.00000000000E+00 -0.87219599335E+03  0.87219599335E+03  0.00000000000E+00 0. -1.
         25    2    1    2    0    0 -0.85603702044E+01  0.37005166185E+02 -0.68174892110E+03  0.69416975165E+03  0.12508952963E+03 0.  0.
         23    2    1    2    0    0  0.85603702044E+01 -0.37005166185E+02 -0.17117603588E+03  0.19729727806E+03  0.90456168420E+02 0.  0.
          5    1    3    3  502    0 -0.51771858246E+02  0.19645718278E+02 -0.14312612528E+03  0.15352146329E+03  0.41800000000E+01 0. -1.
         -5    1    3    3    0  502  0.43211488041E+02  0.17359447907E+02 -0.53862279582E+03  0.54064828836E+03  0.41800000000E+01 0. -1.
        -11    1    4    4    0    0  0.15566512253E+02  0.26879126227E+02 -0.35504818008E+02  0.47174101287E+02  0.00000000000E+00 0.  1.
         11    1    4    4    0    0 -0.70061420491E+01 -0.63884292412E+02 -0.13567121788E+03  0.15012317677E+03  0.00000000000E+00 0. -1.
</event>
<event>
 8    1  0.6965441E-009  0.1051904E+03  0.7561462E-02  0.1269745E+00
          1   -1    0    0  501    0  0.00000000000E+00  0.00000000000E+00  0.45014038170E+03  0.45014038170E+03  0.00000000000E+00 0. -1.
         -1   -1    0    0    0  501 -0.00000000000E+00 -0.00000000000E+00 -0.26144561560E+02  0.26144561560E+02  0.00000000000E+00 0.  1.
         25    2    1    2    0    0  0.72744044642E+01 -0.43156112269E+01  0.23597847928E+03  0.26721702646E+03  0.12509018782E+03 0.  0.
         23    2    1    2    0    0 -0.72744044642E+01  0.43156112269E+01  0.18801734086E+03  0.20906791680E+03  0.91034784061E+02 0.  0.
          5    1    3    3  502    0  0.26821820858E+02  0.55481862244E+02  0.12938991816E+03  0.14337667326E+03  0.41800000000E+01 0. -1.
         -5    1    3    3    0  502 -0.19547416394E+02 -0.59797473471E+02  0.10658856112E+03  0.12384035321E+03  0.41800000000E+01 0. -1.
        -11    1    4    4    0    0 -0.28775274856E+02 -0.32202942284E+02  0.57957231276E+02  0.72277843022E+02  0.00000000000E+00 0.  1.
         11    1    4    4    0    0  0.21500870392E+02  0.36518553510E+02  0.13006010959E+03  0.13679007378E+03  0.00000000000E+00 0. -1.
</event>
<event>
 8    1  0.6965441E-009  0.1210739E+03  0.7561462E-02  0.1241336E+00
          2   -1    0    0  501    0  0.00000000000E+00  0.00000000000E+00  0.75702269924E+02  0.75702269924E+02  0.00000000000E+00 0. -1.
         -2   -1    0    0    0  501 -0.00000000000E+00 -0.00000000000E+00 -0.25434729843E+03  0.25434729843E+03  0.00000000000E+00 0.  1.
         25    2    1    2    0    0 -0.69740663671E+02 -0.36414273199E+02 -0.15309922194E+03  0.21277898037E+03  0.12508302550E+03 0.  0.
         23    2    1    2    0    0  0.69740663671E+02  0.36414273199E+02 -0.25545806567E+02  0.11727058798E+03  0.83126669071E+02 0.  0.
          5    1    3    3  502    0 -0.97997858684E+02 -0.44881162232E+02 -0.14706192237E+03  0.18238031813E+03  0.41800000000E+01 0.  1.
         -5    1    3    3    0  502  0.28257195014E+02  0.84668890329E+01 -0.60372995697E+01  0.30398662241E+02  0.41800000000E+01 0.  1.
        -11    1    4    4    0    0  0.42295296163E+02  0.56428141231E+02 -0.39175291073E+02  0.80670506574E+02  0.00000000000E+00 0.  1.
         11    1    4    4    0    0  0.27445367507E+02 -0.20013868032E+02  0.13629484506E+02  0.36600081408E+02  0.00000000000E+00 0. -1.
</event>
<event>
 8    1  0.6965441E-009  0.2748918E+03  0.7561462E-02  0.1098512E+00
          2   -1    0    0  501    0  0.00000000000E+00  0.00000000000E+00  0.41259619551E+03  0.41259619551E+03  0.00000000000E+00 0. -1.
         -2   -1    0    0    0  501 -0.00000000000E+00 -0.00000000000E+00 -0.19028879402E+03  0.19028879402E+03  0.00000000000E+00 0.  1.
         25    2    1    2    0    0  0.25381073730E+03  0.41367391810E+02  0.14090129580E+03  0.31879783562E+03  0.12509090041E+03 0.  0.
         23    2    1    2    0    0 -0.25381073730E+03 -0.41367391810E+02  0.81406105699E+02  0.28408715391E+03  0.89148222078E+02 0.  0.
          5    1    3    3  502    0  0.17344438596E+03  0.76919854631E+02  0.13024660005E+03  0.23017660238E+03  0.41800000000E+01 0.  1.
         -5    1    3    3    0  502  0.80366351336E+02 -0.35552462822E+02  0.10654695746E+02  0.88621233241E+02  0.41800000000E+01 0.  1.
        -11    1    4    4    0    0 -0.56912179102E+02 -0.48821843898E+02  0.18240454649E+02  0.77170478536E+02  0.00000000000E+00 0.  1.
         11    1    4    4    0    0 -0.19689855820E+03  0.74544520887E+01  0.63165651050E+02  0.20691667537E+03  0.00000000000E+00 0. -1.
</event>
<event>
 8    1  0.6965441E-009  0.1558654E+03  0.7561462E-02  0.1193445E+00
          2   -1    0    0  501    0  0.00000000000E+00  0.00000000000E+00  0.79112635929E+03  0.79112635929E+03  0.00000000000E+00 0. -1.
         -2   -1    0    0    0  501 -0.00000000000E+00 -0.00000000000E+00 -0.38587472850E+02  0.38587472850E+02  0.00000000000E+00 0.  1.
         25    2    1    2    0    0 -0.98578710135E+02  0.80726913846E+02  0.28265971403E+03  0.33433872073E+03  0.12510503401E+03 0.  0.
         23    2    1    2    0    0  0.98578710135E+02 -0.80726913846E+02  0.46987917241E+03  0.49537511141E+03  0.91517580970E+02 0.  0.
          5    1    3    3  502    0  0.27383993210E+02 -0.58855947760E+00  0.33002337192E+02  0.43091253712E+02  0.41800000000E+01 0. -1.
         -5    1    3    3    0  502 -0.12596270334E+03  0.81315473324E+02  0.24965737684E+03  0.29124746702E+03  0.41800000000E+01 0. -1.
        -11    1    4    4    0    0  0.26792198291E+02 -0.48368964663E+02  0.77681382743E+02  0.95350804175E+02  0.00000000000E+00 0. -1.
         11    1    4    4    0    0  0.71786511844E+02 -0.32357949183E+02  0.39219778967E+03  0.40002430723E+03  0.00000000000E+00 0.  1.
</event>
<event>
 8    1  0.6965441E-009  0.1176828E+03  0.7561462E-02  0.1246969E+00
         -2   -1    0    0    0  501 -0.00000000000E+00  0.00000000000E+00  0.93430496916E+02  0.93430496916E+02  0.00000000000E+00 0.  1.
          2   -1    0    0  501    0  0.00000000000E+00 -0.00000000000E+00 -0.26922696977E+03  0.26922696977E+03  0.00000000000E+00 0. -1.
         25    2    1    2    0    0 -0.29018791597E+02 -0.95764409974E+02 -0.27037233035E+02  0.16245224195E+03  0.12508719544E+03 0.  0.
         23    2    1    2    0    0  0.29018791597E+02  0.95764409974E+02 -0.14875923981E+03  0.20020522473E+03  0.89106161936E+02 0.  0.
          5    1    3    3  502    0 -0.41371379013E+02 -0.10033629234E+03  0.22591036540E+02  0.11093597205E+03  0.41800000000E+01 0.  1.
         -5    1    3    3    0  502  0.12352587416E+02  0.45718823655E+01 -0.49628269575E+02  0.51516269908E+02  0.41800000000E+01 0.  1.
        -11    1    4    4    0    0 -0.15187028080E+02  0.31031123899E+02 -0.29661984275E+01  0.34675276573E+02  0.00000000000E+00 0.  1.
         11    1    4    4    0    0  0.44205819677E+02  0.64733286075E+02 -0.14579304139E+03  0.16552994816E+03  0.00000000000E+00 0. -1.
</event>
<event>
 8    1  0.6965441E-009  0.1104470E+03  0.7561462E-02  0.1259744E+00
         -1   -1    0    0    0  501 -0.00000000000E+00  0.00000000000E+00  0.57958598929E+03  0.57958598929E+03  0.00000000000E+00 0. -1.
          1   -1    0    0  501    0  0.00000000000E+00 -0.00000000000E+00 -0.32670313304E+02  0.32670313304E+02  0.00000000000E+00 0.  1.
         25    2    1    2    0    0 -0.68567275960E+02  0.15996585740E+02  0.19033127059E+03  0.23839376189E+03  0.12509288970E+03 0.  0.
         23    2    1    2    0    0  0.68567275960E+02 -0.15996585740E+02  0.35658440539E+03  0.37386254070E+03  0.87540842387E+02 0.  0.
          5    1    3    3  502    0  0.19489848609E+02  0.36421440050E+00 -0.74569309093E+01  0.21285325215E+02  0.41800000000E+01 0. -1.
         -5    1    3    3    0  502 -0.88057124569E+02  0.15632371339E+02  0.19778820150E+03  0.21710843667E+03  0.41800000000E+01 0. -1.
        -11    1    4    4    0    0  0.23727530564E+02  0.35779685650E+02  0.16125583660E+03  0.16687308486E+03  0.00000000000E+00 0.  1.
         11    1    4    4    0    0  0.44839745396E+02 -0.51776271390E+02  0.19532856879E+03  0.20698945585E+03  0.00000000000E+00 0. -1.
</event>
<event>
 8    1  0.6965441E-009  0.1000398E+03  0.7561462E-02  0.1280212E+00
          1   -1    0    0  501    0  0.00000000000E+00  0.00000000000E+00  0.11688715433E+03  0.11688715433E+03  0.00000000000E+00 0. -1.
         -1   -1    0    0    0  501 -0.00000000000E+00 -0.00000000000E+00 -0.13064765242E+03  0.13064765242E+03  0.00000000000E+00 0.  1.
         25    2    1    2    0    0 -0.30015256547E+02 -0.35448402037E+02 -0.47935975474E+02  0.14178138907E+03  0.12508636899E+03 0.  0.
         23    2    1    2    0    0  0.30015256547E+02  0.35448402037E+02  0.34175477383E+02  0.10575341769E+03  0.88647150358E+02 0.  0.
          5    1    3    3  502    0 -0.46542237018E+02 -0.72908562818E+02 -0.12548634105E+02  0.87503022672E+02  0.41800000000E+01 0.  1.
         -5    1    3    3    0  502  0.16526980471E+02  0.37460160781E+02 -0.35387341369E+02  0.54278366394E+02  0.41800000000E+01 0.  1.
        -11    1    4    4    0    0  0.10034416541E+02 -0.15009178677E+02 -0.21452010710E+02  0.28038432970E+02  0.00000000000E+00 0.  1.
         11    1    4    4    0    0  0.19980840006E+02  0.50457580714E+02  0.55627488093E+02  0.77714984722E+02  0.00000000000E+00 0. -1.
</event>
<event>
 8    1  0.6965441E-009  0.7758802E+02  0.7561462E-02  0.1336039E+00
          2   -1    0    0  501    0  0.00000000000E+00  0.00000000000E+00  0.30650953291E+03  0.30650953291E+03  0.00000000000E+00 0.  1.
         -2   -1    0    0    0  501 -0.00000000000E+00 -0.00000000000E+00 -0.51371395739E+02  0.51371395739E+02  0.00000000000E+00 0. -1.
         25    2    1    2    0    0 -0.68008490361E+01 -0.19691136895E+02  0.22317070442E+03  0.25668541512E+03  0.12509295186E+03 0.  0.
         23    2    1    2    0    0  0.68008490361E+01  0.19691136895E+02  0.31967432749E+02  0.10119551353E+03  0.93726318509E+02 0.  0.
          5    1    3    3  502    0  0.13934914282E+02 -0.48766796343E+02  0.21345804031E+03  0.21944062895E+03  0.41800000000E+01 0. -1.
         -5    1    3    3    0  502 -0.20735763318E+02  0.29075659448E+02  0.97126641101E+01  0.37244786169E+02  0.41800000000E+01 0. -1.
        -11    1    4    4    0    0 -0.74011896072E+01  0.41581790122E+02  0.52936090795E+02  0.67720400073E+02  0.00000000000E+00 0.  1.
         11    1    4    4    0    0  0.14202038643E+02 -0.21890653228E+02 -0.20968658046E+02  0.33475113452E+02  0.00000000000E+00 0. -1.
</event>
<event>
 7    1  0.6965441E-009  0.1557811E+03  0.7561462E-02  0.1193544E+00
         -1   -1    0    0    0  501 -0.00000000000E+00  0.00000000000E+00  0.58405009529E+03  0.58405009529E+03  0.00000000000E+00 0.  1.
          1   -1    0    0  501    0  0.00000000000E+00 -0.00000000000E+00 -0.11030817102E+03  0.11030817102E+03  0.00000000000E+00 0. -1.
         25    2    1    2    0    0 -0.12755135443E+03  0.24460193711E+02  0.47821040750E+03  0.51107806893E+03  0.12509176473E+03 0.  0.
          5    1    3    3  502    0 -0.91176504475E+02  0.24062121886E+02  0.46109828792E+03  0.47066043408E+03  0.41800000000E+01 0.  1.
         -5    1    3    3    0  502 -0.36374849960E+02  0.39807182500E+00  0.17112119577E+02  0.40417634854E+02  0.41800000000E+01 0.  1.
        -11    1    1    2    0    0  0.28123829626E+02 -0.66806984540E+02  0.13485655460E+02  0.73729138604E+02  0.00000000000E+00 0.  1.
         11    1    1    2    0    0  0.99427524809E+02  0.42346790829E+02 -0.17954138690E+02  0.10955105878E+03  0.00000000000E+00 0. -1.
</event>
<event>
 8    1  0.6965441E-009  0.1275150E+03  0.7561462E-02  0.1231190E+00
         -4   -1    0    0    0  501 -0.00000000000E+00  0.00000000000E+00  0.56772353468E+02  0.56772353468E+02  0.00000000000E+00 0.  1.
          4   -1    0    0  501    0  0.00000000000E+00 -0.00000000000E+00 -0.38774267923E+03  0.38774267923E+03  0.00000000000E+00 0. -1.
         25    2    1    2    0    0 -0.18315692602E+02 -0.10048644339E+03 -0.17709380732E+03  0.23967150460E+03  0.12508886291E+03 0.  0.
         23    2    1    2    0    0  0.18315692602E+02  0.10048644339E+03 -0.15387651844E+03  0.20484352810E+03  0.88599651103E+02 0.  0.
          5    1    3    3  502    0 -0.38072161539E+02 -0.11739309123E+03 -0.10222702793E+03  0.16030740779E+03  0.41800000000E+01 0.  1.
         -5    1    3    3    0  502  0.19756468937E+02  0.16906647839E+02 -0.74866779388E+02  0.79364096807E+02  0.41800000000E+01 0.  1.
        -11    1    4    4    0    0 -0.34662031962E+01  0.51292815199E+02 -0.14020526354E+03  0.14933346370E+03  0.00000000000E+00 0. -1.
         11    1    4    4    0    0  0.21781895798E+02  0.49193628194E+02 -0.13671254903E+02  0.55510064403E+02  0.00000000000E+00 0.  1.
</event>
<event>
 8    1  0.6965441E-009  0.1815757E+03  0.7561462E-02  0.1166287E+00
          1   -1    0    0  501    0  0.00000000000E+00  0.00000000000E+00  0.99083249589E+03  0.99083249589E+03  0.00000000000E+00 0. -1.
         -1   -1    0    0    0  501 -0.00000000000E+00 -0.00000000000E+00 -0.41157521600E+02  0.41157521600E+02  0.00000000000E+00 0.  1.
         25    2    1    2    0    0 -0.16184514304E+03 -0.52322515095E+02  0.50733920484E+03  0.54951986975E+03  0.12509005784E+03 0.  0.
         23    2    1    2    0    0  0.16184514304E+03  0.52322515095E+02  0.44233576944E+03  0.48247014774E+03  0.90471070608E+02 0.  0.
          5    1    3    3  502    0 -0.16979694143E+03 -0.54111190595E+02  0.35824876840E+03  0.40014831591E+03  0.41800000000E+01 0.  1.
         -5    1    3    3    0  502  0.79517983946E+01  0.17886754999E+01  0.14909043644E+03  0.14937155384E+03  0.41800000000E+01 0.  1.
        -11    1    4    4    0    0  0.10312328257E+03  0.10536258682E+02  0.15671266788E+03  0.18789434379E+03  0.00000000000E+00 0.  1.
         11    1    4    4    0    0  0.58721860463E+02  0.41786256413E+02  0.28562310157E+03  0.29457580395E+03  0.00000000000E+00 0. -1.
</event>
<event>
 8    1  0.6965441E-009  0.8320915E+02  0.7561462E-02  0.1320183E+00
          2   -1    0    0  501    0  0.00000000000E+00  0.00000000000E+00  0.37857264691E+03  0.37857264691E+03  0.00000000000E+00 0. -1.
         -2   -1    0    0    0  501 -0.00000000000E+00 -0.00000000000E+00 -0.32656592131E+02  0.32656592131E+02  0.00000000000E+00 0.  1.
         25    2    1    2    0    0 -0.21927648856E+00 -0.21562594112E+02  0.22893730699E+03  0.26177293635E+03  0.12509111130E+03 0.  0.
         23    2    1    2    0    0  0.21927648856E+00  0.21562594112E+02  0.11697874779E+03  0.14945630269E+03  0.90488482318E+02 0.  0.
          5    1    3    3  502    0 -0.30749824409E+02 -0.49364854613E+02  0.20653738828E+03  0.21461035793E+03  0.41800000000E+01 0.  1.
         -5    1    3    3    0  502  0.30530547921E+02  0.27802260501E+02  0.22399918706E+02  0.47162578421E+02  0.41800000000E+01 0.  1.
        -11    1    4    4    0    0  0.31575655951E+02  0.12568046755E+02  0.11126406831E+03  0.11633860384E+03  0.00000000000E+00 0. -1.
         11    1    4    4    0    0 -0.31356379462E+02  0.89945473571E+01  0.57146794791E+01  0.33117698843E+02  0.00000000000E+00 0.  1.
</event>
<event>
 8    1  0.6965441E-009  0.9740048E+02  0.7561462E-02  0.1285859E+00
          1   -1    0    0  501    0  0.00000000000E+00  0.00000000000E+00  0.87151685478E+02  0.87151685478E+02  0.00000000000E+00 0. -1.
         -1   -1    0    0    0  501 -0.00000000000E+00 -0.00000000000E+00 -0.15232304795E+03  0.15232304795E+03  0.00000000000E+00 0.  1.
         25    2    1    2    0    0 -0.32987172856E+02 -0.14969650368E+02 -0.50780913465E+02  0.13978682943E+03  0.12509761191E+03 0.  0.
         23    2    1    2    0    0  0.32987172856E+02  0.14969650368E+02 -0.14390449010E+02  0.99687903998E+02  0.91751562252E+02 0.  0.
          5    1    3    3  502    0  0.46947531136E+02 -0.56558864529E+01 -0.31363699610E+02  0.56896518211E+02  0.41800000000E+01 0. -1.
         -5    1    3    3    0  502 -0.79934703992E+02 -0.93137639147E+01 -0.19417213855E+02  0.82890311221E+02  0.41800000000E+01 0. -1.
        -11    1    4    4    0    0  0.49010373521E+02  0.11825498040E+02  0.25562481226E+02  0.56526980840E+02  0.00000000000E+00 0. -1.
         11    1    4    4    0    0 -0.16023200665E+02  0.31441523278E+01 -0.39952930236E+02  0.43160923158E+02  0.00000000000E+00 0.  1.
</event>
<event>
 8    1  0.6965441E-009  0.9320018E+02  0.7561462E-02  0.1295282E+00
         -2   -1    0    0    0  501 -0.00000000000E+00  0.00000000000E+00  0.43019938960E+02  0.43019938960E+02  0.00000000000E+00 0.  1.
          2   -1    0    0  501    0  0.00000000000E+00 -0.00000000000E+00 -0.38167545340E+03  0.38167545340E+03  0.00000000000E+00 0. -1.
         25    2    1    2    0    0 -0.62838606948E+02 -0.22554483256E+02 -0.18136582074E+03  0.23021465355E+03  0.12509128882E+03 0.  0.
         23    2    1    2    0    0  0.62838606948E+02  0.22554483256E+02 -0.15728969370E+03  0.19448073880E+03  0.92872572830E+02 0.  0.
          5    1    3    3  502    0 -0.16248993429E+02  0.78073789270E+01 -0.17280712620E+03  0.17379516742E+03  0.41800000000E+01 0.  1.
         -5    1    3    3    0  502 -0.46589613519E+02 -0.30361862183E+02 -0.85586945386E+01  0.56419486131E+02  0.41800000000E+01 0.  1.
        -11    1    4    4    0    0  0.68812970381E+02  0.49346843969E+02 -0.13384148280E+03  0.15837890775E+03  0.00000000000E+00 0. -1.
         11    1    4    4    0    0 -0.59743634327E+01 -0.26792360713E+02 -0.23448210895E+02  0.36101831051E+02  0.00000000000E+00 0.  1.
</event>
<event>
 8    1  0.6965441E-009  0.1025547E+03  0.7561462E-02  0.1275014E+00
          1   -1    0    0  501    0  0.00000000000E+00  0.00000000000E+00  0.40388408078E+03  0.40388408078E+03  0.00000000000E+00 0.  1.
         -1   -1    0    0    0  501 -0.00000000000E+00 -0.00000000000E+00 -0.39233174502E+02  0.39233174502E+02  0.00000000000E+00 0. -1.
         25    2    1    2    0    0 -0.54593794778E+01 -0.37586352849E+02  0.29065678160E+03  0.31870218302E+03  0.12508868066E+03 0.  0.
         23    2    1    2    0    0  0.54593794778E+01  0.37586352849E+02  0.73994124682E+02  0.12441507226E+03  0.92528055066E+02 0.  0.
          5    1    3    3  502    0 -0.22024497001E+02 -0.69396808875E+02  0.26381774947E+03  0.27371202547E+03  0.41800000000E+01 0. -1.
         -5    1    3    3    0  502  0.16565117523E+02  0.31810456026E+02  0.26839032131E+02  0.44990157556E+02  0.41800000000E+01 0. -1.
        -11    1    4    4    0    0  0.42999746626E+02  0.39631475491E+02  0.27496248066E+02  0.64619468562E+02  0.00000000000E+00 0. -1.
         11    1    4    4    0    0 -0.37540367149E+02 -0.20451226418E+01  0.46497876616E+02  0.59795603702E+02  0.00000000000E+00 0.  1.
</event>
<event>
 8    1  0.6965441E-009  0.1142841E+03  0.7561462E-02  0.1252836E+00
          1   -1    0    0  501    0  0.00000000000E+00  0.00000000000E+00  0.20347214203E+03  0.20347214203E+03  0.00000000000E+00 0. -1.
         -1   -1    0    0    0  501 -0.00000000000E+00 -0.00000000000E+00 -0.13947678002E+03  0.13947678002E+03  0.00000000000E+00 0.  1.
         25    2    1    2    0    0 -0.51435173792E+02 -0.54981765339E+02  0.14169327005E+03  0.20345535229E+03  0.12509406851E+03 0.  0.
         23    2    1    2    0    0  0.51435173792E+02  0.54981765339E+02 -0.77697908041E+02  0.13949356976E+03  0.88050664203E+02 0.  0.
          5    1    3    3  502    0 -0.18990389290E+02  0.28850072668E+02  0.96856473599E+02  0.10291555012E+03  0.41800000000E+01 0. -1.
         -5    1    3    3    0  502 -0.32444784502E+02 -0.83831838007E+02  0.44836796447E+02  0.10053980217E+03  0.41800000000E+01 0. -1.
        -11    1    4    4    0    0  0.21910290328E+02 -0.15854810287E+02 -0.51911058517E+02  0.58533698224E+02  0.00000000000E+00 0.  1.
         11    1    4    4    0    0  0.29524883464E+02  0.70836575626E+02 -0.25786849524E+02  0.80959871532E+02  0.00000000000E+00 0. -1.
</event>
<event>
 8    1  0.6965441E-009  0.1585757E+03  0.7561462E-02  0.1190314E+00
          2   -1    0    0  501    0  0.00000000000E+00  0.00000000000E+00  0.14140658830E+03  0.14140658830E+03  0.00000000000E+00 0. -1.
         -2   -1    0    0    0  501 -0.00000000000E+00 -0.00000000000E+00 -0.19632389722E+03  0.19632389722E+03  0.00000000000E+00 0.  1.
         25    2    1    2    0    0 -0.42141659278E+02 -0.11328669869E+03  0.59076772009E+01  0.17404429884E+03  0.12508685687E+03 0.  0.
         23    2    1    2    0    0  0.42141659278E+02  0.11328669869E+03 -0.60824986123E+02  0.16368618668E+03  0.92106966219E+02 0.  0.
          5    1    3    3  502    0 -0.41980898974E+02 -0.14030145803E+03  0.28263997247E+01  0.14653448720E+03  0.41800000000E+01 0. -1.
         -5    1    3    3    0  502 -0.16076030374E+00  0.27014759332E+02  0.30812774762E+01  0.27509811641E+02  0.41800000000E+01 0. -1.
        -11    1    4    4    0    0 -0.35769992976E+01  0.93370777540E+02 -0.12548212465E+02  0.94278070931E+02  0.00000000000E+00 0. -1.
         11    1    4    4    0    0  0.45718658576E+02  0.19915921154E+02 -0.48276773658E+02  0.69408115752E+02  0.00000000000E+00 0.  1.
</event>
<event>
 8    1  0.6965441E-009  0.1738290E+03  0.7561462E-02  0.1173913E+00
          1   -1    0    0  501    0  0.00000000000E+00  0.00000000000E+00  0.29259581309E+03  0.29259581309E+03  0.00000000000E+00 0. -1.
         -1   -1    0    0    0  501 -0.00000000000E+00 -0.00000000000E+00 -0.12685668444E+03  0.12685668444E+03  0.00000000000E+00 0.  1.
         25    2    1    2    0    0 -0.10862052343E+03 -0.11213381432E+03  0.11593058955E+03  0.23121357039E+03  0.12508958036E+03 0.  0.
         23    2    1    2    0    0  0.10862052343E+03  0.11213381432E+03  0.49808539095E+02  0.18823892714E+03  0.92631488699E+02 0.  0.
          5    1    3    3  502    0 -0.39870340906E+02  0.15465396159E+02  0.64215521711E+02  0.77265310398E+02  0.41800000000E+01 0. -1.
         -5    1    3    3    0  502 -0.68750182524E+02 -0.12759921048E+03  0.51715067841E+02  0.15394825999E+03  0.41800000000E+01 0. -1.
        -11    1    4    4    0    0  0.42226897081E+02  0.21637410402E+02 -0.24727560758E+02  0.53504585103E+02  0.00000000000E+00 0.  1.
         11    1    4    4    0    0  0.66393626349E+02  0.90496403921E+02  0.74536099853E+02  0.13473434203E+03  0.00000000000E+00 0. -1.
</event>
<event>
 8    1  0.6965441E-009  0.9600269E+02  0.7561462E-02  0.1288934E+00
          1   -1    0    0  501    0  0.00000000000E+00  0.00000000000E+00  0.31652800853E+03  0.31652800853E+03  0.00000000000E+00 0. -1.
         -1   -1    0    0    0  501 -0.00000000000E+00 -0.00000000000E+00 -0.91910374680E+02  0.91910374680E+02  0.00000000000E+00 0.  1.
         25    2    1    2    0    0  0.59766044432E+02 -0.28062586892E+02  0.25471566567E+03  0.29135360846E+03  0.12508943190E+03 0.  0.
         23    2    1    2    0    0 -0.59766044432E+02  0.28062586892E+02 -0.30098031825E+02  0.11708477475E+03  0.91888324112E+02 0.  0.
          5    1    3    3  502    0 -0.45226995359E+00  0.77571767561E+01 -0.12372461239E+02  0.15196332994E+02  0.41800000000E+01 0. -1.
         -5    1    3    3    0  502  0.60218314386E+02 -0.35819763648E+02  0.26708812691E+03  0.27615727547E+03  0.41800000000E+01 0. -1.
        -11    1    4    4    0    0 -0.45602902481E+02  0.61566641418E+02 -0.17493622446E+02  0.78588185349E+02  0.00000000000E+00 0.  1.
         11    1    4    4    0    0 -0.14163141951E+02 -0.33504054526E+02 -0.12604409379E+02  0.38496589399E+02  0.00000000000E+00 0. -1.
</event>
<event>
 8    1  0.6965441E-009  0.8624518E+02  0.7561462E-02  0.1312208E+00
         -2   -1    0    0    0  501 -0.00000000000E+00  0.00000000000E+00  0.37017964313E+03  0.37017964313E+03  0.00000000000E+00 0. -1.
          2   -1    0    0  501    0  0.00000000000E+00 -0.00000000000E+00 -0.40669870469E+02  0.40669870469E+02  0.00000000000E+00 0.  1.
         25    2    1    2    0    0 -0.46164946026E+02  0.17547799268E+02  0.18945701935E+03  0.23233628084E+03  0.12508819973E+03 0.  0.
         23    2    1    2    0    0  0.46164946026E+02 -0.17547799268E+02  0.14005275332E+03  0.17851323276E+03  0.99060956284E+02 0.  0.
          5    1    3    3  502    0  0.20792719318E+02  0.61690415568E+01  0.15405768320E+03  0.15563301836E+03  0.41800000000E+01 0. -1.
         -5    1    3    3    0  502 -0.66957665344E+02  0.11378757711E+02  0.35399336150E+02  0.76703262480E+02  0.41800000000E+01 0. -1.
        -11    1    4    4    0    0  0.59557935402E+02  0.89392742476E+00  0.14358463453E+03  0.15544932952E+03  0.00000000000E+00 0. -1.
         11    1    4    4    0    0 -0.13392989376E+02 -0.18441726692E+02 -0.35318812156E+01  0.23063903242E+02  0.00000000000E+00 0.  1.
</event>
<event>
 8    1  0.6965441E-009  0.1017563E+03  0.7561462E-02  0.1276646E+00
         -1   -1    0    0    0  501 -0.00000000000E+00  0.00000000000E+00  0.22991531392E+03  0.22991531392E+03  0.00000000000E+00 0.  1.
          1   -1    0    0  501    0  0.00000000000E+00 -0.00000000000E+00 -0.66334481165E+02  0.66334481165E+02  0.00000000000E+00 0. -1.
         25    2    1    2    0    0  0.14529768771E+02  0.48082108696E+02  0.68246699140E+02  0.15109022499E+03  0.12509053036E+03 0.  0.
         23    2    1    2    0    0 -0.14529768771E+02 -0.48082108696E+02  0.95334133614E+02  0.14515957010E+03  0.97260991161E+02 0.  0.
          5    1    3    3  502    0  0.43510710769E+02  0.66930053570E+02  0.65025184207E+01  0.80203298986E+02  0.41800000000E+01 0. -1.
         -5    1    3    3    0  502 -0.28980941998E+02 -0.18847944874E+02  0.61744180719E+02  0.70886926000E+02  0.41800000000E+01 0. -1.
        -11    1    4    4    0    0  0.29489771675E+01 -0.64620478594E+02  0.10146177869E+03  0.12032869672E+03  0.00000000000E+00 0.  1.
         11    1    4    4    0    0 -0.17478745938E+02  0.16538369898E+02 -0.61276450737E+01  0.24830873376E+02  0.00000000000E+00 0. -1.
</event>
<event>
 8    1  0.6965441E-009  0.2123681E+03  0.7561462E-02  0.1139704E+00
         -2   -1    0    0    0  501 -0.00000000000E+00  0.00000000000E+00  0.40737293927E+02  0.40737293927E+02  0.00000000000E+00 0.  1.
          2   -1    0    0  501    0  0.00000000000E+00 -0.00000000000E+00 -0.12866769155E+04  0.12866769155E+04  0.00000000000E+00 0. -1.
         25    2    1    2    0    0 -0.95994459355E+02  0.16881115354E+03 -0.79288485814E+03  0.82584893381E+03  0.12509165204E+03 0.  0.
         23    2    1    2    0    0  0.95994459355E+02 -0.16881115354E+03 -0.45305476338E+03  0.50156527557E+03  0.92719821228E+02 0.  0.
          5    1    3    3  502    0 -0.53531086449E+02  0.15662170729E+03 -0.73210271118E+03  0.75059162567E+03  0.41800000000E+01 0.  1.
         -5    1    3    3    0  502 -0.42463372906E+02  0.12189446249E+02 -0.60782146969E+02  0.75257308140E+02  0.41800000000E+01 0.  1.
        -11    1    4    4    0    0  0.72602498418E+01 -0.10558704906E+03 -0.20787797960E+03  0.23326935195E+03  0.00000000000E+00 0.  1.
         11    1    4    4    0    0  0.88734209513E+02 -0.63224104481E+02 -0.24517678378E+03  0.26829592362E+03  0.00000000000E+00 0. -1.
</event>
<event>
 8    1  0.6965441E-009  0.9382294E+02  0.7561462E-02  0.1293849E+00
         -1   -1    0    0    0  501 -0.00000000000E+00  0.00000000000E+00  0.27389937459E+02  0.27389937459E+02  0.00000000000E+00 0.  1.
          1   -1    0    0  501    0  0.00000000000E+00 -0.00000000000E+00 -0.61010353622E+03  0.61010353622E+03  0.00000000000E+00 0. -1.
         25    2    1    2    0    0 -0.27262795900E+02  0.35359934681E+02 -0.45522326631E+03  0.47420322542E+03  0.12508753650E+03 0.  0.
         23    2    1    2    0    0  0.27262795900E+02 -0.35359934681E+02 -0.12749033245E+03  0.16329024826E+03  0.91740586914E+02 0.  0.
          5    1    3    3  502    0 -0.12394379540E+01 -0.30838696782E+02 -0.31857525594E+03  0.32009409167E+03  0.41800000000E+01 0. -1.
         -5    1    3    3    0  502 -0.26023357946E+02  0.66198631463E+02 -0.13664801037E+03  0.15410913375E+03  0.41800000000E+01 0. -1.
        -11    1    4    4    0    0  0.44930195430E+02 -0.46260363952E+02 -0.12710328595E+03  0.14252715192E+03  0.00000000000E+00 0. -1.
         11    1    4    4    0    0 -0.17667399530E+02  0.10900429271E+02 -0.38704649178E+00  0.20763096335E+02  0.00000000000E+00 0.  1.
</event>
<event>
 8    1  0.6965441E-009  0.2004550E+03  0.7561462E-02  0.1149356E+00
         -2   -1    0    0    0  501 -0.00000000000E+00  0.00000000000E+00  0.55569997983E+03  0.55569997983E+03  0.00000000000E+00 0.  1.
          2   -1    0    0  501    0  0.00000000000E+00 -0.00000000000E+00 -0.82674030036E+02  0.82674030036E+02  0.00000000000E+00 0. -1.
         25    2    1    2    0    0 -0.15165316677E+03 -0.80319147621E+02  0.14567690826E+03  0.25752565637E+03  0.12509138109E+03 0.  0.
         23    2    1    2    0    0  0.15165316677E+03  0.80319147621E+02  0.32734904154E+03  0.38084835350E+03  0.91859811115E+02 0.  0.
          5    1    3    3  502    0 -0.76564992201E+02 -0.10418006265E+03  0.65332415264E+02  0.14491887513E+03  0.41800000000E+01 0. -1.
         -5    1    3    3    0  502 -0.75088174571E+02  0.23860915034E+02  0.80344492993E+02  0.11260678124E+03  0.41800000000E+01 0. -1.
        -11    1    4    4    0    0  0.45226039102E+02 -0.17121139956E+02  0.60173072464E+02  0.77196675421E+02  0.00000000000E+00 0.  1.
         11    1    4    4    0    0  0.10642712767E+03  0.97440287577E+02  0.26717596907E+03  0.30365167807E+03  0.00000000000E+00 0. -1.
</event>
<event>
 8    1  0.6965441E-009  0.2048979E+03  0.7561462E-02  0.1145671E+00
         -2   -1    0    0    0  501 -0.00000000000E+00  0.00000000000E+00  0.39618769241E+02  0.39618769241E+02  0.00000000000E+00 0.  1.
          2   -1    0    0  501    0  0.00000000000E+00 -0.00000000000E+00 -0.12845374262E+04  0.12845374262E+04  0.00000000000E+00 0. -1.
         25    2    1    2    0    0 -0.16299438165E+03 -0.11093077111E+03 -0.60131054783E+03  0.64505399180E+03  0.12508985965E+03 0.  0.
         23    2    1    2    0    0  0.16299438165E+03  0.11093077111E+03 -0.64360810911E+03  0.67910220361E+03  0.89864344511E+02 0.  0.
          5    1    3    3  502    0 -0.57396053683E+01  0.86668796708E+01  0.90945029900E+00  0.11240879541E+02  0.41800000000E+01 0.  1.
         -5    1    3    3    0  502 -0.15725477628E+03 -0.11959765078E+03 -0.60221999813E+03  0.63381311226E+03  0.41800000000E+01 0.  1.
        -11    1    4    4    0    0  0.14834692093E+03  0.84401572075E+02 -0.61183397572E+03  0.63519386660E+03  0.00000000000E+00 0.  1.
         11    1    4    4    0    0  0.14647460723E+02  0.26529199033E+02 -0.31774133390E+02  0.43908337018E+02  0.00000000000E+00 0. -1.
</event>
<event>
 8    1  0.6965441E-009  0.1012240E+03  0.7561462E-02  0.1277743E+00
         -3   -1    0    0    0  501 -0.00000000000E+00  0.00000000000E+00  0.62567848676E+02  0.62567848676E+02  0.00000000000E+00 0.  1.
          3   -1    0    0  501    0  0.00000000000E+00 -0.00000000000E+00 -0.20236404395E+03  0.20236404395E+03  0.00000000000E+00 0. -1.
         25    2    1    2    0    0 -0.56553115893E+01 -0.13234909791E+02 -0.50295074982E+02  0.13558675718E+03  0.12508808404E+03 0.  0.
         23    2    1    2    0    0  0.56553115893E+01  0.13234909791E+02 -0.89501120291E+02  0.12934513544E+03  0.92263579721E+02 0.  0.
          5    1    3    3  502    0 -0.10663236614E+02 -0.68887097971E+02 -0.26052745690E+02  0.74534252797E+02  0.41800000000E+01 0.  1.
         -5    1    3    3    0  502  0.50079250251E+01  0.55652188180E+02 -0.24242329292E+02  0.61052504386E+02  0.41800000000E+01 0.  1.
        -11    1    4    4    0    0  0.48389107461E+01  0.44772866798E+02 -0.13433175470E+02  0.46994413091E+02  0.00000000000E+00 0.  1.
         11    1    4    4    0    0  0.81640084314E+00 -0.31537957007E+02 -0.76067944822E+02  0.82350722352E+02  0.00000000000E+00 0. -1.
</event>
<event>
 8    1  0.6965441E-009  0.9442129E+02  0.7561462E-02  0.1292485E+00
         -1   -1    0    0    0  501 -0.00000000000E+00  0.00000000000E+00  0.55915225540E+02  0.55915225540E+02  0.00000000000E+00 0.  1.
          1   -1    0    0  501    0  0.00000000000E+00 -0.00000000000E+00 -0.21501365488E+03  0.21501365488E+03  0.00000000000E+00 0. -1.
         25    2    1    2    0    0 -0.19872277686E+01 -0.84586728002E+01 -0.11139677181E+03  0.16772737221E+03  0.12509089654E+03 0.  0.
         23    2    1    2    0    0  0.19872277686E+01  0.84586728002E+01 -0.47701657523E+02  0.10320150821E+03  0.91102167625E+02 0.  0.
          5    1    3    3  502    0 -0.48440599067E+02  0.21861280234E+02 -0.96323848327E+02  0.11009161352E+03  0.41800000000E+01 0.  1.
         -5    1    3    3    0  502  0.46453371298E+02 -0.30319953034E+02 -0.15072923487E+02  0.57635758687E+02  0.41800000000E+01 0.  1.
        -11    1    4    4    0    0  0.40200552033E+02 -0.21087672109E+01  0.11665649089E+01  0.40272722239E+02  0.00000000000E+00 0.  1.
         11    1    4    4    0    0 -0.38213324264E+02  0.10567440011E+02 -0.48868222432E+02  0.62928785967E+02  0.00000000000E+00 0. -1.
</event>
<event>
 8    1  0.6965441E-009  0.1037875E+03  0.7561462E-02  0.1272527E+00
         -2   -1    0    0    0  501 -0.00000000000E+00  0.00000000000E+00  0.94461826921E+03  0.94461826921E+03  0.00000000000E+00 0.  1.
          2   -1    0    0  501    0  0.00000000000E+00 -0.00000000000E+00 -0.12464269205E+02  0.12464269205E+02  0.00000000000E+00 0. -1.
         25    2    1    2    0    0  0.16739608778E+02 -0.16759652420E+02  0.56194419292E+03  0.57618533519E+03  0.12508862490E+03 0.  0.
         23    2    1    2    0    0 -0.16739608778E+02  0.16759652420E+02  0.37020980709E+03  0.38089720323E+03  0.86407625315E+02 0.  0.
          5    1    3    3  502    0  0.22742150281E+02 -0.66884744178E+02  0.40881153152E+03  0.41489169082E+03  0.41800000000E+01 0. -1.
         -5    1    3    3    0  502 -0.60025415035E+01  0.50125091758E+02  0.15313266139E+03  0.16129364437E+03  0.41800000000E+01 0. -1.
        -11    1    4    4    0    0  0.28576859990E+02 -0.13555235198E+02  0.89056932402E+02  0.94506711597E+02  0.00000000000E+00 0. -1.
         11    1    4    4    0    0 -0.45316468767E+02  0.30314887618E+02  0.28115287469E+03  0.28639049163E+03  0.00000000000E+00 0.  1.
</event>
<event>
 8    1  0.6965441E-009  0.1132574E+03  0.7561462E-02  0.1254654E+00
          1   -1    0    0  501    0  0.00000000000E+00  0.00000000000E+00  0.23995970952E+03  0.23995970952E+03  0.00000000000E+00 0. -1.
         -1   -1    0    0    0  501 -0.00000000000E+00 -0.00000000000E+00 -0.66394490496E+02  0.66394490496E+02  0.00000000000E+00 0.  1.
         25    2    1    2    0    0  0.12076289935E+02 -0.34654452510E+02  0.15973769708E+03  0.20618178442E+03  0.12509208008E+03 0.  0.
         23    2    1    2    0    0 -0.12076289935E+02  0.34654452510E+02  0.13827521940E+02  0.10017241559E+03  0.92176703270E+02 0.  0.
          5    1    3    3  502    0  0.45198301456E+02  0.30380581612E+02  0.48337760877E+02  0.72937491869E+02  0.41800000000E+01 0.  1.
         -5    1    3    3    0  502 -0.33122011521E+02 -0.65035034122E+02  0.11139993620E+03  0.13324429255E+03  0.41800000000E+01 0.  1.
        -11    1    4    4    0    0 -0.38370525728E+02 -0.16114805980E+02  0.10391965598E+02  0.42894955011E+02  0.00000000000E+00 0. -1.
         11    1    4    4    0    0  0.26294235794E+02  0.50769258489E+02  0.34355563412E+01  0.57277460584E+02  0.00000000000E+00 0.  1.
</event>
<event>
 8    1  0.6965441E-009  0.1303256E+03  0.7561462E-02  0.1226973E+00
          1   -1    0    0  501    0  0.00000000000E+00  0.00000000000E+00  0.94473957215E+02  0.94473957215E+02  0.00000000000E+00 0. -1.
         -1   -1    0    0    0  501 -0.00000000000E+00 -0.00000000000E+00 -0.34890607922E+03  0.34890607922E+03  0.00000000000E+00 0.  1.
         25    2    1    2    0    0  0.10449257438E+03 -0.34289798243E+02 -0.17462792976E+02  0.16746995590E+03  0.12508696425E+03 0.  0.
         23    2    1    2    0    0 -0.10449257438E+03  0.34289798243E+02 -0.23696932903E+03  0.27591008054E+03  0.88754838052E+02 0.  0.
          5    1    3    3  502    0  0.96658506066E+02 -0.71726745000E+01  0.38720551504E+02  0.10445605566E+03  0.41800000000E+01 0. -1.
         -5    1    3    3    0  502  0.78340683168E+01 -0.27117123743E+02 -0.56183344480E+02  0.63013900240E+02  0.41800000000E+01 0. -1.
        -11    1    4    4    0    0 -0.11010178808E+03  0.10432354177E+02 -0.21958221610E+03  0.24586091064E+03  0.00000000000E+00 0. -1.
         11    1    4    4    0    0  0.56092136961E+01  0.23857444066E+02 -0.17387112923E+02  0.30049169896E+02  0.00000000000E+00 0.  1.
</event>
<event>
 8    1  0.6965441E-009  0.1682641E+03  0.7561462E-02  0.1179670E+00
         -2   -1    0    0    0  501 -0.00000000000E+00  0.00000000000E+00  0.25963870476E+02  0.25963870476E+02  0.00000000000E+00 0.  1.
          2   -1    0    0  501    0  0.00000000000E+00 -0.00000000000E+00 -0.16149866471E+04  0.16149866471E+04  0.00000000000E+00 0. -1.
         25    2    1    2    0    0  0.80543796376E+02  0.11465428065E+03 -0.12394715062E+04  0.12536227405E+04  0.12508978230E+03 0.  0.
         23    2    1    2    0    0 -0.80543796376E+02 -0.11465428065E+03 -0.34955127049E+03  0.38732777713E+03  0.90574880788E+02 0.  0.
          5    1    3    3  502    0  0.36644995399E+02  0.12330711324E+03 -0.10891409012E+04  0.10967191414E+04  0.41800000000E+01 0.  1.
         -5    1    3    3    0  502  0.43898800977E+02 -0.86528325921E+01 -0.15033060492E+03  0.15690359911E+03  0.41800000000E+01 0.  1.
        -11    1    4    4    0    0  0.16038366458E+02 -0.31873862391E+02 -0.46114361253E+02  0.58307003148E+02  0.00000000000E+00 0.  1.
         11    1    4    4    0    0 -0.96582162834E+02 -0.82780418262E+02 -0.30343690923E+03  0.32902077398E+03  0.00000000000E+00 0. -1.
</event>
<event>
 8    1  0.6965441E-009  0.1066910E+03  0.7561462E-02  0.1266823E+00
         -2   -1    0    0    0  501 -0.00000000000E+00  0.00000000000E+00  0.20706126767E+02  0.20706126767E+02  0.00000000000E+00 0.  1.
          2   -1    0    0  501    0  0.00000000000E+00 -0.00000000000E+00 -0.10678038675E+04  0.10678038675E+04  0.00000000000E+00 0. -1.
         25    2    1    2    0    0 -0.58805652143E+02  0.28160607949E+02 -0.84821695340E+03  0.85986659871E+03  0.12508973970E+03 0.  0.
         23    2    1    2    0    0  0.58805652143E+02 -0.28160607949E+02 -0.19888078736E+03  0.22864339558E+03  0.92049498635E+02 0.  0.
          5    1    3    3  502    0  0.11562572018E+02  0.54377950305E+02 -0.52803598647E+03  0.53097093137E+03  0.41800000000E+01 0. -1.
         -5    1    3    3    0  502 -0.70368224161E+02 -0.26217342356E+02 -0.32018096693E+03  0.32889566734E+03  0.41800000000E+01 0. -1.
        -11    1    4    4    0    0  0.41746145738E+02  0.79388470608E+01 -0.17912361946E+03  0.18409518468E+03  0.00000000000E+00 0. -1.
         11    1    4    4    0    0  0.17059506405E+02 -0.36099455010E+02 -0.19757167904E+02  0.44548210900E+02  0.00000000000E+00 0.  1.
</event>
<event>
 8    1  0.6965441E-009  0.8420324E+02  0.7561462E-02  0.1317529E+00
          2   -1    0    0  501    0  0.00000000000E+00  0.00000000000E+00  0.25733691594E+03  0.25733691594E+03  0.00000000000E+00 0. -1.
         -2   -1    0    0    0  501 -0.00000000000E+00 -0.00000000000E+00 -0.82556018498E+02  0.82556018498E+02  0.00000000000E+00 0.  1.
         25    2    1    2    0    0 -0.29677069518E+02  0.47233589017E+02  0.12908879393E+01  0.13697150655E+03  0.12509111411E+03 0.  0.
         23    2    1    2    0    0  0.29677069518E+02 -0.47233589017E+02  0.17349000950E+03  0.20292142789E+03  0.89255711927E+02 0.  0.
          5    1    3    3  502    0 -0.18268893647E+02  0.57391882648E+02 -0.53049866349E+02  0.80370027925E+02  0.41800000000E+01 0. -1.
         -5    1    3    3    0  502 -0.11408175871E+02 -0.10158293631E+02  0.54340754288E+02  0.56601478628E+02  0.41800000000E+01 0. -1.
        -11    1    4    4    0    0  0.12663699776E+02 -0.65802927916E+02  0.72021881160E+02  0.98374518958E+02  0.00000000000E+00 0.  1.
         11    1    4    4    0    0  0.17013369742E+02  0.18569338899E+02  0.10146812834E+03  0.10454690893E+03  0.00000000000E+00 0. -1.
</event>
<event>
 8    1  0.6965441E-009  0.1380935E+03  0.7561462E-02  0.1215917E+00
          1   -1    0    0  501    0  0.00000000000E+00  0.00000000000E+00  0.19035195196E+04  0.19035195196E+04  0.00000000000E+00 0. -1.
         -1   -1    0    0    0  501 -0.00000000000E+00 -0.00000000000E+00 -0.11142532418E+02  0.11142532418E+02  0.00000000000E+00 0.  1.
         25    2    1    2    0    0 -0.85253207656E+02  0.94803203361E+01  0.13117496691E+04  0.13204895946E+04  0.12509032384E+03 0.  0.
         23    2    1    2    0    0  0.85253207656E+02 -0.94803203361E+01  0.58062731806E+03  0.59417245742E+03  0.92492382312E+02 0.  0.
          5    1    3    3  502    0  0.32275928796E+02 -0.35540601042E+01  0.33626001195E+03  0.33785001844E+03  0.41800000000E+01 0.  1.
         -5    1    3    3    0  502 -0.11752913645E+03  0.13034380440E+02  0.97548965714E+03  0.98263957613E+03  0.41800000000E+01 0.  1.
        -11    1    4    4    0    0  0.95510341235E+02  0.16742857404E+02  0.41576561608E+03  0.42692340774E+03  0.00000000000E+00 0.  1.
         11    1    4    4    0    0 -0.10257133579E+02 -0.26223177740E+02  0.16486170198E+03  0.16724904968E+03  0.00000000000E+00 0. -1.
</event>
<event>
 8    1  0.6965441E-009  0.8093654E+02  0.7561462E-02  0.1326414E+00
         -2   -1    0    0    0  501 -0.00000000000E+00  0.00000000000E+00  0.30737705987E+03  0.30737705987E+03  0.00000000000E+00 0.  1.
          2   -1    0    0  501    0  0.00000000000E+00 -0.00000000000E+00 -0.51150553436E+02  0.51150553436E+02  0.00000000000E+00 0. -1.
         25    2    1    2    0    0  0.51739326504E+02  0.29682095306E+02  0.12987495234E+03  0.18992863873E+03  0.12508956742E+03 0.  0.
         23    2    1    2    0    0 -0.51739326504E+02 -0.29682095306E+02  0.12635155409E+03  0.16859897457E+03  0.94355255899E+02 0.  0.
          5    1    3    3  502    0 -0.46919599289E-02  0.15375549776E-01  0.13006961713E+03  0.13013676636E+03  0.41800000000E+01 0. -1.
         -5    1    3    3    0  502  0.51744018464E+02  0.29666719756E+02 -0.19466478719E+00  0.59791872376E+02  0.41800000000E+01 0. -1.
        -11    1    4    4    0    0 -0.26480917773E+02  0.25780789697E+02  0.11715999946E+02  0.38770514289E+02  0.00000000000E+00 0. -1.
         11    1    4    4    0    0 -0.25258408731E+02 -0.55462885003E+02  0.11463555415E+03  0.12982846028E+03  0.00000000000E+00 0.  1.
</event>
<event>
 7    1  0.6965441E-009  0.9682637E+02  0.7561462E-02  0.1287115E+00
          2   -1    0    0  501    0  0.00000000000E+00  0.00000000000E+00  0.45098415117E+03  0.45098415117E+03  0.00000000000E+00 0.  1.
         -2   -1    0    0    0  501 -0.00000000000E+00 -0.00000000000E+00 -0.36802194491E+02  0.36802194491E+02  0.00000000000E+00 0. -1.
         25    2    1    2    0    0 -0.55210277331E+02  0.37666048777E+01  0.40456317527E+03  0.42706127648E+03  0.12509040350E+03 0.  0.
          5    1    3    3  502    0 -0.16804735862E+02 -0.59798324763E+02  0.19416610372E+03  0.20390239583E+03  0.41800000000E+01 0. -1.
         -5    1    3    3    0  502 -0.38405541469E+02  0.63564929640E+02  0.21039707155E+03  0.22315888065E+03  0.41800000000E+01 0. -1.
        -11    1    1    2    0    0  0.18957195859E+02  0.52212159719E+01  0.12440476616E+02  0.23268043095E+02  0.00000000000E+00 0.  1.
         11    1    1    2    0    0  0.36253081472E+02 -0.89878208496E+01 -0.28216952005E+01  0.37457026092E+02  0.00000000000E+00 0. -1.
</event>
<event>
 8    1  0.6965441E-009  0.1097177E+03  0.7561462E-02  0.1261094E+00
          1   -1    0    0  501    0  0.00000000000E+00  0.00000000000E+00  0.55803209735E+03  0.55803209735E+03  0.00000000000E+00 0. -1.
         -1   -1    0    0    0  501 -0.00000000000E+00 -0.00000000000E+00 -0.45473480362E+02  0.45473480362E+02  0.00000000000E+00 0.  1.
         25    2    1    2    0    0  0.93188586094E+02  0.43936006901E+02  0.17288809660E+03  0.23696495761E+03  0.12509041493E+03 0.  0.
         23    2    1    2    0    0 -0.93188586094E+02 -0.43936006901E+02  0.33967052038E+03  0.36654062010E+03  0.91441120322E+02 0.  0.
          5    1    3    3  502    0  0.17072259890E+02 -0.95199692130E+01  0.13495651094E+03  0.13642882436E+03  0.41800000000E+01 0.  1.
         -5    1    3    3    0  502  0.76116326205E+02  0.53455976114E+02  0.37931585660E+02  0.10053613325E+03  0.41800000000E+01 0.  1.
        -11    1    4    4    0    0 -0.17245891927E+02  0.23479197774E+01  0.21946206483E+01  0.17542801242E+02  0.00000000000E+00 0.  1.
         11    1    4    4    0    0 -0.75942694168E+02 -0.46283926678E+02  0.33747589974E+03  0.34899781886E+03  0.00000000000E+00 0. -1.
</event>
<event>
 8    1  0.6965441E-009  0.1739326E+03  0.7561462E-02  0.1173808E+00
          4   -1    0    0  501    0  0.00000000000E+00  0.00000000000E+00  0.70402353857E+02  0.70402353857E+02  0.00000000000E+00 0. -1.
         -4   -1    0    0    0  501 -0.00000000000E+00 -0.00000000000E+00 -0.50043837201E+03  0.50043837201E+03  0.00000000000E+00 0.  1.
         25    2    1    2    0    0  0.15098079055E+03 -0.11274205568E+02 -0.26397414746E+03  0.32901738856E+03  0.12509110527E+03 0.  0.
         23    2    1    2    0    0 -0.15098079055E+03  0.11274205568E+02 -0.16606187069E+03  0.24182333731E+03  0.89329025212E+02 0.  0.
          5    1    3    3  502    0  0.11959235099E+03  0.48108229373E+02 -0.17890069678E+03  0.22054401796E+03  0.41800000000E+01 0.  1.
         -5    1    3    3    0  502  0.31388439557E+02 -0.59382434941E+02 -0.85073450684E+02  0.10847337060E+03  0.41800000000E+01 0.  1.
        -11    1    4    4    0    0 -0.63346261248E+02  0.95156992235E+00 -0.13349457116E+03  0.14776486331E+03  0.00000000000E+00 0. -1.
         11    1    4    4    0    0 -0.87634529303E+02  0.10322635646E+02 -0.32567299526E+02  0.94058474000E+02  0.00000000000E+00 0.  1.
</event>
<event>
 8    1  0.6965441E-009  0.2387651E+03  0.7561462E-02  0.1120618E+00
         -2   -1    0    0    0  501 -0.00000000000E+00  0.00000000000E+00  0.23109956412E+03  0.23109956412E+03  0.00000000000E+00 0.  1.
          2   -1    0    0  501    0  0.00000000000E+00 -0.00000000000E+00 -0.31014715967E+03  0.31014715967E+03  0.00000000000E+00 0. -1.
         25    2    1    2    0    0 -0.13513296728E+03  0.17869082517E+03 -0.13593307742E+03  0.29037336701E+03  0.12509021100E+03 0.  0.
         23    2    1    2    0    0  0.13513296728E+03 -0.17869082517E+03  0.56885481867E+02  0.25087335679E+03  0.97520014640E+02 0.  0.
          5    1    3    3  502    0 -0.24382451341E+01 -0.14587015569E+02  0.57512614982E+01  0.16409615211E+02  0.41800000000E+01 0.  1.
         -5    1    3    3    0  502 -0.13269472214E+03  0.19327784074E+03 -0.14168433892E+03  0.27396375180E+03  0.41800000000E+01 0.  1.
        -11    1    4    4    0    0  0.33900384443E+02 -0.77282943838E+02 -0.22127170215E+02  0.87243917470E+02  0.00000000000E+00 0.  1.
         11    1    4    4    0    0  0.10123258283E+03 -0.10140788133E+03  0.79012652082E+02  0.16362943932E+03  0.00000000000E+00 0. -1.
</event>
<event>
 8    1  0.6965441E-009  0.1075197E+03  0.7561462E-02  0.1265233E+00
          2   -1    0    0  501    0  0.00000000000E+00  0.00000000000E+00  0.11531644054E+04  0.11531644054E+04  0.00000000000E+00 0. -1.
         -2   -1    0    0    0  501 -0.00000000000E+00 -0.00000000000E+00 -0.10548944639E+02  0.10548944639E+02  0.00000000000E+00 0.  1.
         25    2    1    2    0    0 -0.88049458084E+00 -0.15474272859E+02  0.75497656246E+03  0.76542655497E+03  0.12509185747E+03 0.  0.
         23    2    1    2    0    0  0.88049458084E+00  0.15474272859E+02  0.38763889826E+03  0.39828679502E+03  0.90156681693E+02 0.  0.
          5    1    3    3  502    0  0.43053293039E+02 -0.52430546547E+02  0.37407640998E+03  0.38020150073E+03  0.41800000000E+01 0.  1.
         -5    1    3    3    0  502 -0.43933787620E+02  0.36956273687E+02  0.38090015247E+03  0.38522505424E+03  0.41800000000E+01 0.  1.
        -11    1    4    4    0    0  0.43174807356E+02 -0.31573456544E+01  0.22886754611E+03  0.23292571023E+03  0.00000000000E+00 0.  1.
         11    1    4    4    0    0 -0.42294312775E+02  0.18631618514E+02  0.15877135215E+03  0.16536108479E+03  0.00000000000E+00 0. -1.
</event>
<event>
 8    1  0.6965441E-009  0.8797531E+02  0.7561462E-02  0.1307830E+00
          2   -1    0    0  501    0  0.00000000000E+00  0.00000000000E+00  0.14073938869E+03  0.14073938869E+03  0.00000000000E+00 0. -1.
         -2   -1    0    0    0  501 -0.00000000000E+00 -0.00000000000E+00 -0.26807723886E+03  0.26807723886E+03  0.00000000000E+00 0.  1.
         25    2    1    2    0    0  0.43118152443E+02 -0.72916510901E+01 -0.22351196203E+03  0.25984105684E+03  0.12508970543E+03 0.  0.
         23    2    1    2    0    0 -0.43118152443E+02  0.72916510901E+01  0.96174111867E+02  0.14897557071E+03  0.10503293592E+03 0.  0.
          5    1    3    3  502    0  0.59317816539E+02 -0.43163545480E+02 -0.70637472195E+02  0.10192556056E+03  0.41800000000E+01 0.  1.
         -5    1    3    3    0  502 -0.16199664095E+02  0.35871894390E+02 -0.15287448983E+03  0.15791549628E+03  0.41800000000E+01 0.  1.
        -11    1    4    4    0    0 -0.40582957009E+02  0.23223388057E+02  0.11502428152E+03  0.12416475946E+03  0.00000000000E+00 0. -1.
         11    1    4    4    0    0 -0.25351954347E+01 -0.15931736967E+02 -0.18850169655E+02  0.24810811246E+02  0.00000000000E+00 0.  1.
</event>
<event>
 8    1  0.6965441E-009  0.2406466E+03  0.7561462E-02  0.1119363E+00
         -1   -1    0    0    0  501 -0.00000000000E+00  0.00000000000E+00  0.18515963340E+02  0.18515963340E+02  0.00000000000E+00 0.  1.
          1   -1    0    0  501    0  0.00000000000E+00 -0.00000000000E+00 -0.42155365469E+04  0.42155365469E+04  0.00000000000E+00 0. -1.
         25    2    1    2    0    0  0.12117234271E+03  0.19621875305E+03 -0.30235671284E+04  0.30349278785E+04  0.12507802392E+03 0.  0.
         23    2    1    2    0    0 -0.12117234271E+03 -0.19621875305E+03 -0.11734534552E+04  0.11991246318E+04  0.87876819106E+02 0.  0.
          5    1    3    3  502    0  0.96069134114E+02  0.68627810255E+02 -0.95608413436E+03  0.96335528194E+03  0.41800000000E+01 0.  1.
         -5    1    3    3    0  502  0.25103208592E+02  0.12759094280E+03 -0.20674829940E+04  0.20715725966E+04  0.41800000000E+01 0.  1.
        -11    1    4    4    0    0 -0.41326272769E+02 -0.39514938244E+02 -0.14729013449E+03  0.15799897115E+03  0.00000000000E+00 0.  1.
         11    1    4    4    0    0 -0.79846069937E+02 -0.15670381481E+03 -0.10261633207E+04  0.10411256606E+04  0.00000000000E+00 0. -1.
</event>
<event>
 8    1  0.6965441E-009  0.1035158E+03  0.7561462E-02  0.1273072E+00
         -1   -1    0    0    0  501 -0.00000000000E+00  0.00000000000E+00  0.17914662413E+02  0.17914662413E+02  0.00000000000E+00 0.  1.
          1   -1    0    0  501    0  0.00000000000E+00 -0.00000000000E+00 -0.71811243361E+03  0.71811243361E+03  0.00000000000E+00 0. -1.
         25    2    1    2    0    0 -0.29750009812E+02  0.10923424719E+02 -0.37284658597E+03  0.39454543454E+03  0.12508852448E+03 0.  0.
         23    2    1    2    0    0  0.29750009812E+02 -0.10923424719E+02 -0.32735118524E+03  0.34148166149E+03  0.91905072584E+02 0.  0.
          5    1    3    3  502    0 -0.46306773050E+02 -0.48154406781E+02 -0.17515291899E+03  0.18750781732E+03  0.41800000000E+01 0. -1.
         -5    1    3    3    0  502  0.16556763238E+02  0.59077831501E+02 -0.19769366697E+03  0.20703761722E+03  0.41800000000E+01 0. -1.
        -11    1    4    4    0    0  0.43441328912E+02 -0.31656447209E+02 -0.29896130981E+03  0.30375507316E+03  0.00000000000E+00 0. -1.
         11    1    4    4    0    0 -0.13691319100E+02  0.20733022490E+02 -0.28389875429E+02  0.37726588332E+02  0.00000000000E+00 0.  1.
</event>
<event>
 8    1  0.6965441E-009  0.2623975E+03  0.7561462E-02  0.1105711E+00
         -2   -1    0    0    0  501 -0.00000000000E+00  0.00000000000E+00  0.17816913994E+03  0.17816913994E+03  0.00000000000E+00 0.  1.
          2   -1    0    0  501    0  0.00000000000E+00 -0.00000000000E+00 -0.43249858119E+03  0.43249858119E+03  0.00000000000E+00 0. -1.
         25    2    1    2    0    0 -0.11101355110E+03 -0.22014016162E+03 -0.20146026206E+03  0.34208162675E+03  0.12509157798E+03 0.  0.
         23    2    1    2    0    0  0.11101355110E+03  0.22014016162E+03 -0.52869179194E+02  0.26858609438E+03  0.92507516972E+02 0.  0.
          5    1    3    3  502    0 -0.13205992641E+03 -0.21155068305E+03 -0.19852360330E+03  0.31878301261E+03  0.41800000000E+01 0. -1.
         -5    1    3    3    0  502  0.21046375315E+02 -0.85894785761E+01 -0.29366587632E+01  0.23298614139E+02  0.41800000000E+01 0. -1.
        -11    1    4    4    0    0  0.98640648081E+02  0.14052146202E+03  0.95266209895E+00  0.17168915606E+03  0.00000000000E+00 0.  1.
         11    1    4    4    0    0  0.12372903016E+02  0.79618699602E+02 -0.53821841293E+02  0.96896938319E+02  0.00000000000E+00 0. -1.
</event>
<event>
 8    1  0.6965441E-009  0.2031460E+03  0.7561462E-02  0.1147112E+00
          1   -1    0    0  501    0  0.00000000000E+00  0.00000000000E+00  0.92060369452E+03  0.92060369452E+03  0.00000000000E+00 0. -1.
         -1   -1    0    0    0  501 -0.00000000000E+00 -0.00000000000E+00 -0.55205622175E+02  0.55205622175E+02  0.00000000000E+00 0.  1.
         25    2    1    2    0    0  0.42588310968E+02 -0.19109129846E+03  0.44221068406E+03  0.49951747070E+03  0.12505105298E+03 0.  0.
         23    2    1    2    0    0 -0.42588310968E+02  0.19109129846E+03  0.42318738828E+03  0.47629184600E+03  0.97142721730E+02 0.  0.
          5    1    3    3  502    0  0.29233325973E+02 -0.61238821073E+02  0.45364654782E+02  0.81732520194E+02  0.41800000000E+01 0.  1.
         -5    1    3    3    0  502  0.13354984995E+02 -0.12985247739E+03  0.39684602928E+03  0.41778495050E+03  0.41800000000E+01 0.  1.
        -11    1    4    4    0    0  0.16388986745E+02  0.82645495424E+02  0.10261854156E+03  0.13277590848E+03  0.00000000000E+00 0.  1.
         11    1    4    4    0    0 -0.58977297713E+02  0.10844580304E+03  0.32056884672E+03  0.34351593752E+03  0.00000000000E+00 0. -1.
</event>
<event>
 8    1  0.6965441E-009  0.7893303E+02  0.7561462E-02  0.1332107E+00
          1   -1    0    0  501    0  0.00000000000E+00  0.00000000000E+00  0.22132574480E+03  0.22132574480E+03  0.00000000000E+00 0. -1.
         -1   -1    0    0    0  501 -0.00000000000E+00 -0.00000000000E+00 -0.11509579940E+03  0.11509579940E+03  0.00000000000E+00 0.  1.
         25    2    1    2    0    0  0.25881907506E+01 -0.27381020892E+02 -0.62803135303E+02  0.14264837674E+03  0.12509159263E+03 0.  0.
         23    2    1    2    0    0 -0.25881907506E+01  0.27381020892E+02  0.16903308070E+03  0.19377316746E+03  0.90661121860E+02 0.  0.
          5    1    3    3  502    0 -0.14569808867E+01  0.18756180009E+02 -0.87774621864E+02  0.89865308798E+02  0.41800000000E+01 0.  1.
         -5    1    3    3    0  502  0.40451716373E+01 -0.46137200901E+02  0.24971486562E+02  0.52783067945E+02  0.41800000000E+01 0.  1.
        -11    1    4    4    0    0  0.42195360758E+02  0.65493651040E+01  0.56021404855E+02  0.70439622761E+02  0.00000000000E+00 0.  1.
         11    1    4    4    0    0 -0.44783551509E+02  0.20831655788E+02  0.11301167585E+03  0.12333354469E+03  0.00000000000E+00 0. -1.
</event>
<event>
 8    1  0.6965441E-009  0.8709241E+02  0.7561462E-02  0.1310050E+00
          4   -1    0    0  501    0  0.00000000000E+00  0.00000000000E+00  0.13310973612E+03  0.13310973612E+03  0.00000000000E+00 0.  1.
         -4   -1    0    0    0  501 -0.00000000000E+00 -0.00000000000E+00 -0.11810164013E+03  0.11810164013E+03  0.00000000000E+00 0. -1.
         25    2    1    2    0    0 -0.12339252196E+02 -0.14294615957E+02  0.67706289052E+02  0.14348663173E+03  0.12509068198E+03 0.  0.
         23    2    1    2    0    0  0.12339252196E+02  0.14294615957E+02 -0.52698193054E+02  0.10772474452E+03  0.92037643606E+02 0.  0.
          5    1    3    3  502    0 -0.59052055706E+02  0.22675983584E+02  0.51311442868E+02  0.81557845017E+02  0.41800000000E+01 0. -1.
         -5    1    3    3    0  502  0.46712803510E+02 -0.36970599541E+02  0.16394846184E+02  0.61928786711E+02  0.41800000000E+01 0. -1.
        -11    1    4    4    0    0 -0.11409948419E+02  0.23082466151E+02  0.18795534769E+02  0.31878822026E+02  0.00000000000E+00 0.  1.
         11    1    4    4    0    0  0.23749200615E+02 -0.87878501944E+01 -0.71493727823E+02  0.75845922494E+02  0.00000000000E+00 0. -1.
</event>
<event>
 8    1  0.6965441E-009  0.7462368E+02  0.7561462E-02  0.1345040E+00
         -2   -1    0    0    0  501 -0.00000000000E+00  0.00000000000E+00  0.21300830216E+02  0.21300830216E+02  0.00000000000E+00 0.  1.
          2   -1    0    0  501    0  0.00000000000E+00 -0.00000000000E+00 -0.66781668593E+03  0.66781668593E+03  0.00000000000E+00 0. -1.
         25    2    1    2    0    0 -0.43417164139E+02  0.18141775228E+02 -0.31704815277E+03  0.34405943590E+03  0.12507273924E+03 0.  0.
         23    2    1    2    0    0  0.43417164139E+02 -0.18141775228E+02 -0.32946770294E+03  0.34505808025E+03  0.91114967567E+02 0.  0.
          5    1    3    3  502    0 -0.22580638246E+02 -0.52826983459E+01  0.18128283786E+01  0.23633680885E+02  0.41800000000E+01 0. -1.
         -5    1    3    3    0  502 -0.20836525893E+02  0.23424473573E+02 -0.31886098115E+03  0.32042575501E+03  0.41800000000E+01 0. -1.
        -11    1    4    4    0    0  0.36101009712E+02  0.29026418770E+02 -0.93916216258E+02  0.10471901243E+03  0.00000000000E+00 0.  1.
         11    1    4    4    0    0  0.73161544274E+01 -0.47168193998E+02 -0.23555148668E+03  0.24033906781E+03  0.00000000000E+00 0. -1.
</event>
<event>
 8    1  0.6965441E-009  0.1065237E+03  0.7561462E-02  0.1267146E+00
          1   -1    0    0  501    0  0.00000000000E+00  0.00000000000E+00  0.93894022595E+02  0.93894022595E+02  0.00000000000E+00 0. -1.
         -1   -1    0    0    0  501 -0.00000000000E+00 -0.00000000000E+00 -0.22299524801E+03  0.22299524801E+03  0.00000000000E+00 0.  1.
         25    2    1    2    0    0  0.29913775072E+02  0.76340544684E+02 -0.12424455638E+03  0.19443646324E+03  0.12508443446E+03 0.  0.
         23    2    1    2    0    0 -0.29913775072E+02 -0.76340544684E+02 -0.48566690358E+01  0.12245280737E+03  0.90820647963E+02 0.  0.
          5    1    3    3  502    0  0.61826343400E+02  0.75770761137E+02 -0.12896207178E+03  0.16190241919E+03  0.41800000000E+01 0.  1.
         -5    1    3    3    0  502 -0.31912568328E+02  0.56978354645E+00  0.47175154011E+01  0.32534044049E+02  0.41800000000E+01 0.  1.
        -11    1    4    4    0    0 -0.25940441147E+02 -0.49935590100E+02 -0.46490388898E+02  0.72991957813E+02  0.00000000000E+00 0.  1.
         11    1    4    4    0    0 -0.39733339256E+01 -0.26404954584E+02  0.41633719863E+02  0.49460849555E+02  0.00000000000E+00 0. -1.
</event>
<event>
 7    1  0.6965441E-009  0.1114898E+03  0.7561462E-02  0.1257836E+00
          1   -1    0    0  501    0  0.00000000000E+00  0.00000000000E+00  0.41359808831E+03  0.41359808831E+03  0.00000000000E+00 0. -1.
         -1   -1    0    0    0  501 -0.00000000000E+00 -0.00000000000E+00 -0.32649964213E+02  0.32649964213E+02  0.00000000000E+00 0.  1.
         23    2    1    2    0    0  0.80858814595E+01 -0.24295362845E+02  0.11153864832E+03  0.14834861012E+03  0.94397001650E+02 0.  0.
          5    1    1    2  502    0 -0.18847377981E+02 -0.48803905369E+02  0.97265333541E+02  0.11052177317E+03  0.41800000000E+01 0.  1.
         -5    1    1    2    0  502  0.10761496521E+02  0.73099268214E+02  0.17214414224E+03  0.18737766924E+03  0.41800000000E+01 0.  1.
        -11    1    3    3    0    0 -0.17948898353E+02 -0.54051114886E+02  0.77504737459E+02  0.96180404975E+02  0.00000000000E+00 0. -1.
         11    1    3    3    0    0  0.26034779812E+02  0.29755752042E+02  0.34033910856E+02  0.52168205141E+02  0.00000000000E+00 0.  1.
</event>
<event>
 8    1  0.6965441E-009  0.1437090E+03  0.7561462E-02  0.1208424E+00
          2   -1    0    0  501    0  0.00000000000E+00  0.00000000000E+00  0.47723082387E+03  0.47723082387E+03  0.00000000000E+00 0. -1.
         -2   -1    0    0    0  501 -0.00000000000E+00 -0.00000000000E+00 -0.61003106627E+02  0.61003106627E+02  0.00000000000E+00 0.  1.
         25    2    1    2    0    0 -0.89910170293E+02 -0.65250372311E+02  0.11210330103E+03  0.20138111949E+03  0.12508299395E+03 0.  0.
         23    2    1    2    0    0  0.89910170293E+02  0.65250372311E+02  0.30412441621E+03  0.33685281101E+03  0.92933879399E+02 0.  0.
          5    1    3    3  502    0  0.26315641779E+02 -0.38321742798E+02  0.20847525046E+02  0.51119083265E+02  0.41800000000E+01 0. -1.
         -5    1    3    3    0  502 -0.11622581207E+03 -0.26928629513E+02  0.91255775984E+02  0.15026203622E+03  0.41800000000E+01 0. -1.
        -11    1    4    4    0    0  0.21054942932E+02 -0.63872443873E+01  0.62943390950E+01  0.22885065379E+02  0.00000000000E+00 0.  1.
         11    1    4    4    0    0  0.68855227361E+02  0.71637616699E+02  0.29783007712E+03  0.31396774563E+03  0.00000000000E+00 0. -1.
</event>
<event>
 8    1  0.6965441E-009  0.1056429E+03  0.7561462E-02  0.1268858E+00
          3   -1    0    0  501    0  0.00000000000E+00  0.00000000000E+00  0.10231300855E+03  0.10231300855E+03  0.00000000000E+00 0. -1.
         -3   -1    0    0    0  501 -0.00000000000E+00 -0.00000000000E+00 -0.19058127375E+03  0.19058127375E+03  0.00000000000E+00 0.  1.
         25    2    1    2    0    0 -0.58451951871E+02  0.64636159391E+00  0.19305974802E+02  0.13941700176E+03  0.12508929314E+03 0.  0.
         23    2    1    2    0    0  0.58451951871E+02 -0.64636159391E+00 -0.10757424000E+03  0.15347728054E+03  0.92552742099E+02 0.  0.
          5    1    3    3  502    0 -0.40737414532E+02  0.56211132017E+02 -0.15662616339E+02  0.71288275726E+02  0.41800000000E+01 0.  1.
         -5    1    3    3    0  502 -0.17714537339E+02 -0.55564770423E+02  0.34968591141E+02  0.68128726039E+02  0.41800000000E+01 0.  1.
        -11    1    4    4    0    0  0.11847040782E+02  0.26716749112E+02 -0.93026740939E+02  0.97509546138E+02  0.00000000000E+00 0.  1.
         11    1    4    4    0    0  0.46604911089E+02 -0.27363110706E+02 -0.14547499058E+02  0.55967734401E+02  0.00000000000E+00 0. -1.
</event>
<event>
 8    1  0.6965441E-009  0.1308165E+03  0.7561462E-02  0.1226249E+00
         -1   -1    0    0    0  501 -0.00000000000E+00  0.00000000000E+00  0.58880005757E+02  0.58880005757E+02  0.00000000000E+00 0.  1.
          1   -1    0    0  501    0  0.00000000000E+00 -0.00000000000E+00 -0.51396808639E+03  0.51396808639E+03  0.00000000000E+00 0. -1.
         25    2    1    2    0    0 -0.99672660338E+02  0.77859313173E+01 -0.39606579489E+03  0.42721322613E+03  0.12509103386E+03 0.  0.
         23    2    1    2    0    0  0.99672660338E+02 -0.77859313173E+01 -0.59022285738E+02  0.14563486601E+03  0.87923967378E+02 0.  0.
          5    1    3    3  502    0 -0.11315735323E+02  0.57058962368E+02 -0.16233244523E+03  0.17249077142E+03  0.41800000000E+01 0. -1.
         -5    1    3    3    0  502 -0.88356925016E+02 -0.49273031051E+02 -0.23373334967E+03  0.25472245471E+03  0.41800000000E+01 0. -1.
        -11    1    4    4    0    0  0.53085138285E+02  0.61301553448E+01  0.16400758955E+02  0.55898082307E+02  0.00000000000E+00 0.  1.
         11    1    4    4    0    0  0.46587522054E+02 -0.13916086662E+02 -0.75423044694E+02  0.89736783706E+02  0.00000000000E+00 0. -1.
</event>
<event>
 8    1  0.6965441E-009  0.8469580E+02  0.7561462E-02  0.1316230E+00
          2   -1    0    0  501    0  0.00000000000E+00  0.00000000000E+00  0.13124947692E+03  0.13124947692E+03  0.00000000000E+00 0. -1.
         -2   -1    0    0    0  501 -0.00000000000E+00 -0.00000000000E+00 -0.11533429747E+03  0.11533429747E+03  0.00000000000E+00 0.  1.
         25    2    1    2    0    0  0.49758312614E+02 -0.20407698058E+02  0.27736463110E+02  0.13896873614E+03  0.12510249568E+03 0.  0.
         23    2    1    2    0    0 -0.49758312614E+02  0.20407698058E+02 -0.11821283661E+02  0.10761503825E+03  0.92460207098E+02 0.  0.
          5    1    3    3  502    0 -0.74354730916E+01  0.23732468592E+02  0.55891684285E+02  0.61317771468E+02  0.41800000000E+01 0.  1.
         -5    1    3    3    0  502  0.57193785705E+02 -0.44140166651E+02 -0.28155221175E+02  0.77650964673E+02  0.41800000000E+01 0.  1.
        -11    1    4    4    0    0  0.84834373750E+01  0.91657211411E+01 -0.40029501711E+02  0.41932566830E+02  0.00000000000E+00 0.  1.
         11    1    4    4    0    0 -0.58241749989E+02  0.11241976917E+02  0.28208218050E+02  0.65682471423E+02  0.00000000000E+00 0. -1.
</event>
<event>
 8    1  0.6965441E-009  0.1063403E+03  0.7561462E-02  0.1267501E+00
         -2   -1    0    0    0  501 -0.00000000000E+00  0.00000000000E+00  0.85820423309E+02  0.85820423309E+02  0.00000000000E+00 0.  1.
          2   -1    0    0  501    0  0.00000000000E+00 -0.00000000000E+00 -0.21395758026E+03  0.21395758026E+03  0.00000000000E+00 0. -1.
         25    2    1    2    0    0 -0.70020488506E+02  0.38382542423E+01 -0.26525693885E+02  0.14586030604E+03  0.12511600791E+03 0.  0.
         23    2    1    2    0    0  0.70020488506E+02 -0.38382542423E+01 -0.10161146306E+03  0.15391769753E+03  0.91913911793E+02 0.  0.
          5    1    3    3  502    0 -0.98442120187E+02 -0.25182450486E+02 -0.11487695780E+02  0.10234474287E+03  0.41800000000E+01 0. -1.
         -5    1    3    3    0  502  0.28421631681E+02  0.29020704728E+02 -0.15037998105E+02  0.43515563162E+02  0.41800000000E+01 0. -1.
        -11    1    4    4    0    0  0.25085803131E+02 -0.22257974961E+01 -0.10580310752E+03  0.10875913412E+03  0.00000000000E+00 0. -1.
         11    1    4    4    0    0  0.44934685375E+02 -0.16124567461E+01  0.41916444539E+01  0.45158563416E+02  0.00000000000E+00 0.  1.
</event>
<event>
 8    1  0.6965441E-009  0.1355698E+03  0.7561462E-02  0.1219418E+00
         -2   -1    0    0    0  501 -0.00000000000E+00  0.00000000000E+00  0.52600709321E+02  0.52600709321E+02  0.00000000000E+00 0.  1.
          2   -1    0    0  501    0  0.00000000000E+00 -0.00000000000E+00 -0.48754657696E+03  0.48754657696E+03  0.00000000000E+00 0. -1.
         25    2    1    2    0    0  0.10876336423E+03  0.27228331318E+02 -0.16990054331E+03  0.23892355484E+03  0.12508964392E+03 0.  0.
         23    2    1    2    0    0 -0.10876336423E+03 -0.27228331318E+02 -0.26504532433E+03  0.30122373144E+03  0.88971124581E+02 0.  0.
          5    1    3    3  502    0  0.59699108310E+02  0.63069985675E+02 -0.40516056776E+02  0.95920956431E+02  0.41800000000E+01 0.  1.
         -5    1    3    3    0  502  0.49064255920E+02 -0.35841654357E+02 -0.12938448653E+03  0.14300259841E+03  0.41800000000E+01 0.  1.
        -11    1    4    4    0    0 -0.86009537902E+02  0.22660235736E+01 -0.99508964333E+02  0.13154774592E+03  0.00000000000E+00 0.  1.
         11    1    4    4    0    0 -0.22753826329E+02 -0.29494354892E+02 -0.16553635999E+03  0.16967598552E+03  0.00000000000E+00 0. -1.
</event>
<event>
 8    1  0.6965441E-009  0.1763955E+03  0.7561462E-02  0.1171338E+00
         -1   -1    0    0    0  501 -0.00000000000E+00  0.00000000000E+00  0.67839853983E+02  0.67839853983E+02  0.00000000000E+00 0.  1.
          1   -1    0    0  501    0  0.00000000000E+00 -0.00000000000E+00 -0.55516547683E+03  0.55516547683E+03  0.00000000000E+00 0. -1.
         25    2    1    2    0    0 -0.11064654930E+03 -0.11437607505E+03 -0.28919578884E+03  0.35299783101E+03  0.12509484001E+03 0.  0.
         23    2    1    2    0    0  0.11064654930E+03  0.11437607505E+03 -0.19812983400E+03  0.27000749980E+03  0.91236360144E+02 0.  0.
          5    1    3    3  502    0 -0.41311995741E+02 -0.24196181973E+01 -0.78466391702E+01  0.42327032622E+02  0.41800000000E+01 0. -1.
         -5    1    3    3    0  502 -0.69334553557E+02 -0.11195645685E+03 -0.28134914967E+03  0.31067079838E+03  0.41800000000E+01 0. -1.
        -11    1    4    4    0    0  0.12246886134E+03  0.11444819950E+03 -0.19615865995E+03  0.25802176699E+03  0.00000000000E+00 0.  1.
         11    1    4    4    0    0 -0.11822312041E+02 -0.72124451584E-01 -0.19711740537E+01  0.11985732814E+02  0.00000000000E+00 0. -1.
</event>
<event>
 8    1  0.6965441E-009  0.1679740E+03  0.7561462E-02  0.1179977E+00
         -4   -1    0    0    0  501 -0.00000000000E+00  0.00000000000E+00  0.45036724229E+02  0.45036724229E+02  0.00000000000E+00 0.  1.
          4   -1    0    0  501    0  0.00000000000E+00 -0.00000000000E+00 -0.97209813041E+03  0.97209813041E+03  0.00000000000E+00 0. -1.
         25    2    1    2    0    0  0.14608538083E+03 -0.39725863578E+02 -0.26272829336E+03  0.32801454371E+03  0.12509317337E+03 0.  0.
         23    2    1    2    0    0 -0.14608538083E+03  0.39725863578E+02 -0.66433311283E+03  0.68912031093E+03  0.10309818336E+03 0.  0.
          5    1    3    3  502    0  0.11791616436E+03 -0.41902392909E+02 -0.93178544110E+02  0.15607608987E+03  0.41800000000E+01 0.  1.
         -5    1    3    3    0  502  0.28169216477E+02  0.21765293307E+01 -0.16954974925E+03  0.17193845384E+03  0.41800000000E+01 0.  1.
        -11    1    4    4    0    0 -0.10191302402E+03 -0.23941376844E+02 -0.34594291137E+03  0.36143595825E+03  0.00000000000E+00 0. -1.
         11    1    4    4    0    0 -0.44172356816E+02  0.63667240422E+02 -0.31839020145E+03  0.32768435268E+03  0.00000000000E+00 0.  1.
</event>
<event>
 8    1  0.6965441E-009  0.8872244E+02  0.7561462E-02  0.1305975E+00
         -2   -1    0    0    0  501 -0.00000000000E+00  0.00000000000E+00  0.12043336264E+03  0.12043336264E+03  0.00000000000E+00 0.  1.
          2   -1    0    0  501    0  0.00000000000E+00 -0.00000000000E+00 -0.10204284397E+03  0.10204284397E+03  0.00000000000E+00 0. -1.
         25    2    1    2    0    0 -0.28013890360E+02  0.29427945275E+01  0.16278986937E+02  0.12925219184E+03  0.12509070943E+03 0.  0.
         23    2    1    2    0    0  0.28013890360E+02 -0.29427945275E+01  0.21115317334E+01  0.93224014772E+02  0.88841545862E+02 0.  0.
          5    1    3    3  502    0 -0.52514226786E+02  0.23864756414E+02 -0.35693137609E+02  0.67961335228E+02  0.41800000000E+01 0.  1.
         -5    1    3    3    0  502  0.24500336426E+02 -0.20921961886E+02  0.51972124546E+02  0.61290856610E+02  0.41800000000E+01 0.  1.
        -11    1    4    4    0    0  0.40490645135E+02 -0.34496008870E+02  0.17458054538E+02  0.55984378532E+02  0.00000000000E+00 0.  1.
         11    1    4    4    0    0 -0.12476754775E+02  0.31553214342E+02 -0.15346522804E+02  0.37239636239E+02  0.00000000000E+00 0. -1.
</event>
<event>
 8    1  0.6965441E-009  0.6555380E+02  0.7561462E-02  0.1375900E+00
         -1   -1    0    0    0  501 -0.00000000000E+00  0.00000000000E+00  0.43440066091E+02  0.43440066091E+02  0.00000000000E+00 0.  1.
          1   -1    0    0  501    0  0.00000000000E+00 -0.00000000000E+00 -0.29673911607E+03  0.29673911607E+03  0.00000000000E+00 0. -1.
         25    2    1    2    0    0 -0.16310848234E+02  0.16768797921E+02 -0.18054577223E+03  0.22088498291E+03  0.12508462516E+03 0.  0.
         23    2    1    2    0    0  0.16310848234E+02 -0.16768797921E+02 -0.72753277749E+02  0.11929419925E+03  0.91601474869E+02 0.  0.
          5    1    3    3  502    0  0.40123481665E+01  0.25958701312E+02  0.10427281900E+02  0.28568404216E+02  0.41800000000E+01 0.  1.
         -5    1    3    3    0  502 -0.20323196400E+02 -0.91899033909E+01 -0.19097305413E+03  0.19231657870E+03  0.41800000000E+01 0.  1.
        -11    1    4    4    0    0  0.48194932915E+02 -0.10341002641E+02 -0.12546687075E+02  0.50863614213E+02  0.00000000000E+00 0.  1.
         11    1    4    4    0    0 -0.31884084681E+02 -0.64277952800E+01 -0.60206590674E+02  0.68430585039E+02  0.00000000000E+00 0. -1.
</event>
<event>
 8    1  0.6965441E-009  0.3321201E+03  0.7561462E-02  0.1070203E+00
          1   -1    0    0  501    0  0.00000000000E+00  0.00000000000E+00  0.42347205194E+03  0.42347205194E+03  0.00000000000E+00 0. -1.
         -1   -1    0    0    0  501 -0.00000000000E+00 -0.00000000000E+00 -0.40470086526E+03  0.40470086526E+03  0.00000000000E+00 0.  1.
         25    2    1    2    0    0  0.31620565466E+03  0.36267905711E+02 -0.23157825602E+03  0.41301060530E+03  0.12509154409E+03 0.  0.
         23    2    1    2    0    0 -0.31620565466E+03 -0.36267905711E+02  0.25034944270E+03  0.41516231191E+03  0.91561589878E+02 0.  0.
          5    1    3    3  502    0  0.25203062804E+03 -0.24527029148E+02 -0.16498118619E+03  0.30225366305E+03  0.41800000000E+01 0. -1.
         -5    1    3    3    0  502  0.64175026617E+02  0.60794934860E+02 -0.66597069834E+02  0.11075694225E+03  0.41800000000E+01 0. -1.
        -11    1    4    4    0    0 -0.18055734616E+03 -0.46511215196E+02  0.97011639384E+02  0.21017970066E+03  0.00000000000E+00 0.  1.
         11    1    4    4    0    0 -0.13564830850E+03  0.10243309485E+02  0.15333780332E+03  0.20498261125E+03  0.00000000000E+00 0. -1.
</event>
<event>
 8    1  0.6965441E-009  0.8960473E+02  0.7561462E-02  0.1303812E+00
         -3   -1    0    0    0  501 -0.00000000000E+00  0.00000000000E+00  0.73049133462E+02  0.73049133462E+02  0.00000000000E+00 0.  1.
          3   -1    0    0  501    0  0.00000000000E+00 -0.00000000000E+00 -0.17437444577E+03  0.17437444577E+03  0.00000000000E+00 0. -1.
         25    2    1    2    0    0  0.28365397532E+02 -0.12359485250E+02 -0.58712508914E+02  0.14160517119E+03  0.12509002020E+03 0.  0.
         23    2    1    2    0    0 -0.28365397532E+02  0.12359485250E+02 -0.42612803396E+02  0.10581840804E+03  0.91784158841E+02 0.  0.
          5    1    3    3  502    0 -0.22543095069E+01  0.32190796063E+02  0.25573409339E+02  0.41385999175E+02  0.41800000000E+01 0. -1.
         -5    1    3    3    0  502  0.30619707039E+02 -0.44550281313E+02 -0.84285918253E+02  0.10021917202E+03  0.41800000000E+01 0. -1.
        -11    1    4    4    0    0  0.20663536791E+02  0.33257159974E+02 -0.33948336167E+02  0.51821906282E+02  0.00000000000E+00 0. -1.
         11    1    4    4    0    0 -0.49028934323E+02 -0.20897674724E+02 -0.86644672285E+01  0.53996501758E+02  0.00000000000E+00 0.  1.
</event>
<event>
 8    1  0.6965441E-009  0.9981375E+02  0.7561462E-02  0.1280688E+00
         -1   -1    0    0    0  501 -0.00000000000E+00  0.00000000000E+00  0.17862065886E+02  0.17862065886E+02  0.00000000000E+00 0.  1.
          1   -1    0    0  501    0  0.00000000000E+00 -0.00000000000E+00 -0.80400626747E+03  0.80400626747E+03  0.00000000000E+00 0. -1.
         25    2    1    2    0    0  0.23893101829E+01  0.32158767151E+02 -0.60328984565E+03  0.61696519613E+03  0.12509004860E+03 0.  0.
         23    2    1    2    0    0 -0.23893101829E+01 -0.32158767151E+02 -0.18285435593E+03  0.20490313723E+03  0.86658439027E+02 0.  0.
          5    1    3    3  502    0  0.22986064194E+02 -0.40213979913E+02 -0.13836979035E+03  0.14597669200E+03  0.41800000000E+01 0. -1.
         -5    1    3    3    0  502 -0.20596754011E+02  0.72372747065E+02 -0.46492005530E+03  0.47098850412E+03  0.41800000000E+01 0. -1.
        -11    1    4    4    0    0 -0.35460101980E+02 -0.68561691276E+01 -0.31494595847E+02  0.47920094482E+02  0.00000000000E+00 0.  1.
         11    1    4    4    0    0  0.33070791797E+02 -0.25302598024E+02 -0.15135976008E+03  0.15698304275E+03  0.00000000000E+00 0. -1.
</event>
<event>
 8    1  0.6965441E-009  0.1130391E+03  0.7561462E-02  0.1255043E+00
         -1   -1    0    0    0  501 -0.00000000000E+00  0.00000000000E+00  0.67798393756E+02  0.67798393756E+02  0.00000000000E+00 0.  1.
          1   -1    0    0  501    0  0.00000000000E+00 -0.00000000000E+00 -0.38580083241E+03  0.38580083241E+03  0.00000000000E+00 0. -1.
         25    2    1    2    0    0  0.69831187719E+02  0.11208566694E+02 -0.30511146589E+03  0.33725755550E+03  0.12509046876E+03 0.  0.
         23    2    1    2    0    0 -0.69831187719E+02 -0.11208566694E+02 -0.12890972755E+02  0.11634167066E+03  0.91472293119E+02 0.  0.
          5    1    3    3  502    0  0.14776712265E+02  0.56793379649E+02 -0.21074503841E+03  0.21880306856E+03  0.41800000000E+01 0.  1.
         -5    1    3    3    0  502  0.55054475454E+02 -0.45584812955E+02 -0.94366427487E+02  0.11845448694E+03  0.41800000000E+01 0.  1.
        -11    1    4    4    0    0 -0.28899873180E+02  0.27075152927E+02 -0.38041012181E+02  0.54912523012E+02  0.00000000000E+00 0. -1.
         11    1    4    4    0    0 -0.40931314539E+02 -0.38283719621E+02  0.25150039426E+02  0.61429147650E+02  0.00000000000E+00 0.  1.
</event>
<event>
 8    1  0.6965441E-009  0.1167353E+03  0.7561462E-02  0.1248582E+00
         -1   -1    0    0    0  501 -0.00000000000E+00  0.00000000000E+00  0.15797748010E+02  0.15797748010E+02  0.00000000000E+00 0.  1.
          1   -1    0    0  501    0  0.00000000000E+00 -0.00000000000E+00 -0.92954437648E+03  0.92954437648E+03  0.00000000000E+00 0. -1.
         25    2    1    2    0    0 -0.38983246015E+02  0.24600804393E+02 -0.61424175804E+03  0.62853965012E+03  0.12507702188E+03 0.  0.
         23    2    1    2    0    0  0.38983246015E+02 -0.24600804393E+02 -0.29950487043E+03  0.31680247438E+03  0.92389108187E+02 0.  0.
          5    1    3    3  502    0 -0.33856606129E+02 -0.47534033195E+02 -0.33408812615E+03  0.33917267361E+03  0.41800000000E+01 0.  1.
         -5    1    3    3    0  502 -0.51266398860E+01  0.72134837588E+02 -0.28015363189E+03  0.28936697651E+03  0.41800000000E+01 0.  1.
        -11    1    4    4    0    0  0.63793099208E+02  0.48967441100E+01 -0.16821674152E+03  0.17997335841E+03  0.00000000000E+00 0.  1.
         11    1    4    4    0    0 -0.24809853192E+02 -0.29497548503E+02 -0.13128812891E+03  0.13682911597E+03  0.00000000000E+00 0. -1.
</event>
<event>
 8    1  0.6965441E-009  0.1027570E+03  0.7561462E-02  0.1274603E+00
          2   -1    0    0  501    0  0.00000000000E+00  0.00000000000E+00  0.22662151390E+03  0.22662151390E+03  0.00000000000E+00 0. -1.
         -2   -1    0    0    0  501 -0.00000000000E+00 -0.00000000000E+00 -0.88350513343E+02  0.88350513343E+02  0.00000000000E+00 0.  1.
         25    2    1    2    0    0 -0.46287439888E+02 -0.60552191203E+02  0.12848485882E+03  0.19484118435E+03  0.12508250566E+03 0.  0.
         23    2    1    2    0    0  0.46287439888E+02  0.60552191203E+02  0.97861417366E+01  0.12013084289E+03  0.92339351808E+02 0.  0.
          5    1    3    3  502    0 -0.46603404833E+02 -0.69030340086E+02  0.19756358568E+02  0.85702107899E+02  0.41800000000E+01 0. -1.
         -5    1    3    3    0  502  0.31596494469E+00  0.84781488837E+01  0.10872850025E+03  0.10913907645E+03  0.41800000000E+01 0. -1.
        -11    1    4    4    0    0 -0.20420756952E+02  0.36361635500E+02 -0.15949210385E+02  0.44649223539E+02  0.00000000000E+00 0.  1.
         11    1    4    4    0    0  0.66708196841E+02  0.24190555703E+02  0.25735352121E+02  0.75481619351E+02  0.00000000000E+00 0. -1.
</event>
<event>
 8    1  0.6965441E-009  0.1001792E+03  0.7561462E-02  0.1279920E+00
          2   -1    0    0  501    0  0.00000000000E+00  0.00000000000E+00  0.35058044110E+03  0.35058044110E+03  0.00000000000E+00 0. -1.
         -2   -1    0    0    0  501 -0.00000000000E+00 -0.00000000000E+00 -0.34932987075E+02  0.34932987075E+02  0.00000000000E+00 0.  1.
         25    2    1    2    0    0  0.16844315675E+02 -0.17306165843E+01  0.15768167232E+03  0.20198565665E+03  0.12509184506E+03 0.  0.
         23    2    1    2    0    0 -0.16844315675E+02  0.17306165843E+01  0.15796578170E+03  0.18352777153E+03  0.91883234206E+02 0.  0.
          5    1    3    3  502    0 -0.19103463550E+02 -0.54761406725E+02  0.99999575868E+02  0.11567688429E+03  0.41800000000E+01 0. -1.
         -5    1    3    3    0  502  0.35947779225E+02  0.53030790141E+02  0.57682096457E+02  0.86308772357E+02  0.41800000000E+01 0. -1.
        -11    1    4    4    0    0 -0.33227413877E+02 -0.28400054544E+02  0.13587402568E+03  0.14273182892E+03  0.00000000000E+00 0. -1.
         11    1    4    4    0    0  0.16383098201E+02  0.30130671128E+02  0.22091756023E+02  0.40795942611E+02  0.00000000000E+00 0.  1.
</event>
<event>
 8    1  0.6965441E-009  0.1003916E+03  0.7561462E-02  0.1279475E+00
         -2   -1    0    0    0  501 -0.00000000000E+00  0.00000000000E+00  0.45519638835E+02  0.45519638835E+02  0.00000000000E+00 0.  1.
          2   -1    0    0  501    0  0.00000000000E+00 -0.00000000000E+00 -0.29095122960E+03  0.29095122960E+03  0.00000000000E+00 0. -1.
         25    2    1    2    0    0 -0.29413449058E+02 -0.14363261159E+01 -0.10090480750E+03  0.16338879546E+03  0.12508758647E+03 0.  0.
         23    2    1    2    0    0  0.29413449058E+02  0.14363261159E+01 -0.14452678327E+03  0.17308207297E+03  0.90565991882E+02 0.  0.
          5    1    3    3  502    0  0.31841869817E+02  0.39787330209E+02 -0.60162664746E+02  0.78955398473E+02  0.41800000000E+01 0. -1.
         -5    1    3    3    0  502 -0.61255318875E+02 -0.41223656325E+02 -0.40742142756E+02  0.84433396992E+02  0.41800000000E+01 0. -1.
        -11    1    4    4    0    0  0.41895662690E+02  0.25175468548E+02 -0.34484266482E+02  0.59818186229E+02  0.00000000000E+00 0.  1.
         11    1    4    4    0    0 -0.12482213632E+02 -0.23739142432E+02 -0.11004251678E+03  0.11326388675E+03  0.00000000000E+00 0. -1.
</event>
<event>
 8    1  0.6965441E-009  0.2673140E+03  0.7561462E-02  0.1102827E+00
          1   -1    0    0  501    0  0.00000000000E+00  0.00000000000E+00  0.47607293950E+03  0.47607293950E+03  0.00000000000E+00 0. -1.
         -1   -1    0    0    0  501 -0.00000000000E+00 -0.00000000000E+00 -0.18131753756E+03  0.18131753756E+03  0.00000000000E+00 0.  1.
         25    2    1    2    0    0  0.66734553079E+02  0.23557260454E+03  0.16036550353E+02  0.27541429379E+03  0.12509160522E+03 0.  0.
         23    2    1    2    0    0 -0.66734553079E+02 -0.23557260454E+03  0.27871885159E+03  0.38197618326E+03  0.90959627127E+02 0.  0.
          5    1    3    3  502    0 -0.33109319298E+02  0.25701229140E+02  0.76759862530E+01  0.42815573903E+02  0.41800000000E+01 0. -1.
         -5    1    3    3    0  502  0.99843872378E+02  0.20987137540E+03  0.83605641001E+01  0.23259871989E+03  0.41800000000E+01 0. -1.
        -11    1    4    4    0    0 -0.58814675089E+02 -0.59000348881E+02  0.73111910634E+02  0.11084023931E+03  0.00000000000E+00 0. -1.
         11    1    4    4    0    0 -0.79198779905E+01 -0.17657225566E+03  0.20560694096E+03  0.27113594395E+03  0.00000000000E+00 0.  1.
</event>
<event>
 8    1  0.6965441E-009  0.1696580E+03  0.7561462E-02  0.1178205E+00
         -2   -1    0    0    0  501 -0.00000000000E+00  0.00000000000E+00  0.17435245463E+03  0.17435245463E+03  0.00000000000E+00 0. -1.
          2   -1    0    0  501    0  0.00000000000E+00 -0.00000000000E+00 -0.18925485749E+03  0.18925485749E+03  0.00000000000E+00 0.  1.
         25    2    1    2    0    0 -0.56450062207E+02 -0.12746084793E+03 -0.51509294177E+02  0.19425030465E+03  0.12508835354E+03 0.  0.
         23    2    1    2    0    0  0.56450062207E+02  0.12746084793E+03  0.36606891315E+02  0.16935700748E+03  0.88931739058E+02 0.  0.
          5    1    3    3  502    0 -0.82145435510E+02 -0.12346283048E+03 -0.67979886198E+02  0.16318603008E+03  0.41800000000E+01 0. -1.
         -5    1    3    3    0  502  0.25695373304E+02 -0.39980174451E+01  0.16470592021E+02  0.31064274565E+02  0.41800000000E+01 0. -1.
        -11    1    4    4    0    0  0.75716878068E+02  0.12364150194E+03  0.37293500999E+02  0.14970327933E+03  0.00000000000E+00 0. -1.
         11    1    4    4    0    0 -0.19266815861E+02  0.38193459927E+01 -0.68660968333E+00  0.19653728147E+02  0.00000000000E+00 0.  1.
</event>
<event>
 8    1  0.6965441E-009  0.1869138E+03  0.7561462E-02  0.1161275E+00
         -2   -1    0    0    0  501 -0.00000000000E+00  0.00000000000E+00  0.45053103043E+02  0.45053103043E+02  0.00000000000E+00 0.  1.
          2   -1    0    0  501    0  0.00000000000E+00 -0.00000000000E+00 -0.88329051508E+03  0.88329051508E+03  0.00000000000E+00 0. -1.
         25    2    1    2    0    0  0.81269815856E+02 -0.14535216275E+03 -0.46221711579E+03  0.50697511616E+03  0.12508825721E+03 0.  0.
         23    2    1    2    0    0 -0.81269815856E+02  0.14535216275E+03 -0.37602029625E+03  0.42136850196E+03  0.91804776931E+02 0.  0.
          5    1    3    3  502    0  0.98428328920E+02 -0.15686404686E+03 -0.43289980338E+03  0.47086534943E+03  0.41800000000E+01 0.  1.
         -5    1    3    3    0  502 -0.17158513064E+02  0.11511884107E+02 -0.29317312410E+02  0.36109766729E+02  0.41800000000E+01 0.  1.
        -11    1    4    4    0    0 -0.30956320728E+02  0.73907827931E+02 -0.82050523038E+02  0.11468630761E+03  0.00000000000E+00 0.  1.
         11    1    4    4    0    0 -0.50313495127E+02  0.71444334823E+02 -0.29396977321E+03  0.30668219435E+03  0.00000000000E+00 0. -1.
</event>
<event>
 8    1  0.6965441E-009  0.1020459E+03  0.7561462E-02  0.1276052E+00
         -4   -1    0    0    0  501 -0.00000000000E+00  0.00000000000E+00  0.27797414800E+03  0.27797414800E+03  0.00000000000E+00 0.  1.
          4   -1    0    0  501    0  0.00000000000E+00 -0.00000000000E+00 -0.45464641562E+02  0.45464641562E+02  0.00000000000E+00 0. -1.
         25    2    1    2    0    0  0.26731060751E+02  0.89769487038E+01  0.17300653752E+03  0.21534549083E+03  0.12508910096E+03 0.  0.
         23    2    1    2    0    0 -0.26731060751E+02 -0.89769487038E+01  0.59502968921E+02  0.10809329874E+03  0.85722941530E+02 0.  0.
          5    1    3    3  502    0  0.88457789356E+01 -0.52439974620E+02  0.36796983390E+02  0.64805008524E+02  0.41800000000E+01 0. -1.
         -5    1    3    3    0  502  0.17885281815E+02  0.61416923324E+02  0.13620955413E+03  0.15054048230E+03  0.41800000000E+01 0. -1.
        -11    1    4    4    0    0  0.25484577318E+02  0.14578110862E+02  0.35282949844E+02  0.45900670443E+02  0.00000000000E+00 0.  1.
         11    1    4    4    0    0 -0.52215638069E+02 -0.23555059566E+02  0.24220019076E+02  0.62192628294E+02  0.00000000000E+00 0. -1.
</event>
<event>
 8    1  0.6965441E-009  0.8973925E+02  0.7561462E-02  0.1303484E+00
          2   -1    0    0  501    0  0.00000000000E+00  0.00000000000E+00  0.86965451054E+03  0.86965451054E+03  0.00000000000E+00 0. -1.
         -2   -1    0    0    0  501 -0.00000000000E+00 -0.00000000000E+00 -0.20170195474E+02  0.20170195474E+02  0.00000000000E+00 0.  1.
         25    2    1    2    0    0  0.22326919957E+02 -0.56368011688E+02  0.62164196920E+03  0.63699457885E+03  0.12509001370E+03 0.  0.
         23    2    1    2    0    0 -0.22326919957E+02  0.56368011688E+02  0.22784234587E+03  0.25283012716E+03  0.91296738887E+02 0.  0.
          5    1    3    3  502    0 -0.16791590163E+02 -0.30190610910E+02  0.38321893647E+02  0.51763601305E+02  0.41800000000E+01 0. -1.
         -5    1    3    3    0  502  0.39118510120E+02 -0.26177400777E+02  0.58332007555E+03  0.58523097755E+03  0.41800000000E+01 0. -1.
        -11    1    4    4    0    0 -0.49389396814E+02  0.23053797488E+02  0.18219528837E+03  0.19017337669E+03  0.00000000000E+00 0. -1.
         11    1    4    4    0    0  0.27062476857E+02  0.33314214200E+02  0.45647057501E+02  0.62656750474E+02  0.00000000000E+00 0.  1.
</event>
<event>
 8    1  0.6965441E-009  0.8990925E+02  0.7561462E-02  0.1303072E+00
          3   -1    0    0  501    0  0.00000000000E+00  0.00000000000E+00  0.20362635976E+03  0.20362635976E+03  0.00000000000E+00 0. -1.
         -3   -1    0    0    0  501 -0.00000000000E+00 -0.00000000000E+00 -0.69864095564E+02  0.69864095564E+02  0.00000000000E+00 0.  1.
         25    2    1    2    0    0 -0.24279051423E+02  0.61534722856E+00  0.12916654034E+03  0.18144365523E+03  0.12509178186E+03 0.  0.
         23    2    1    2    0    0  0.24279051423E+02 -0.61534722856E+00  0.45957238475E+01  0.92046800091E+02  0.88665899528E+02 0.  0.
          5    1    3    3  502    0 -0.32084946635E+02  0.38302101560E+02  0.38538258803E+01  0.50287365793E+02  0.41800000000E+01 0.  1.
         -5    1    3    3    0  502  0.78058952121E+01 -0.37686754332E+02  0.12531271446E+03  0.13115628943E+03  0.41800000000E+01 0.  1.
        -11    1    4    4    0    0 -0.27169882368E+02  0.21811356671E+02  0.82449706091E+01  0.35803873087E+02  0.00000000000E+00 0.  1.
         11    1    4    4    0    0  0.51448933791E+02 -0.22426703900E+02 -0.36492467616E+01  0.56242927004E+02  0.00000000000E+00 0. -1.
</event>
<event>
 8    1  0.6965441E-009  0.1367183E+03  0.7561462E-02  0.1217814E+00
          2   -1    0    0  501    0  0.00000000000E+00  0.00000000000E+00  0.23594843079E+03  0.23594843079E+03  0.00000000000E+00 0. -1.
         -2   -1    0    0    0  501 -0.00000000000E+00 -0.00000000000E+00 -0.10133943233E+03  0.10133943233E+03  0.00000000000E+00 0.  1.
         25    2    1    2    0    0  0.10533871041E+03  0.25523131259E+02  0.91398461968E+02  0.18907465482E+03  0.12509145497E+03 0.  0.
         23    2    1    2    0    0 -0.10533871041E+03 -0.25523131259E+02  0.43210536498E+02  0.14821320830E+03  0.91391085500E+02 0.  0.
          5    1    3    3  502    0  0.10571302845E+03  0.65627197603E+02  0.61388683973E+02  0.13881000097E+03  0.41800000000E+01 0. -1.
         -5    1    3    3    0  502 -0.37431804192E+00 -0.40104066344E+02  0.30009777995E+02  0.50264653850E+02  0.41800000000E+01 0. -1.
        -11    1    4    4    0    0 -0.75984489809E+02 -0.21640658568E+02  0.72016259992E+02  0.10690323895E+03  0.00000000000E+00 0. -1.
         11    1    4    4    0    0 -0.29354220603E+02 -0.38824726914E+01 -0.28805723495E+02  0.41309969347E+02  0.00000000000E+00 0.  1.
</event>
<event>
 8    1  0.6965441E-009  0.2715105E+03  0.7561462E-02  0.1100418E+00
          2   -1    0    0  501    0  0.00000000000E+00  0.00000000000E+00  0.39269721564E+04  0.39269721564E+04  0.00000000000E+00 0. -1.
         -2   -1    0    0    0  501 -0.00000000000E+00 -0.00000000000E+00 -0.23935661632E+02  0.23935661632E+02  0.00000000000E+00 0.  1.
         25    2    1    2    0    0  0.40486228705E+01  0.25189257315E+03  0.28678038816E+04  0.28815642580E+04  0.12508880691E+03 0.  0.
         23    2    1    2    0    0 -0.40486228705E+01 -0.25189257315E+03  0.10352326131E+04  0.10693435601E+04  0.91229525752E+02 0.  0.
          5    1    3    3  502    0 -0.36169856946E+02  0.16757936725E+02  0.29275200969E+03  0.29548316124E+03  0.41800000000E+01 0.  1.
         -5    1    3    3    0  502  0.40218479816E+02  0.23513463642E+03  0.25750518719E+04  0.25860810967E+04  0.41800000000E+01 0.  1.
        -11    1    4    4    0    0  0.37974762854E+02 -0.11014787437E+03  0.37136082133E+03  0.38920880831E+03  0.00000000000E+00 0.  1.
         11    1    4    4    0    0 -0.42023385725E+02 -0.14174469877E+03  0.66387179181E+03  0.68013475175E+03  0.00000000000E+00 0. -1.
</event>
<event>
 8    1  0.6965441E-009  0.1689249E+03  0.7561462E-02  0.1178974E+00
         -1   -1    0    0    0  501 -0.00000000000E+00  0.00000000000E+00  0.19557465124E+03  0.19557465124E+03  0.00000000000E+00 0.  1.
          1   -1    0    0  501    0  0.00000000000E+00 -0.00000000000E+00 -0.18631148584E+03  0.18631148584E+03  0.00000000000E+00 0. -1.
         25    2    1    2    0    0  0.13475904876E+03  0.48524818469E+02 -0.58058552978E+02  0.19882828956E+03  0.12508890408E+03 0.  0.
         23    2    1    2    0    0 -0.13475904876E+03 -0.48524818469E+02  0.67321718372E+02  0.18305784752E+03  0.91996209409E+02 0.  0.
          5    1    3    3  502    0  0.78776766894E+02  0.72255827855E+02 -0.80497927059E+02  0.13388081387E+03  0.41800000000E+01 0.  1.
         -5    1    3    3    0  502  0.55982281863E+02 -0.23731009386E+02  0.22439374081E+02  0.64947475687E+02  0.41800000000E+01 0.  1.
        -11    1    4    4    0    0 -0.14211490372E+03 -0.23756237022E+02  0.60938192333E+02  0.15644317800E+03  0.00000000000E+00 0.  1.
         11    1    4    4    0    0  0.73558549652E+01 -0.24768581447E+02  0.63835260388E+01  0.26614669524E+02  0.00000000000E+00 0. -1.
</event>
<event>
 8    1  0.6965441E-009  0.1074761E+03  0.7561462E-02  0.1265316E+00
         -1   -1    0    0    0  501 -0.00000000000E+00  0.00000000000E+00  0.26692465618E+02  0.26692465618E+02  0.00000000000E+00 0.  1.
          1   -1    0    0  501    0  0.00000000000E+00 -0.00000000000E+00 -0.83027735478E+03  0.83027735478E+03  0.00000000000E+00 0. -1.
         25    2    1    2    0    0 -0.69328955915E+02 -0.83664785365E+01 -0.64910548919E+03  0.66472630292E+03  0.12508644852E+03 0.  0.
         23    2    1    2    0    0  0.69328955915E+02  0.83664785365E+01 -0.15447939998E+03  0.19224351749E+03  0.90648678460E+02 0.  0.
          5    1    3    3  502    0  0.36664124783E+02 -0.31865848556E+01 -0.17251095755E+03  0.17644238505E+03  0.41800000000E+01 0.  1.
         -5    1    3    3    0  502 -0.10599308070E+03 -0.51798936809E+01 -0.47659453164E+03  0.48828391786E+03  0.41800000000E+01 0.  1.
        -11    1    4    4    0    0  0.49917919633E+02 -0.14924254111E+01 -0.16175495315E+03  0.16928877962E+03  0.00000000000E+00 0. -1.
         11    1    4    4    0    0  0.19411036282E+02  0.98589039476E+01  0.72755531776E+01  0.22954737869E+02  0.00000000000E+00 0.  1.
</event>
<event>
 8    1  0.6965441E-009  0.1088661E+03  0.7561462E-02  0.1262684E+00
         -1   -1    0    0    0  501 -0.00000000000E+00  0.00000000000E+00  0.56242664944E+02  0.56242664944E+02  0.00000000000E+00 0.  1.
          1   -1    0    0  501    0  0.00000000000E+00 -0.00000000000E+00 -0.41515598948E+03  0.41515598948E+03  0.00000000000E+00 0. -1.
         25    2    1    2    0    0  0.50281226425E+02  0.19229768588E+02 -0.33638054736E+03  0.36290165909E+03  0.12509099007E+03 0.  0.
         23    2    1    2    0    0 -0.50281226425E+02 -0.19229768588E+02 -0.22532777175E+02  0.10849699533E+03  0.91465218625E+02 0.  0.
          5    1    3    3  502    0  0.66498389254E+02 -0.26664154400E+02 -0.27628403018E+03  0.28545288690E+03  0.41800000000E+01 0.  1.
         -5    1    3    3    0  502 -0.16217162829E+02  0.45893922988E+02 -0.60096517175E+02  0.77448772192E+02  0.41800000000E+01 0.  1.
        -11    1    4    4    0    0 -0.45452922683E+02  0.25502839856E+02  0.98776856500E+01  0.53046505021E+02  0.00000000000E+00 0.  1.
         11    1    4    4    0    0 -0.48283037417E+01 -0.44732608444E+02 -0.32410462825E+02  0.55450490311E+02  0.00000000000E+00 0. -1.
</event>
<event>
 8    1  0.6965441E-009  0.1080828E+03  0.7561462E-02  0.1264162E+00
         -2   -1    0    0    0  501 -0.00000000000E+00  0.00000000000E+00  0.31017232312E+02  0.31017232312E+02  0.00000000000E+00 0.  1.
          2   -1    0    0  501    0  0.00000000000E+00 -0.00000000000E+00 -0.40357002014E+03  0.40357002014E+03  0.00000000000E+00 0. -1.
         25    2    1    2    0    0 -0.18761410966E+02 -0.68355119387E+01 -0.25261356273E+03  0.28259698003E+03  0.12509486911E+03 0.  0.
         23    2    1    2    0    0  0.18761410966E+02  0.68355119387E+01 -0.11993922510E+03  0.15199027243E+03  0.91197096617E+02 0.  0.
          5    1    3    3  502    0 -0.23654932739E+02 -0.63002766200E+02 -0.16593315792E+03  0.17910943495E+03  0.41800000000E+01 0. -1.
         -5    1    3    3    0  502  0.48935217725E+01  0.56167254262E+02 -0.86680404816E+02  0.10348754508E+03  0.41800000000E+01 0. -1.
        -11    1    4    4    0    0  0.54656071696E+02  0.11948639445E+02 -0.60819439788E+02  0.82638129298E+02  0.00000000000E+00 0.  1.
         11    1    4    4    0    0 -0.35894660730E+02 -0.51131275063E+01 -0.59119785308E+02  0.69352143130E+02  0.00000000000E+00 0. -1.
</event>
<event>
 8    1  0.6965441E-009  0.8725750E+02  0.7561462E-02  0.1309632E+00
         -1   -1    0    0    0  501 -0.00000000000E+00  0.00000000000E+00  0.34363504947E+02  0.34363504947E+02  0.00000000000E+00 0.  1.
          1   -1    0    0  501    0  0.00000000000E+00 -0.00000000000E+00 -0.47487652829E+03  0.47487652829E+03  0.00000000000E+00 0. -1.
         25    2    1    2    0    0 -0.67904973877E+02 -0.41786873252E+01 -0.23426471986E+03  0.27414702493E+03  0.12509230752E+03 0.  0.
         23    2    1    2    0    0  0.67904973877E+02  0.41786873252E+01 -0.20624830348E+03  0.23509300831E+03  0.90010071445E+02 0.  0.
          5    1    3    3  502    0 -0.88042618795E+01  0.37832296258E+01  0.14737515465E+02  0.18069162009E+02  0.41800000000E+01 0. -1.
         -5    1    3    3    0  502 -0.59100711997E+02 -0.79619169510E+01 -0.24900223532E+03  0.25607786292E+03  0.41800000000E+01 0. -1.
        -11    1    4    4    0    0  0.25115127538E+02  0.40831717894E+02 -0.14078456488E+03  0.14872219917E+03  0.00000000000E+00 0. -1.
         11    1    4    4    0    0  0.42789846339E+02 -0.36653030569E+02 -0.65463738602E+02  0.86370809139E+02  0.00000000000E+00 0.  1.
</event>
<event>
 8    1  0.6965441E-009  0.1505982E+03  0.7561462E-02  0.1199740E+00
         -1   -1    0    0    0  501 -0.00000000000E+00  0.00000000000E+00  0.24765226153E+03  0.24765226153E+03  0.00000000000E+00 0. -1.
          1   -1    0    0  501    0  0.00000000000E+00 -0.00000000000E+00 -0.13961919949E+03  0.13961919949E+03  0.00000000000E+00 0.  1.
         25    2    1    2    0    0 -0.11371612881E+03 -0.26185481155E+01 -0.45361681888E+02  0.17505459374E+03  0.12509282098E+03 0.  0.
         23    2    1    2    0    0  0.11371612881E+03  0.26185481155E+01  0.15339474393E+03  0.21221686728E+03  0.92562608780E+02 0.  0.
          5    1    3    3  502    0  0.16696072321E+02  0.25077522182E+02 -0.26501524747E+02  0.40341593470E+02  0.41800000000E+01 0. -1.
         -5    1    3    3    0  502 -0.13041220113E+03 -0.27696070298E+02 -0.18860157141E+02  0.13471300027E+03  0.41800000000E+01 0. -1.
        -11    1    4    4    0    0  0.12041440973E+02 -0.28602869755E+02  0.79581773736E+01  0.32038305917E+02  0.00000000000E+00 0.  1.
         11    1    4    4    0    0  0.10167468784E+03  0.31221417871E+02  0.14543656656E+03  0.18017856136E+03  0.00000000000E+00 0. -1.
</event>
<event>
 8    1  0.6965441E-009  0.1023403E+03  0.7561462E-02  0.1275450E+00
         -1   -1    0    0    0  501 -0.00000000000E+00  0.00000000000E+00  0.29691724097E+02  0.29691724097E+02  0.00000000000E+00 0.  1.
          1   -1    0    0  501    0  0.00000000000E+00 -0.00000000000E+00 -0.45109097610E+03  0.45109097610E+03  0.00000000000E+00 0. -1.
         25    2    1    2    0    0 -0.91347177175E+01  0.58191542773E+01 -0.31730625027E+03  0.34124621471E+03  0.12509363281E+03 0.  0.
         23    2    1    2    0    0  0.91347177175E+01 -0.58191542773E+01 -0.10409300174E+03  0.13953648549E+03  0.92291777249E+02 0.  0.
          5    1    3    3  502    0  0.38061803017E+02  0.39309557675E+02 -0.80430634390E+02  0.97367866988E+02  0.41800000000E+01 0. -1.
         -5    1    3    3    0  502 -0.47196520735E+02 -0.33490403397E+02 -0.23687561588E+03  0.24387834772E+03  0.41800000000E+01 0. -1.
        -11    1    4    4    0    0  0.45416058333E+02 -0.23816445966E+02 -0.68847950706E+02  0.85848015524E+02  0.00000000000E+00 0.  1.
         11    1    4    4    0    0 -0.36281340615E+02  0.17997291689E+02 -0.35245051029E+02  0.53688469963E+02  0.00000000000E+00 0. -1.
</event>
<event>
 8    1  0.6965441E-009  0.1430956E+03  0.7561462E-02  0.1209223E+00
          2   -1    0    0  501    0  0.00000000000E+00  0.00000000000E+00  0.59674178968E+03  0.59674178968E+03  0.00000000000E+00 0. -1.
         -2   -1    0    0    0  501 -0.00000000000E+00 -0.00000000000E+00 -0.57950934097E+02  0.57950934097E+02  0.00000000000E+00 0.  1.
         25    2    1    2    0    0 -0.10212537842E+03 -0.65365489797E+02  0.44247202003E+03  0.47553313234E+03  0.12509209116E+03 0.  0.
         23    2    1    2    0    0  0.10212537842E+03  0.65365489797E+02  0.96318835549E+02  0.17915959143E+03  0.90103279329E+02 0.  0.
          5    1    3    3  502    0 -0.90417758820E+02 -0.79724340149E+02  0.44017512730E+03  0.45640218735E+03  0.41800000000E+01 0.  1.
         -5    1    3    3    0  502 -0.11707619602E+02  0.14358850352E+02  0.22968927308E+01  0.19130944995E+02  0.41800000000E+01 0.  1.
        -11    1    4    4    0    0 -0.13878670349E+01  0.39974265971E+02  0.81142794576E+01  0.40813106301E+02  0.00000000000E+00 0.  1.
         11    1    4    4    0    0  0.10351324546E+03  0.25391223826E+02  0.88204556091E+02  0.13834648513E+03  0.00000000000E+00 0. -1.
</event>
<event>
 8    1  0.6965441E-009  0.3154502E+03  0.7561462E-02  0.1077763E+00
         -1   -1    0    0    0  501 -0.00000000000E+00  0.00000000000E+00  0.13521770852E+03  0.13521770852E+03  0.00000000000E+00 0.  1.
          1   -1    0    0  501    0  0.00000000000E+00 -0.00000000000E+00 -0.77095759462E+03  0.77095759462E+03  0.00000000000E+00 0. -1.
         25    2    1    2    0    0 -0.24695143437E+03  0.16678852056E+03 -0.40886700759E+03  0.52117502430E+03  0.12509098501E+03 0.  0.
         23    2    1    2    0    0  0.24695143437E+03 -0.16678852056E+03 -0.22687287851E+03  0.38500027884E+03  0.89165521247E+02 0.  0.
          5    1    3    3  502    0 -0.23165889823E+03  0.97561606241E+02 -0.33318571974E+03  0.41738987575E+03  0.41800000000E+01 0. -1.
         -5    1    3    3    0  502 -0.15292536135E+02  0.69226914323E+02 -0.75681287850E+02  0.10378514855E+03  0.41800000000E+01 0. -1.
        -11    1    4    4    0    0  0.46241471523E+02 -0.74237440059E+02 -0.42826072102E+02  0.97383487547E+02  0.00000000000E+00 0. -1.
         11    1    4    4    0    0  0.20070996284E+03 -0.92551080505E+02 -0.18404680641E+03  0.28761679130E+03  0.00000000000E+00 0.  1.
</event>
<event>
 8    1  0.6965441E-009  0.9341822E+02  0.7561462E-02  0.1294779E+00
         -2   -1    0    0    0  501 -0.00000000000E+00  0.00000000000E+00  0.67003152639E+02  0.67003152639E+02  0.00000000000E+00 0.  1.
          2   -1    0    0  501    0  0.00000000000E+00 -0.00000000000E+00 -0.30044859279E+03  0.30044859279E+03  0.00000000000E+00 0. -1.
         25    2    1    2    0    0  0.58105127533E+02 -0.45302630450E+02 -0.19988347567E+03  0.24704283918E+03  0.12509287099E+03 0.  0.
         23    2    1    2    0    0 -0.58105127533E+02  0.45302630450E+02 -0.33561964487E+02  0.12040890625E+03  0.89125557915E+02 0.  0.
          5    1    3    3  502    0  0.38455922881E+02 -0.23014427669E+01 -0.19558440909E+03  0.19938627868E+03  0.41800000000E+01 0. -1.
         -5    1    3    3    0  502  0.19649204652E+02 -0.43001187683E+02 -0.42990665734E+01  0.47656560504E+02  0.41800000000E+01 0. -1.
        -11    1    4    4    0    0 -0.55413204470E+02  0.17296905550E+00 -0.47619986567E+02  0.73063782195E+02  0.00000000000E+00 0. -1.
         11    1    4    4    0    0 -0.26919230637E+01  0.45129661395E+02  0.14058022080E+02  0.47345124059E+02  0.00000000000E+00 0.  1.
</event>
<event>
 7    1  0.6965441E-009  0.1013948E+03  0.7561462E-02  0.1277390E+00
          2   -1    0    0  501    0  0.00000000000E+00  0.00000000000E+00  0.22013341611E+03  0.22013341611E+03  0.00000000000E+00 0. -1.
         -2   -1    0    0    0  501 -0.00000000000E+00 -0.00000000000E+00 -0.63112043967E+02  0.63112043967E+02  0.00000000000E+00 0.  1.
         23    2    1    2    0    0  0.79924335383E+01  0.42195257507E+02  0.46740984289E+02  0.11099337242E+03  0.91052129897E+02 0.  0.
          5    1    1    2  502    0  0.33719959602E+02  0.24567778511E+02  0.72980394073E+01  0.42559901265E+02  0.41800000000E+01 0.  1.
         -5    1    1    2    0  502 -0.41712393141E+02 -0.66763036018E+02  0.10298234845E+03  0.12969218640E+03  0.41800000000E+01 0.  1.
        -11    1    3    3    0    0 -0.25449787582E+02 -0.31924989568E+01 -0.13080570840E+02  0.28792100845E+02  0.00000000000E+00 0.  1.
         11    1    3    3    0    0  0.33442221121E+02  0.45387756464E+02  0.59821555129E+02  0.82201271574E+02  0.00000000000E+00 0. -1.
</event>
<event>
 8    1  0.6965441E-009  0.1094247E+03  0.7561462E-02  0.1261639E+00
          2   -1    0    0  501    0  0.00000000000E+00  0.00000000000E+00  0.34436319473E+03  0.34436319473E+03  0.00000000000E+00 0. -1.
         -2   -1    0    0    0  501 -0.00000000000E+00 -0.00000000000E+00 -0.40156689321E+02  0.40156689321E+02  0.00000000000E+00 0.  1.
         25    2    1    2    0    0  0.88701402633E+01  0.26484930442E+02  0.23358760734E+03  0.26644470873E+03  0.12509788799E+03 0.  0.
         23    2    1    2    0    0 -0.88701402633E+01 -0.26484930442E+02  0.70618898072E+02  0.11807517532E+03  0.90413424522E+02 0.  0.
          5    1    3    3  502    0  0.50896572724E+02  0.53981355354E+02  0.16825221938E+03  0.18393131752E+03  0.41800000000E+01 0.  1.
         -5    1    3    3    0  502 -0.42026432461E+02 -0.27496424913E+02  0.65335387965E+02  0.82513391209E+02  0.41800000000E+01 0.  1.
        -11    1    4    4    0    0  0.26217703741E+02 -0.46767891623E+02  0.34251730282E+02  0.63622202913E+02  0.00000000000E+00 0.  1.
         11    1    4    4    0    0 -0.35087844004E+02  0.20282961181E+02  0.36367167790E+02  0.54452972409E+02  0.00000000000E+00 0. -1.
</event>
<event>
 8    1  0.6965441E-009  0.6632852E+02  0.7561462E-02  0.1373043E+00
          3   -1    0    0  501    0  0.00000000000E+00  0.00000000000E+00  0.10229184173E+03  0.10229184173E+03  0.00000000000E+00 0. -1.
         -3   -1    0    0    0  501 -0.00000000000E+00 -0.00000000000E+00 -0.14387826571E+03  0.14387826571E+03  0.00000000000E+00 0.  1.
         25    2    1    2    0    0 -0.44267450381E+02 -0.18428924526E+02 -0.47304658016E+02  0.14207264234E+03  0.12509065757E+03 0.  0.
         23    2    1    2    0    0  0.44267450381E+02  0.18428924526E+02  0.57182340361E+01  0.10409746509E+03  0.92219041506E+02 0.  0.
          5    1    3    3  502    0 -0.41992116620E+02 -0.61453855653E+01 -0.88814831329E+02  0.98522333945E+02  0.41800000000E+01 0.  1.
         -5    1    3    3    0  502 -0.22753337607E+01 -0.12283538961E+02  0.41510173313E+02  0.43550308399E+02  0.41800000000E+01 0.  1.
        -11    1    4    4    0    0  0.13278096564E+02  0.37955325237E+02 -0.32097800488E+02  0.51450785790E+02  0.00000000000E+00 0.  1.
         11    1    4    4    0    0  0.30989353816E+02 -0.19526400711E+02  0.37816034524E+02  0.52646679305E+02  0.00000000000E+00 0. -1.
</event>
<event>
 8    1  0.6965441E-009  0.1293638E+03  0.7561462E-02  0.1228403E+00
         -2   -1    0    0    0  501 -0.00000000000E+00  0.00000000000E+00  0.50170317324E+03  0.50170317324E+03  0.00000000000E+00 0.  1.
          2   -1    0    0  501    0  0.00000000000E+00 -0.00000000000E+00 -0.37231803193E+02  0.37231803193E+02  0.00000000000E+00 0. -1.
         25    2    1    2    0    0 -0.29099273521E+02 -0.93859482997E+02  0.30205733158E+03  0.34138364239E+03  0.12509112462E+03 0.  0.
         23    2    1    2    0    0  0.29099273521E+02  0.93859482997E+02  0.16241403846E+03  0.19755133404E+03  0.54697709499E+02 0.  0.
          5    1    3    3  502    0 -0.93930910350E+01  0.27693770639E+02  0.10413276988E+03  0.10824177223E+03  0.41800000000E+01 0.  1.
         -5    1    3    3    0  502 -0.19706182486E+02 -0.12155325364E+03  0.19792456170E+03  0.23314187016E+03  0.41800000000E+01 0.  1.
        -11    1    4    4    0    0 -0.46972949757E+01  0.51835279430E+02  0.11298823470E+03  0.12439976669E+03  0.00000000000E+00 0. -1.
         11    1    4    4    0    0  0.33796568497E+02  0.42024203567E+02  0.49425803763E+02  0.73151567346E+02  0.00000000000E+00 0.  1.
</event>
<event>
 8    1  0.6965441E-009  0.1365087E+03  0.7561462E-02  0.1218105E+00
         -3   -1    0    0    0  501 -0.00000000000E+00  0.00000000000E+00  0.60992499480E+02  0.60992499480E+02  0.00000000000E+00 0.  1.
          3   -1    0    0  501    0  0.00000000000E+00 -0.00000000000E+00 -0.36084733815E+03  0.36084733815E+03  0.00000000000E+00 0. -1.
         25    2    1    2    0    0 -0.65142827732E+02 -0.70239245349E+02 -0.19103699386E+03  0.24762982985E+03  0.12509300547E+03 0.  0.
         23    2    1    2    0    0  0.65142827732E+02  0.70239245349E+02 -0.10881784481E+03  0.17421000778E+03  0.96595361529E+02 0.  0.
          5    1    3    3  502    0 -0.89268193496E+02 -0.39080850481E+02 -0.18274241801E+03  0.20714339716E+03  0.41800000000E+01 0. -1.
         -5    1    3    3    0  502  0.24125365764E+02 -0.31158394868E+02 -0.82945758497E+01  0.40486432697E+02  0.41800000000E+01 0. -1.
        -11    1    4    4    0    0  0.70504752014E+02  0.90597798344E+02 -0.95195026547E+02  0.14913408128E+03  0.00000000000E+00 0. -1.
         11    1    4    4    0    0 -0.53619242816E+01 -0.20358552996E+02 -0.13622818261E+02  0.25075926492E+02  0.00000000000E+00 0.  1.
</event>
<event>
 8    1  0.6965441E-009  0.9421762E+02  0.7561462E-02  0.1292948E+00
         -2   -1    0    0    0  501 -0.00000000000E+00  0.00000000000E+00  0.15574943295E+03  0.15574943295E+03  0.00000000000E+00 0.  1.
          2   -1    0    0  501    0  0.00000000000E+00 -0.00000000000E+00 -0.11829951849E+03  0.11829951849E+03  0.00000000000E+00 0. -1.
         25    2    1    2    0    0  0.35363013248E+01  0.50353082281E+02 -0.44325131569E+02  0.14198739549E+03  0.12509102632E+03 0.  0.
         23    2    1    2    0    0 -0.35363013248E+01 -0.50353082281E+02  0.81775046030E+02  0.13206155595E+03  0.90582327655E+02 0.  0.
          5    1    3    3  502    0  0.46151178487E+02  0.58893870594E+02  0.62174062121E+01  0.75196727384E+02  0.41800000000E+01 0.  1.
         -5    1    3    3    0  502 -0.42614877162E+02 -0.85407883128E+01 -0.50542537781E+02  0.66790668105E+02  0.41800000000E+01 0.  1.
        -11    1    4    4    0    0 -0.15658066255E+02  0.22791225519E+01 -0.14635148343E+02  0.21553584516E+02  0.00000000000E+00 0. -1.
         11    1    4    4    0    0  0.12121764930E+02 -0.52632204833E+02  0.96410194373E+02  0.11050797143E+03  0.00000000000E+00 0.  1.
</event>
<event>
 8    1  0.6965441E-009  0.2137821E+03  0.7561462E-02  0.1138605E+00
          2   -1    0    0  501    0  0.00000000000E+00  0.00000000000E+00  0.69441598045E+03  0.69441598045E+03  0.00000000000E+00 0. -1.
         -2   -1    0    0    0  501 -0.00000000000E+00 -0.00000000000E+00 -0.76130621222E+02  0.76130621222E+02  0.00000000000E+00 0.  1.
         25    2    1    2    0    0 -0.11811933162E+03 -0.15971051749E+03  0.37083990690E+03  0.43889707836E+03  0.12509509562E+03 0.  0.
         23    2    1    2    0    0  0.11811933162E+03  0.15971051749E+03  0.24744545233E+03  0.33164952331E+03  0.96449616551E+02 0.  0.
          5    1    3    3  502    0  0.39717222081E+01  0.14342068018E+02  0.59426429030E+01  0.16560703397E+02  0.41800000000E+01 0.  1.
         -5    1    3    3    0  502 -0.12209105382E+03 -0.17405258551E+03  0.36489726399E+03  0.42233637496E+03  0.41800000000E+01 0.  1.
        -11    1    4    4    0    0  0.42441980415E+02  0.72354484872E+02  0.37268398660E+02  0.91790123223E+02  0.00000000000E+00 0.  1.
         11    1    4    4    0    0  0.75677351202E+02  0.87356032622E+02  0.21017705367E+03  0.23985940009E+03  0.00000000000E+00 0. -1.
</event>
<event>
 8    1  0.6965441E-009  0.1433982E+03  0.7561462E-02  0.1208828E+00
          2   -1    0    0  501    0  0.00000000000E+00  0.00000000000E+00  0.10611445151E+04  0.10611445151E+04  0.00000000000E+00 0. -1.
         -2   -1    0    0    0  501 -0.00000000000E+00 -0.00000000000E+00 -0.28046705833E+02  0.28046705833E+02  0.00000000000E+00 0.  1.
         25    2    1    2    0    0  0.91487454098E+02  0.92308533398E+02  0.44666964696E+03  0.48171691067E+03  0.12508632583E+03 0.  0.
         23    2    1    2    0    0 -0.91487454098E+02 -0.92308533398E+02  0.58642816230E+03  0.60747431026E+03  0.90753669312E+02 0.  0.
          5    1    3    3  502    0  0.59738142406E+02  0.50253260079E+02  0.40999243602E+03  0.41737909123E+03  0.41800000000E+01 0.  1.
         -5    1    3    3    0  502  0.31749311692E+02  0.42055273318E+02  0.36677210942E+02  0.64337819432E+02  0.41800000000E+01 0.  1.
        -11    1    4    4    0    0 -0.96632813794E+02 -0.42295684932E+02  0.44640676551E+03  0.45870014820E+03  0.00000000000E+00 0. -1.
         11    1    4    4    0    0  0.51453596966E+01 -0.50012848466E+02  0.14002139680E+03  0.14877416207E+03  0.00000000000E+00 0.  1.
</event>
<event>
 8    1  0.6965441E-009  0.5940682E+02  0.7561462E-02  0.1400338E+00
         -2   -1    0    0    0  501 -0.00000000000E+00  0.00000000000E+00  0.42982742133E+02  0.42982742133E+02  0.00000000000E+00 0.  1.
          2   -1    0    0  501    0  0.00000000000E+00 -0.00000000000E+00 -0.43527446344E+03  0.43527446344E+03  0.00000000000E+00 0. -1.
         25    2    1    2    0    0 -0.14313325623E+02 -0.29888911633E+02 -0.34647042723E+03  0.36984627564E+03  0.12508514032E+03 0.  0.
         23    2    1    2    0    0  0.14313325623E+02  0.29888911633E+02 -0.45821294069E+02  0.10841092993E+03  0.92493893898E+02 0.  0.
          5    1    3    3  502    0 -0.75801098810E+01 -0.16669752958E+02  0.38609859491E+01  0.19175983469E+02  0.41800000000E+01 0. -1.
         -5    1    3    3    0  502 -0.67332157422E+01 -0.13219158675E+02 -0.35033141318E+03  0.35067029217E+03  0.41800000000E+01 0. -1.
        -11    1    4    4    0    0  0.37980051827E+02  0.43153888996E+02 -0.28071979726E+01  0.57555389259E+02  0.00000000000E+00 0.  1.
         11    1    4    4    0    0 -0.23666726204E+02 -0.13264977363E+02 -0.43014096097E+02  0.50855540668E+02  0.00000000000E+00 0. -1.
</event>
<event>
 8    1  0.6965441E-009  0.1136409E+03  0.7561462E-02  0.1253972E+00
          1   -1    0    0  501    0  0.00000000000E+00  0.00000000000E+00  0.33605864606E+03  0.33605864606E+03  0.00000000000E+00 0. -1.
         -1   -1    0    0    0  501 -0.00000000000E+00 -0.00000000000E+00 -0.63642648509E+02  0.63642648509E+02  0.00000000000E+00 0.  1.
         25    2    1    2    0    0  0.62088401271E+02  0.75435812716E+02  0.14569848975E+03  0.21545520209E+03  0.12508941914E+03 0.  0.
         23    2    1    2    0    0 -0.62088401271E+02 -0.75435812716E+02  0.12671750780E+03  0.18424609247E+03  0.91344208332E+02 0.  0.
          5    1    3    3  502    0  0.66862823921E+02  0.15103638834E+02  0.13482258143E+02  0.69985718638E+02  0.41800000000E+01 0. -1.
         -5    1    3    3    0  502 -0.47744226497E+01  0.60332173882E+02  0.13221623160E+03  0.14546948345E+03  0.41800000000E+01 0. -1.
        -11    1    4    4    0    0 -0.23572246265E+02 -0.23524538382E+02  0.11347912075E+03  0.11826481110E+03  0.00000000000E+00 0. -1.
         11    1    4    4    0    0 -0.38516155005E+02 -0.51911274333E+02  0.13238387055E+02  0.65981281369E+02  0.00000000000E+00 0.  1.
</event>
<event>
 8    1  0.6965441E-009  0.1562312E+03  0.7561462E-02  0.1193019E+00
         -1   -1    0    0    0  501 -0.00000000000E+00  0.00000000000E+00  0.59147447426E+02  0.59147447426E+02  0.00000000000E+00 0.  1.
          1   -1    0    0  501    0  0.00000000000E+00 -0.00000000000E+00 -0.51762599545E+03  0.51762599545E+03  0.00000000000E+00 0. -1.
         25    2    1    2    0    0  0.12143378543E+03 -0.12428610132E+02 -0.34664659440E+03  0.38821609942E+03  0.12508894375E+03 0.  0.
         23    2    1    2    0    0 -0.12143378543E+03  0.12428610132E+02 -0.11183195362E+03  0.18855734345E+03  0.90259909850E+02 0.  0.
          5    1    3    3  502    0  0.69798767684E+02  0.55183796306E+02 -0.16212869488E+03  0.18498731159E+03  0.41800000000E+01 0. -1.
         -5    1    3    3    0  502  0.51635017741E+02 -0.67612406439E+02 -0.18451789952E+03  0.20322878783E+03  0.41800000000E+01 0. -1.
        -11    1    4    4    0    0 -0.92465665488E+02  0.37614250449E+02 -0.40845065404E+02  0.10785662010E+03  0.00000000000E+00 0.  1.
         11    1    4    4    0    0 -0.28968119938E+02 -0.25185640317E+02 -0.70986888221E+02  0.80700723356E+02  0.00000000000E+00 0. -1.
</event>
<event>
 8    1  0.6965441E-009  0.1054769E+03  0.7561462E-02  0.1269183E+00
          2   -1    0    0  501    0  0.00000000000E+00  0.00000000000E+00  0.55921791870E+02  0.55921791870E+02  0.00000000000E+00 0. -1.
         -2   -1    0    0    0  501 -0.00000000000E+00 -0.00000000000E+00 -0.25993791549E+03  0.25993791549E+03  0.00000000000E+00 0.  1.
         25    2    1    2    0    0 -0.33493239518E+02  0.31800289231E+02 -0.13777441971E+03  0.19173500077E+03  0.12508982494E+03 0.  0.
         23    2    1    2    0    0  0.33493239518E+02 -0.31800289231E+02 -0.66241703912E+02  0.12412470659E+03  0.94265178944E+02 0.  0.
          5    1    3    3  502    0  0.36376223658E+02  0.37348969691E+02 -0.22889489385E+02  0.57092699261E+02  0.41800000000E+01 0.  1.
         -5    1    3    3    0  502 -0.69869463176E+02 -0.55486804603E+01 -0.11488493033E+03  0.13464230151E+03  0.41800000000E+01 0.  1.
        -11    1    4    4    0    0  0.31795301431E+02 -0.55882414797E+02 -0.74686186035E+02  0.98548525413E+02  0.00000000000E+00 0.  1.
         11    1    4    4    0    0  0.16979380875E+01  0.24082125566E+02  0.84444821229E+01  0.25576181182E+02  0.00000000000E+00 0. -1.
</event>
<event>
 7    1  0.6965441E-009  0.1304848E+03  0.7561462E-02  0.1226738E+00
         -3   -1    0    0    0  501 -0.00000000000E+00  0.00000000000E+00  0.95438637654E+02  0.95438637654E+02  0.00000000000E+00 0.  1.
          3   -1    0    0  501    0  0.00000000000E+00 -0.00000000000E+00 -0.34157960369E+03  0.34157960369E+03  0.00000000000E+00 0. -1.
         23    2    1    2    0    0  0.56508127158E+02  0.44799432667E+02  0.33526434329E+02  0.12231481238E+03  0.92934029970E+02 0.  0.
          5    1    1    2  502    0 -0.43097140248E+02  0.39062684042E+02 -0.13192922882E+03  0.14424302617E+03  0.41800000000E+01 0.  1.
         -5    1    1    2    0  502 -0.13410986910E+02 -0.83862116709E+02 -0.14773817155E+03  0.17046040279E+03  0.41800000000E+01 0.  1.
        -11    1    3    3    0    0  0.75269577478E+02  0.57711623073E+02  0.27559936640E+02  0.98770900770E+02  0.00000000000E+00 0. -1.
         11    1    3    3    0    0 -0.18761450320E+02 -0.12912190406E+02  0.59664976893E+01  0.23543911609E+02  0.00000000000E+00 0.  1.
</event>
<event>
 8    1  0.6965441E-009  0.5809669E+02  0.7561462E-02  0.1405997E+00
         -1   -1    0    0    0  501 -0.00000000000E+00  0.00000000000E+00  0.55733391666E+03  0.55733391666E+03  0.00000000000E+00 0.  1.
          1   -1    0    0  501    0  0.00000000000E+00 -0.00000000000E+00 -0.30602877647E+02  0.30602877647E+02  0.00000000000E+00 0. -1.
         25    2    1    2    0    0  0.45077462961E+02  0.61018614605E+01  0.42233619519E+03  0.44281160139E+03  0.12508014303E+03 0.  0.
         23    2    1    2    0    0 -0.45077462961E+02 -0.61018614605E+01  0.10439484382E+03  0.14512519292E+03  0.89965703585E+02 0.  0.
          5    1    3    3  502    0  0.29930995481E+02 -0.13893972643E+02  0.41501807464E+03  0.41634887011E+03  0.41800000000E+01 0. -1.
         -5    1    3    3    0  502  0.15146467480E+02  0.19995834103E+02  0.73181205564E+01  0.26462731285E+02  0.41800000000E+01 0. -1.
        -11    1    4    4    0    0 -0.19549459580E+02  0.14789594597E+02  0.10908605081E+03  0.11180643970E+03  0.00000000000E+00 0.  1.
         11    1    4    4    0    0 -0.25528003381E+02 -0.20891456058E+02 -0.46912069820E+01  0.33318753214E+02  0.00000000000E+00 0. -1.
</event>
<event>
 8    1  0.6965441E-009  0.9249626E+02  0.7561462E-02  0.1296917E+00
         -2   -1    0    0    0  501 -0.00000000000E+00  0.00000000000E+00  0.11331671241E+03  0.11331671241E+03  0.00000000000E+00 0.  1.
          2   -1    0    0  501    0  0.00000000000E+00 -0.00000000000E+00 -0.15534593027E+03  0.15534593027E+03  0.00000000000E+00 0. -1.
         25    2    1    2    0    0  0.61542917132E+02 -0.22236557342E+02 -0.62137845164E+02  0.15424358297E+03  0.12509187006E+03 0.  0.
         23    2    1    2    0    0 -0.61542917132E+02  0.22236557342E+02  0.20108627300E+02  0.11441905971E+03  0.91680800613E+02 0.  0.
          5    1    3    3  502    0  0.42384755086E+01  0.19620139029E+02  0.30944982225E+02  0.37121137577E+02  0.41800000000E+01 0. -1.
         -5    1    3    3    0  502  0.57304441623E+02 -0.41856696371E+02 -0.93082827389E+02  0.11712244540E+03  0.41800000000E+01 0. -1.
        -11    1    4    4    0    0  0.54066187661E+01  0.25798270678E+02 -0.22773303175E+02  0.34833972411E+02  0.00000000000E+00 0. -1.
         11    1    4    4    0    0 -0.66949535898E+02 -0.35617133360E+01  0.42881930474E+02  0.79585087297E+02  0.00000000000E+00 0.  1.
</event>
<event>
 8    1  0.6965441E-009  0.1475635E+03  0.7561462E-02  0.1203499E+00
          2   -1    0    0  501    0  0.00000000000E+00  0.00000000000E+00  0.14623638852E+03  0.14623638852E+03  0.00000000000E+00 0. -1.
         -2   -1    0    0    0  501 -0.00000000000E+00 -0.00000000000E+00 -0.20985182528E+03  0.20985182528E+03  0.00000000000E+00 0.  1.
         25    2    1    2    0    0  0.12208958080E+03  0.27140040454E+02 -0.70505053120E+02  0.19042308642E+03  0.12509013467E+03 0.  0.
         23    2    1    2    0    0 -0.12208958080E+03 -0.27140040454E+02  0.68896163556E+01  0.16566512737E+03  0.10842057037E+03 0.  0.
          5    1    3    3  502    0  0.94883952687E+02 -0.35681228433E+02 -0.15775283854E+02  0.10267641658E+03  0.41800000000E+01 0.  1.
         -5    1    3    3    0  502  0.27205628110E+02  0.62821268888E+02 -0.54729769266E+02  0.87746669848E+02  0.41800000000E+01 0.  1.
        -11    1    4    4    0    0 -0.69901300268E+02 -0.14617265799E+02 -0.50213133250E+02  0.87299570385E+02  0.00000000000E+00 0.  1.
         11    1    4    4    0    0 -0.52188280529E+02 -0.12522774655E+02  0.57102749606E+02  0.78365556989E+02  0.00000000000E+00 0. -1.
</event>
<event>
 8    1  0.6965441E-009  0.1295143E+03  0.7561462E-02  0.1228178E+00
         -2   -1    0    0    0  501 -0.00000000000E+00  0.00000000000E+00  0.26727491204E+02  0.26727491204E+02  0.00000000000E+00 0.  1.
          2   -1    0    0  501    0  0.00000000000E+00 -0.00000000000E+00 -0.98745562463E+03  0.98745562463E+03  0.00000000000E+00 0. -1.
         25    2    1    2    0    0  0.77527962867E+02  0.39342262412E+02 -0.81125844067E+03  0.82543743626E+03  0.12509318518E+03 0.  0.
         23    2    1    2    0    0 -0.77527962867E+02 -0.39342262412E+02 -0.14946969276E+03  0.18874567958E+03  0.75666002064E+02 0.  0.
          5    1    3    3  502    0 -0.12068431235E+02  0.52048766730E+02 -0.18315385663E+03  0.19083377256E+03  0.41800000000E+01 0. -1.
         -5    1    3    3    0  502  0.89596394102E+02 -0.12706504319E+02 -0.62810458404E+03  0.63460366370E+03  0.41800000000E+01 0. -1.
        -11    1    4    4    0    0 -0.89440598372E+02 -0.46645363850E+02 -0.13610054087E+03  0.16940710679E+03  0.00000000000E+00 0. -1.
         11    1    4    4    0    0  0.11912635505E+02  0.73031014382E+01 -0.13369151890E+02  0.19338572790E+02  0.00000000000E+00 0.  1.
</event>
<event>
 8    1  0.6965441E-009  0.1054182E+03  0.7561462E-02  0.1269298E+00
          1   -1    0    0  501    0  0.00000000000E+00  0.00000000000E+00  0.84761990399E+02  0.84761990399E+02  0.00000000000E+00 0. -1.
         -1   -1    0    0    0  501 -0.00000000000E+00 -0.00000000000E+00 -0.21124868517E+03  0.21124868517E+03  0.00000000000E+00 0.  1.
         25    2    1    2    0    0  0.13889893179E+02  0.54670069926E+02 -0.12879245877E+03  0.18819433824E+03  0.12509142989E+03 0.  0.
         23    2    1    2    0    0 -0.13889893179E+02 -0.54670069926E+02  0.23057639942E+01  0.10781633733E+03  0.91854778699E+02 0.  0.
          5    1    3    3  502    0  0.84201859635E+01 -0.37534991000E+02 -0.65732810874E+02  0.76276142446E+02  0.41800000000E+01 0.  1.
         -5    1    3    3    0  502  0.54697072157E+01  0.92205060926E+02 -0.63059647894E+02  0.11191819579E+03  0.41800000000E+01 0.  1.
        -11    1    4    4    0    0 -0.32058051387E+02 -0.13699997396E+02 -0.35076600103E+02  0.49454792105E+02  0.00000000000E+00 0.  1.
         11    1    4    4    0    0  0.18168158207E+02 -0.40970072530E+02  0.37382364097E+02  0.58361545227E+02  0.00000000000E+00 0. -1.
</event>
<event>
 8    1  0.6965441E-009  0.8946275E+02  0.7561462E-02  0.1304158E+00
          2   -1    0    0  501    0  0.00000000000E+00  0.00000000000E+00  0.23201374007E+03  0.23201374007E+03  0.00000000000E+00 0. -1.
         -2   -1    0    0    0  501 -0.00000000000E+00 -0.00000000000E+00 -0.53859447426E+02  0.53859447426E+02  0.00000000000E+00 0.  1.
         25    2    1    2    0    0 -0.24017519578E+02 -0.16289422987E+01  0.12027182881E+03  0.17518781419E+03  0.12508382283E+03 0.  0.
         23    2    1    2    0    0  0.24017519578E+02  0.16289422987E+01  0.57882463835E+02  0.11068537331E+03  0.91221584867E+02 0.  0.
          5    1    3    3  502    0  0.12290682706E+02 -0.57492337890E+02  0.70657433391E+02  0.92012907197E+02  0.41800000000E+01 0. -1.
         -5    1    3    3    0  502 -0.36308202285E+02  0.55863395592E+02  0.49614395422E+02  0.83174906993E+02  0.41800000000E+01 0. -1.
        -11    1    4    4    0    0  0.17125446283E+02  0.24190050825E+02 -0.15611161507E+02  0.33498475083E+02  0.00000000000E+00 0.  1.
         11    1    4    4    0    0  0.68920732956E+01 -0.22561108526E+02  0.73493625341E+02  0.77186898228E+02  0.00000000000E+00 0. -1.
</event>
<event>
 8    1  0.6965441E-009  0.2046182E+03  0.7561462E-02  0.1145900E+00
         -1   -1    0    0    0  501 -0.00000000000E+00  0.00000000000E+00  0.33557087593E+02  0.33557087593E+02  0.00000000000E+00 0.  1.
          1   -1    0    0  501    0  0.00000000000E+00 -0.00000000000E+00 -0.16653085704E+04  0.16653085704E+04  0.00000000000E+00 0. -1.
         25    2    1    2    0    0  0.27798036647E+02 -0.19418682273E+03 -0.11076759489E+04  0.11318452528E+04  0.12508563241E+03 0.  0.
         23    2    1    2    0    0 -0.27798036647E+02  0.19418682273E+03 -0.52407553387E+03  0.56702040521E+03  0.91518969405E+02 0.  0.
          5    1    3    3  502    0  0.33023665813E+02 -0.19799061757E+03 -0.11058593606E+04  0.11239364950E+04  0.41800000000E+01 0. -1.
         -5    1    3    3    0  502 -0.52256291659E+01  0.38037948402E+01 -0.18165883490E+01  0.79087577151E+01  0.41800000000E+01 0. -1.
        -11    1    4    4    0    0 -0.37915618698E+02  0.17519615707E+03 -0.51172113747E+03  0.54220827191E+03  0.00000000000E+00 0. -1.
         11    1    4    4    0    0  0.10117582051E+02  0.18990665657E+02 -0.12354396406E+02  0.24812133306E+02  0.00000000000E+00 0.  1.
</event>
<event>
 8    1  0.6965441E-009  0.8282593E+02  0.7561462E-02  0.1321218E+00
          1   -1    0    0  501    0  0.00000000000E+00  0.00000000000E+00  0.23746944609E+03  0.23746944609E+03  0.00000000000E+00 0. -1.
         -1   -1    0    0    0  501 -0.00000000000E+00 -0.00000000000E+00 -0.63309848441E+02  0.63309848441E+02  0.00000000000E+00 0.  1.
         25    2    1    2    0    0  0.51333839689E+02  0.18166915739E+02  0.79781881358E+02  0.15804353090E+03  0.12508960445E+03 0.  0.
         23    2    1    2    0    0 -0.51333839689E+02 -0.18166915739E+02  0.94377716292E+02  0.14273576363E+03  0.92201653793E+02 0.  0.
          5    1    3    3  502    0  0.27494166918E+02 -0.29636247526E+02 -0.19613083484E+02  0.45126287524E+02  0.41800000000E+01 0. -1.
         -5    1    3    3    0  502  0.23839672772E+02  0.47803163265E+02  0.99394964842E+02  0.11291724338E+03  0.41800000000E+01 0. -1.
        -11    1    4    4    0    0 -0.15779607996E+02 -0.30050717741E+02 -0.69937312071E+01  0.34654782375E+02  0.00000000000E+00 0.  1.
         11    1    4    4    0    0 -0.35554231693E+02  0.11883802002E+02  0.10137144750E+03  0.10808098126E+03  0.00000000000E+00 0. -1.
</event>
<event>
 8    1  0.6965441E-009  0.8957714E+02  0.7561462E-02  0.1303879E+00
          2   -1    0    0  501    0  0.00000000000E+00  0.00000000000E+00  0.23947847019E+03  0.23947847019E+03  0.00000000000E+00 0.  1.
         -2   -1    0    0    0  501 -0.00000000000E+00 -0.00000000000E+00 -0.54698859117E+02  0.54698859117E+02  0.00000000000E+00 0. -1.
         25    2    1    2    0    0  0.12676544292E+01 -0.19680983197E+02  0.14702674281E+03  0.19404015721E+03  0.12508305825E+03 0.  0.
         23    2    1    2    0    0 -0.12676544292E+01  0.19680983197E+02  0.37752868264E+02  0.10013717210E+03  0.90626851024E+02 0.  0.
          5    1    3    3  502    0 -0.42871461491E+02 -0.38955832259E+02  0.13068297735E+03  0.14300710488E+03  0.41800000000E+01 0. -1.
         -5    1    3    3    0  502  0.44139115920E+02  0.19274849062E+02  0.16343765462E+02  0.51033052329E+02  0.41800000000E+01 0. -1.
        -11    1    4    4    0    0 -0.19474410109E+02  0.40581973736E+02  0.52160489814E+02  0.68897503141E+02  0.00000000000E+00 0.  1.
         11    1    4    4    0    0  0.18206755680E+02 -0.20900990539E+02 -0.14407621551E+02  0.31239668958E+02  0.00000000000E+00 0. -1.
</event>
<event>
 8    1  0.6965441E-009  0.1064430E+03  0.7561462E-02  0.1267302E+00
          1   -1    0    0  501    0  0.00000000000E+00  0.00000000000E+00  0.29037219667E+03  0.29037219667E+03  0.00000000000E+00 0. -1.
         -1   -1    0    0    0  501 -0.00000000000E+00 -0.00000000000E+00 -0.53967669177E+02  0.53967669177E+02  0.00000000000E+00 0.  1.
         25    2    1    2    0    0  0.14134956846E+02 -0.24135772461E+01  0.50542400261E+02  0.13567581610E+03  0.12509104880E+03 0.  0.
         23    2    1    2    0    0 -0.14134956846E+02  0.24135772461E+01  0.18586212723E+03  0.20866404975E+03  0.93756775534E+02 0.  0.
          5    1    3    3  502    0 -0.37964943456E+01 -0.61111033499E+02  0.40014612816E+02  0.73263998140E+02  0.41800000000E+01 0. -1.
         -5    1    3    3    0  502  0.17931451191E+02  0.58697456253E+02  0.10527787445E+02  0.62411817959E+02  0.41800000000E+01 0. -1.
        -11    1    4    4    0    0  0.36156817351E+02 -0.11278199725E+02  0.11224680653E+03  0.11846458883E+03  0.00000000000E+00 0. -1.
         11    1    4    4    0    0 -0.50291774197E+02  0.13691776971E+02  0.73615320703E+02  0.90199460922E+02  0.00000000000E+00 0.  1.
</event>
<event>
 8    1  0.6965441E-009  0.1281325E+03  0.7561462E-02  0.1230253E+00
         -4   -1    0    0    0  501 -0.00000000000E+00  0.00000000000E+00  0.43652414868E+02  0.43652414868E+02  0.00000000000E+00 0.  1.
          4   -1    0    0  501    0  0.00000000000E+00 -0.00000000000E+00 -0.53708804277E+03  0.53708804277E+03  0.00000000000E+00 0. -1.
         25    2    1    2    0    0  0.54947230887E+01 -0.75776438754E+02 -0.41601302084E+03  0.44100600053E+03  0.12508876184E+03 0.  0.
         23    2    1    2    0    0 -0.54947230887E+01  0.75776438754E+02 -0.77422607055E+02  0.13973445711E+03  0.88086308627E+02 0.  0.
          5    1    3    3  502    0 -0.54501187387E+02 -0.20624373908E+02 -0.11315032746E+03  0.12734289627E+03  0.41800000000E+01 0. -1.
         -5    1    3    3    0  502  0.59995910476E+02 -0.55152064846E+02 -0.30286269338E+03  0.31366310426E+03  0.41800000000E+01 0. -1.
        -11    1    4    4    0    0  0.37739436133E+02  0.58640433154E+02 -0.43841856907E+02  0.82371559759E+02  0.00000000000E+00 0.  1.
         11    1    4    4    0    0 -0.43234159222E+02  0.17136005601E+02 -0.33580750147E+02  0.57362897347E+02  0.00000000000E+00 0. -1.
</event>
<event>
 8    1  0.6965441E-009  0.1149929E+03  0.7561462E-02  0.1251593E+00
         -1   -1    0    0    0  501 -0.00000000000E+00  0.00000000000E+00  0.27070613489E+03  0.27070613489E+03  0.00000000000E+00 0.  1.
          1   -1    0    0  501    0  0.00000000000E+00 -0.00000000000E+00 -0.64519408095E+02  0.64519408095E+02  0.00000000000E+00 0. -1.
         25    2    1    2    0    0  0.44231542326E+02  0.19515724360E+01  0.19121607402E+03  0.23274677828E+03  0.12508891983E+03 0.  0.
         23    2    1    2    0    0 -0.44231542326E+02 -0.19515724360E+01  0.14970652775E+02  0.10247876471E+03  0.91200541662E+02 0.  0.
          5    1    3    3  502    0 -0.10145351379E+02  0.54127427469E+02  0.10107481410E+03  0.11517941224E+03  0.41800000000E+01 0. -1.
         -5    1    3    3    0  502  0.54376893705E+02 -0.52175855033E+02  0.90141259926E+02  0.11756736604E+03  0.41800000000E+01 0. -1.
        -11    1    4    4    0    0  0.24078163308E+02 -0.16821247550E+02 -0.49509451557E+01  0.29786308522E+02  0.00000000000E+00 0.  1.
         11    1    4    4    0    0 -0.68309705634E+02  0.14869675114E+02  0.19921597930E+02  0.72692456183E+02  0.00000000000E+00 0. -1.
</event>
<event>
 8    1  0.6965441E-009  0.1098131E+03  0.7561462E-02  0.1260916E+00
         -1   -1    0    0    0  501 -0.00000000000E+00  0.00000000000E+00  0.77034409643E+02  0.77034409643E+02  0.00000000000E+00 0.  1.
          1   -1    0    0  501    0  0.00000000000E+00 -0.00000000000E+00 -0.26574599524E+03  0.26574599524E+03  0.00000000000E+00 0. -1.
         25    2    1    2    0    0  0.85921629295E+02  0.33671994344E+02 -0.95725508571E+02  0.18255504368E+03  0.12508653563E+03 0.  0.
         23    2    1    2    0    0 -0.85921629295E+02 -0.33671994344E+02 -0.92986077022E+02  0.16022536120E+03  0.92246551527E+02 0.  0.
          5    1    3    3  502    0  0.20905219100E+02  0.77108862260E+01  0.30590592112E+02  0.38075486573E+02  0.41800000000E+01 0.  1.
         -5    1    3    3    0  502  0.65016410195E+02  0.25961108118E+02 -0.12631610068E+03  0.14447955710E+03  0.41800000000E+01 0.  1.
        -11    1    4    4    0    0 -0.38503177788E+02 -0.60968851831E+02 -0.33844507038E+02  0.79656426294E+02  0.00000000000E+00 0.  1.
         11    1    4    4    0    0 -0.47418451507E+02  0.27296857487E+02 -0.59141569984E+02  0.80568934908E+02  0.00000000000E+00 0. -1.
</event>
<event>
 8    1  0.6965441E-009  0.8118307E+02  0.7561462E-02  0.1325727E+00
          2   -1    0    0  501    0  0.00000000000E+00  0.00000000000E+00  0.44431403520E+02  0.44431403520E+02  0.00000000000E+00 0. -1.
         -2   -1    0    0    0  501 -0.00000000000E+00 -0.00000000000E+00 -0.36941351283E+03  0.36941351283E+03  0.00000000000E+00 0.  1.
         25    2    1    2    0    0  0.56583160987E+02 -0.44924469305E+02 -0.19976398887E+03  0.24651985828E+03  0.12508607928E+03 0.  0.
         23    2    1    2    0    0 -0.56583160987E+02  0.44924469305E+02 -0.12521812044E+03  0.16732505806E+03  0.84251025635E+02 0.  0.
          5    1    3    3  502    0  0.26066146847E+02 -0.17635255321E+02 -0.20278714937E+03  0.20525726928E+03  0.41800000000E+01 0. -1.
         -5    1    3    3    0  502  0.30517014140E+02 -0.27289213985E+02  0.30231605016E+01  0.41262589004E+02  0.41800000000E+01 0. -1.
        -11    1    4    4    0    0 -0.47211695237E+02  0.57107697391E+02 -0.13132459165E+03  0.15078588011E+03  0.00000000000E+00 0.  1.
         11    1    4    4    0    0 -0.93714657499E+01 -0.12183228086E+02  0.61064712086E+01  0.16539177958E+02  0.00000000000E+00 0. -1.
</event>
<event>
 8    1  0.6965441E-009  0.3675688E+03  0.7561462E-02  0.1055626E+00
         -2   -1    0    0    0  501 -0.00000000000E+00  0.00000000000E+00  0.92250308069E+02  0.92250308069E+02  0.00000000000E+00 0.  1.
          2   -1    0    0  501    0  0.00000000000E+00 -0.00000000000E+00 -0.17018935846E+04  0.17018935846E+04  0.00000000000E+00 0. -1.
         25    2    1    2    0    0  0.25918054325E+03 -0.26033802283E+03 -0.10405586856E+04  0.11105673375E+04  0.12508794054E+03 0.  0.
         23    2    1    2    0    0 -0.25918054325E+03  0.26033802283E+03 -0.56908459090E+03  0.68357655512E+03  0.92028229176E+02 0.  0.
          5    1    3    3  502    0  0.17270304106E+03 -0.16419947883E+03 -0.82903005550E+03  0.86261005939E+03  0.41800000000E+01 0.  1.
         -5    1    3    3    0  502  0.86477502195E+02 -0.96138544000E+02 -0.21152863009E+03  0.24795727813E+03  0.41800000000E+01 0.  1.
        -11    1    4    4    0    0 -0.12656790274E+03  0.13206160045E+03 -0.20057075423E+03  0.27145594075E+03  0.00000000000E+00 0. -1.
         11    1    4    4    0    0 -0.13261264051E+03  0.12827642239E+03 -0.36851383667E+03  0.41212061436E+03  0.00000000000E+00 0.  1.
</event>
<event>
 8    1  0.6965441E-009  0.8553019E+02  0.7561462E-02  0.1314052E+00
         -1   -1    0    0    0  501 -0.00000000000E+00  0.00000000000E+00  0.36617256019E+02  0.36617256019E+02  0.00000000000E+00 0.  1.
          1   -1    0    0  501    0  0.00000000000E+00 -0.00000000000E+00 -0.31661272931E+03  0.31661272931E+03  0.00000000000E+00 0. -1.
         25    2    1    2    0    0 -0.22227703796E+02 -0.29986485005E+02 -0.14837622478E+03  0.19762714208E+03  0.12509085941E+03 0.  0.
         23    2    1    2    0    0  0.22227703796E+02  0.29986485005E+02 -0.13161924851E+03  0.15560284325E+03  0.74130682915E+02 0.  0.
          5    1    3    3  502    0  0.24316813163E+02 -0.33041558075E+02 -0.14491466426E+03  0.15066779444E+03  0.41800000000E+01 0.  1.
         -5    1    3    3    0  502 -0.46544516959E+02  0.30550730698E+01 -0.34615605238E+01  0.46959347649E+02  0.41800000000E+01 0.  1.
        -11    1    4    4    0    0  0.46311757884E+02  0.24042030092E+01 -0.74498503114E+02  0.87752983292E+02  0.00000000000E+00 0.  1.
         11    1    4    4    0    0 -0.24084054088E+02  0.27582281996E+02 -0.57120745396E+02  0.67849859956E+02  0.00000000000E+00 0. -1.
</event>
<event>
 8    1  0.6965441E-009  0.1259270E+03  0.7561462E-02  0.1233628E+00
         -1   -1    0    0    0  501 -0.00000000000E+00  0.00000000000E+00  0.25188855312E+03  0.25188855312E+03  0.00000000000E+00 0.  1.
          1   -1    0    0  501    0  0.00000000000E+00 -0.00000000000E+00 -0.64384128953E+02  0.64384128953E+02  0.00000000000E+00 0. -1.
         25    2    1    2    0    0 -0.65023018799E+02 -0.85653941891E+01  0.12171752664E+03  0.18642747066E+03  0.12505473431E+03 0.  0.
         23    2    1    2    0    0  0.65023018799E+02  0.85653941891E+01  0.65786897530E+02  0.12984521142E+03  0.90722125689E+02 0.  0.
          5    1    3    3  502    0 -0.95611560650E+02 -0.32521412407E+02  0.97596006098E+02  0.14050503764E+03  0.41800000000E+01 0. -1.
         -5    1    3    3    0  502  0.30588541851E+02  0.23956018218E+02  0.24121520538E+02  0.45922433020E+02  0.41800000000E+01 0. -1.
        -11    1    4    4    0    0 -0.21581040994E+02  0.12620430039E+02  0.11211039978E+02  0.27398978122E+02  0.00000000000E+00 0. -1.
         11    1    4    4    0    0  0.86604059793E+02 -0.40550358502E+01  0.54575857552E+02  0.10244623329E+03  0.00000000000E+00 0.  1.
</event>
<event>
 8    1  0.6965441E-009  0.1265834E+03  0.7561462E-02  0.1232615E+00
          2   -1    0    0  501    0  0.00000000000E+00  0.00000000000E+00  0.36244140479E+03  0.36244140479E+03  0.00000000000E+00 0. -1.
         -2   -1    0    0    0  501 -0.00000000000E+00 -0.00000000000E+00 -0.55292191396E+02  0.55292191396E+02  0.00000000000E+00 0.  1.
         25    2    1    2    0    0 -0.64864138554E+02  0.28414033144E+02  0.25225708076E+03  0.29033703044E+03  0.12508893916E+03 0.  0.
         23    2    1    2    0    0  0.64864138554E+02 -0.28414033144E+02  0.54892132631E+02  0.12739656574E+03  0.90565031822E+02 0.  0.
          5    1    3    3  502    0 -0.85927634348E+02  0.60445753218E+02  0.18746517527E+03  0.21493699487E+03  0.41800000000E+01 0.  1.
         -5    1    3    3    0  502  0.21063495793E+02 -0.32031720074E+02  0.64791905496E+02  0.75400035569E+02  0.41800000000E+01 0.  1.
        -11    1    4    4    0    0 -0.16067442120E+01 -0.41653895430E+02  0.40477906159E+02  0.58104126519E+02  0.00000000000E+00 0.  1.
         11    1    4    4    0    0  0.66470882766E+02  0.13239862286E+02  0.14414226472E+02  0.69292439226E+02  0.00000000000E+00 0. -1.
</event>
<event>
 8    1  0.6965441E-009  0.1051971E+03  0.7561462E-02  0.1269732E+00
          1   -1    0    0  501    0  0.00000000000E+00  0.00000000000E+00  0.15158139240E+03  0.15158139240E+03  0.00000000000E+00 0. -1.
         -1   -1    0    0    0  501 -0.00000000000E+00 -0.00000000000E+00 -0.83697071526E+02  0.83697071526E+02  0.00000000000E+00 0.  1.
         25    2    1    2    0    0 -0.49591806287E+01  0.31434603364E+02  0.30769129951E+02  0.13268549578E+03  0.12508386655E+03 0.  0.
         23    2    1    2    0    0  0.49591806287E+01 -0.31434603364E+02  0.37115190925E+02  0.10259296815E+03  0.90194522865E+02 0.  0.
          5    1    3    3  502    0 -0.59366186094E+02  0.73782913513E+01 -0.95156965252E+01  0.60719058910E+02  0.41800000000E+01 0.  1.
         -5    1    3    3    0  502  0.54407005465E+02  0.24056312012E+02  0.40284826476E+02  0.71966436868E+02  0.41800000000E+01 0.  1.
        -11    1    4    4    0    0  0.42659617564E+02 -0.31602059107E+02  0.37314751554E+02  0.64891631156E+02  0.00000000000E+00 0.  1.
         11    1    4    4    0    0 -0.37700436935E+02  0.16745574390E+00 -0.19956062913E+00  0.37701336992E+02  0.00000000000E+00 0. -1.
</event>
<event>
 8    1  0.6965441E-009  0.1545826E+03  0.7561462E-02  0.1194952E+00
          2   -1    0    0  501    0  0.00000000000E+00  0.00000000000E+00  0.21606621449E+03  0.21606621449E+03  0.00000000000E+00 0. -1.
         -2   -1    0    0    0  501 -0.00000000000E+00 -0.00000000000E+00 -0.15801290650E+03  0.15801290650E+03  0.00000000000E+00 0.  1.
         25    2    1    2    0    0 -0.16321709924E+02 -0.13040476708E+03 -0.40177856444E+02  0.18583763703E+03  0.12509822420E+03 0.  0.
         23    2    1    2    0    0  0.16321709924E+02  0.13040476708E+03  0.98231164439E+02  0.18824148396E+03  0.92269676093E+02 0.  0.
          5    1    3    3  502    0 -0.32664851566E+02  0.10895077859E+01  0.21785130450E+02  0.39499922326E+02  0.41800000000E+01 0. -1.
         -5    1    3    3    0  502  0.16343141643E+02 -0.13149427486E+03 -0.61962986894E+02  0.14633771470E+03  0.41800000000E+01 0. -1.
        -11    1    4    4    0    0  0.30576695240E+02  0.32179754266E+02  0.73643365984E+02  0.85987302724E+02  0.00000000000E+00 0. -1.
         11    1    4    4    0    0 -0.14254985316E+02  0.98225012809E+02  0.24587798456E+02  0.10225418124E+03  0.00000000000E+00 0.  1.
</event>
<event>
 8    1  0.6965441E-009  0.9575273E+02  0.7561462E-02  0.1289490E+00
          2   -1    0    0  501    0  0.00000000000E+00  0.00000000000E+00  0.35482341701E+03  0.35482341701E+03  0.00000000000E+00 0. -1.
         -2   -1    0    0    0  501 -0.00000000000E+00 -0.00000000000E+00 -0.37367053408E+02  0.37367053408E+02  0.00000000000E+00 0.  1.
         25    2    1    2    0    0 -0.34550490890E+02  0.20025559633E+02  0.18880588203E+03  0.22997845019E+03  0.12509063516E+03 0.  0.
         23    2    1    2    0    0  0.34550490890E+02 -0.20025559633E+02  0.12865048158E+03  0.16221202023E+03  0.90371641780E+02 0.  0.
          5    1    3    3  502    0 -0.24336278854E+02  0.58136045635E+02  0.17797434403E+03  0.18885018878E+03  0.41800000000E+01 0. -1.
         -5    1    3    3    0  502 -0.10214212036E+02 -0.38110486002E+02  0.10831537995E+02  0.41128261404E+02  0.41800000000E+01 0. -1.
        -11    1    4    4    0    0  0.55335266277E+02 -0.32745624806E+02  0.12038524019E+03  0.13648030515E+03  0.00000000000E+00 0. -1.
         11    1    4    4    0    0 -0.20784775387E+02  0.12720065173E+02  0.82652413883E+01  0.25731715083E+02  0.00000000000E+00 0.  1.
</event>
<event>
 8    1  0.6965441E-009  0.1213835E+03  0.7561462E-02  0.1240832E+00
         -1   -1    0    0    0  501 -0.00000000000E+00  0.00000000000E+00  0.23859889917E+03  0.23859889917E+03  0.00000000000E+00 0.  1.
          1   -1    0    0  501    0  0.00000000000E+00 -0.00000000000E+00 -0.72943905747E+02  0.72943905747E+02  0.00000000000E+00 0. -1.
         25    2    1    2    0    0 -0.11308406308E+02 -0.55822643636E+02  0.14783269839E+03  0.20188384978E+03  0.12513406608E+03 0.  0.
         23    2    1    2    0    0  0.11308406308E+02  0.55822643636E+02  0.17822295030E+02  0.10965895513E+03  0.91996764319E+02 0.  0.
          5    1    3    3  502    0 -0.47081984904E+02 -0.80285208549E+02  0.90421014552E+02  0.12983012088E+03  0.41800000000E+01 0.  1.
         -5    1    3    3    0  502  0.35773578596E+02  0.24462564914E+02  0.57411683838E+02  0.72053728903E+02  0.41800000000E+01 0.  1.
        -11    1    4    4    0    0 -0.28016265332E+02 -0.96971221184E+01 -0.46466707836E+01  0.30008946165E+02  0.00000000000E+00 0. -1.
         11    1    4    4    0    0  0.39324671640E+02  0.65519765754E+02  0.22468965814E+02  0.79650008969E+02  0.00000000000E+00 0.  1.
</event>
<event>
 8    1  0.6965441E-009  0.1101519E+03  0.7561462E-02  0.1260289E+00
         -2   -1    0    0    0  501 -0.00000000000E+00  0.00000000000E+00  0.62660918039E+02  0.62660918039E+02  0.00000000000E+00 0.  1.
          2   -1    0    0  501    0  0.00000000000E+00 -0.00000000000E+00 -0.53647181641E+03  0.53647181641E+03  0.00000000000E+00 0. -1.
         25    2    1    2    0    0 -0.73438636285E+02 -0.19181203391E+02 -0.43072413718E+02  0.15253380501E+03  0.12510066741E+03 0.  0.
         23    2    1    2    0    0  0.73438636285E+02  0.19181203391E+02 -0.43073848465E+03  0.44659892943E+03  0.90298448210E+02 0.  0.
          5    1    3    3  502    0 -0.82371690119E+02  0.79721811970E+01 -0.73365821126E+02  0.11067369658E+03  0.41800000000E+01 0.  1.
         -5    1    3    3    0  502  0.89330538343E+01 -0.27153384588E+02  0.30293407408E+02  0.41860108430E+02  0.41800000000E+01 0.  1.
        -11    1    4    4    0    0  0.23126065878E+02  0.46038576124E+02 -0.11881366609E+03  0.12950309906E+03  0.00000000000E+00 0.  1.
         11    1    4    4    0    0  0.50312570407E+02 -0.26857372733E+02 -0.31192481856E+03  0.31709583038E+03  0.00000000000E+00 0. -1.
</event>
<event>
 8    1  0.6965441E-009  0.2321725E+03  0.7561462E-02  0.1125120E+00
         -1   -1    0    0    0  501 -0.00000000000E+00  0.00000000000E+00  0.10821496564E+03  0.10821496564E+03  0.00000000000E+00 0.  1.
          1   -1    0    0  501    0  0.00000000000E+00 -0.00000000000E+00 -0.57984574419E+03  0.57984574419E+03  0.00000000000E+00 0. -1.
         25    2    1    2    0    0 -0.96638219572E+02  0.19918668502E+03 -0.18193716579E+03  0.31267062554E+03  0.12508999484E+03 0.  0.
         23    2    1    2    0    0  0.96638219572E+02 -0.19918668502E+03 -0.28969361276E+03  0.37539008429E+03  0.89336695345E+02 0.  0.
          5    1    3    3  502    0 -0.11589404832E+03  0.14773668101E+03 -0.17576452233E+03  0.25723179637E+03  0.41800000000E+01 0.  1.
         -5    1    3    3    0  502  0.19255828748E+02  0.51450004003E+02 -0.61726434607E+01  0.55438829172E+02  0.41800000000E+01 0.  1.
        -11    1    4    4    0    0  0.22359452792E+02 -0.41991213954E+02 -0.14244115161E+02  0.49659863021E+02  0.00000000000E+00 0.  1.
         11    1    4    4    0    0  0.74278766779E+02 -0.15719547106E+03 -0.27544949760E+03  0.32573022127E+03  0.00000000000E+00 0. -1.
</event>
<event>
 8    1  0.6965441E-009  0.1009647E+03  0.7561462E-02  0.1278280E+00
         -2   -1    0    0    0  501 -0.00000000000E+00  0.00000000000E+00  0.16444042360E+02  0.16444042360E+02  0.00000000000E+00 0.  1.
          2   -1    0    0  501    0  0.00000000000E+00 -0.00000000000E+00 -0.98976246683E+03  0.98976246683E+03  0.00000000000E+00 0. -1.
         25    2    1    2    0    0  0.32717153236E+02  0.47403692327E+01 -0.77022163917E+03  0.78101354643E+03  0.12509157864E+03 0.  0.
         23    2    1    2    0    0 -0.32717153236E+02 -0.47403692327E+01 -0.20309678530E+03  0.22519296276E+03  0.91491437090E+02 0.  0.
          5    1    3    3  502    0 -0.30062543070E+02 -0.40160794456E+02 -0.24337423350E+03  0.24852592589E+03  0.41800000000E+01 0.  1.
         -5    1    3    3    0  502  0.62779696307E+02  0.44901163689E+02 -0.52684740567E+03  0.53248762055E+03  0.41800000000E+01 0.  1.
        -11    1    4    4    0    0 -0.78090228731E+00 -0.32178353946E+02 -0.21330924774E+02  0.38614305934E+02  0.00000000000E+00 0.  1.
         11    1    4    4    0    0 -0.31936250949E+02  0.27437984714E+02 -0.18176586052E+03  0.18657865682E+03  0.00000000000E+00 0. -1.
</event>
<event>
 8    1  0.6965441E-009  0.3639107E+03  0.7561462E-02  0.1057046E+00
         -2   -1    0    0    0  501 -0.00000000000E+00  0.00000000000E+00  0.80457381217E+02  0.80457381217E+02  0.00000000000E+00 0.  1.
          2   -1    0    0  501    0  0.00000000000E+00 -0.00000000000E+00 -0.16651488795E+04  0.16651488795E+04  0.00000000000E+00 0. -1.
         25    2    1    2    0    0 -0.27440160876E+03  0.21534468863E+03 -0.76149446561E+03  0.84687127288E+03  0.12509018295E+03 0.  0.
         23    2    1    2    0    0  0.27440160876E+03 -0.21534468863E+03 -0.82319703265E+03  0.89873498781E+03  0.91660492792E+02 0.  0.
          5    1    3    3  502    0 -0.93732648821E+02  0.11145625508E+02 -0.14919091318E+03  0.17659398461E+03  0.41800000000E+01 0.  1.
         -5    1    3    3    0  502 -0.18066895994E+03  0.20419906312E+03 -0.61230355243E+03  0.67027728828E+03  0.41800000000E+01 0.  1.
        -11    1    4    4    0    0  0.13405728597E+03 -0.16257030747E+03 -0.47999871398E+03  0.52421295884E+03  0.00000000000E+00 0.  1.
         11    1    4    4    0    0  0.14034432279E+03 -0.52774381157E+02 -0.34319831867E+03  0.37452202897E+03  0.00000000000E+00 0. -1.
</event>
<event>
 8    1  0.6965441E-009  0.1264141E+03  0.7561462E-02  0.1232876E+00
         -4   -1    0    0    0  501 -0.00000000000E+00  0.00000000000E+00  0.99120798996E+02  0.99120798996E+02  0.00000000000E+00 0.  1.
          4   -1    0    0  501    0  0.00000000000E+00 -0.00000000000E+00 -0.22583241046E+03  0.22583241046E+03  0.00000000000E+00 0. -1.
         25    2    1    2    0    0  0.81209639028E+02  0.47644851385E+02 -0.11711463052E+03  0.19549047478E+03  0.12504259959E+03 0.  0.
         23    2    1    2    0    0 -0.81209639028E+02 -0.47644851385E+02 -0.95969809450E+01  0.12946273468E+03  0.88337196543E+02 0.  0.
          5    1    3    3  502    0  0.93518646499E+02 -0.25236694405E+01 -0.38326499512E+02  0.10118546889E+03  0.41800000000E+01 0. -1.
         -5    1    3    3    0  502 -0.12309007471E+02  0.50168520826E+02 -0.78788131012E+02  0.94305005886E+02  0.41800000000E+01 0. -1.
        -11    1    4    4    0    0 -0.69675967554E+02 -0.13046741621E+02  0.28792983930E+02  0.76511396831E+02  0.00000000000E+00 0.  1.
         11    1    4    4    0    0 -0.11533671475E+02 -0.34598109764E+02 -0.38389964875E+02  0.52951337849E+02  0.00000000000E+00 0. -1.
</event>
<event>
 8    1  0.6965441E-009  0.9084785E+02  0.7561462E-02  0.1300811E+00
         -2   -1    0    0    0  501 -0.00000000000E+00  0.00000000000E+00  0.61230483771E+02  0.61230483771E+02  0.00000000000E+00 0.  1.
          2   -1    0    0  501    0  0.00000000000E+00 -0.00000000000E+00 -0.21415637543E+03  0.21415637543E+03  0.00000000000E+00 0. -1.
         25    2    1    2    0    0 -0.24422936818E+01  0.14228034244E+02 -0.12616474310E+03  0.17825118520E+03  0.12509013097E+03 0.  0.
         23    2    1    2    0    0  0.24422936818E+01 -0.14228034244E+02 -0.26761148564E+02  0.97135674006E+02  0.92253879784E+02 0.  0.
          5    1    3    3  502    0 -0.59979251592E+02  0.69136250054E+01 -0.93999736277E+02  0.11179772651E+03  0.41800000000E+01 0.  1.
         -5    1    3    3    0  502  0.57536957910E+02  0.73144092383E+01 -0.32165006821E+02  0.66453458690E+02  0.41800000000E+01 0.  1.
        -11    1    4    4    0    0 -0.12484219817E+02 -0.35162740257E+02  0.21056114308E+02  0.42844299464E+02  0.00000000000E+00 0.  1.
         11    1    4    4    0    0  0.14926513499E+02  0.20934706013E+02 -0.47817262872E+02  0.54291374542E+02  0.00000000000E+00 0. -1.
</event>
<event>
 8    1  0.6965441E-009  0.1048659E+03  0.7561462E-02  0.1270384E+00
          4   -1    0    0  501    0  0.00000000000E+00  0.00000000000E+00  0.46251683916E+02  0.46251683916E+02  0.00000000000E+00 0.  1.
         -4   -1    0    0    0  501 -0.00000000000E+00 -0.00000000000E+00 -0.28732586205E+03  0.28732586205E+03  0.00000000000E+00 0. -1.
         25    2    1    2    0    0  0.37927719445E+02 -0.85790788562E+01 -0.16415960562E+03  0.21001913191E+03  0.12509015611E+03 0.  0.
         23    2    1    2    0    0 -0.37927719445E+02  0.85790788562E+01 -0.76914572514E+02  0.12355841406E+03  0.88536533265E+02 0.  0.
          5    1    3    3  502    0  0.32858239529E+02 -0.64922781327E+02 -0.76983214442E+02  0.10601188210E+03  0.41800000000E+01 0.  1.
         -5    1    3    3    0  502  0.50694799165E+01  0.56343702471E+02 -0.87176391176E+02  0.10400724981E+03  0.41800000000E+01 0.  1.
        -11    1    4    4    0    0  0.48078857674E+01  0.31337634666E+02 -0.67018907384E+02  0.74139713103E+02  0.00000000000E+00 0. -1.
         11    1    4    4    0    0 -0.42735605212E+02 -0.22758555810E+02 -0.98956651294E+01  0.49418700952E+02  0.00000000000E+00 0.  1.
</event>
<event>
 8    1  0.6965441E-009  0.2068552E+03  0.7561462E-02  0.1144081E+00
         -2   -1    0    0    0  501 -0.00000000000E+00  0.00000000000E+00  0.89180245906E+02  0.89180245906E+02  0.00000000000E+00 0.  1.
          2   -1    0    0  501    0  0.00000000000E+00 -0.00000000000E+00 -0.67690780231E+03  0.67690780231E+03  0.00000000000E+00 0. -1.
         25    2    1    2    0    0 -0.15294050942E+03 -0.10319043863E+03 -0.11562937960E+03  0.25111509471E+03  0.12509824666E+03 0.  0.
         23    2    1    2    0    0  0.15294050942E+03  0.10319043863E+03 -0.47209817681E+03  0.51497295351E+03  0.91002133239E+02 0.  0.
          5    1    3    3  502    0 -0.92013900915E+02  0.15735027886E+01 -0.14583632711E+02  0.93269440953E+02  0.41800000000E+01 0. -1.
         -5    1    3    3    0  502 -0.60926608508E+02 -0.10476394142E+03 -0.10104574688E+03  0.15784565375E+03  0.41800000000E+01 0. -1.
        -11    1    4    4    0    0  0.16173009565E+01  0.33818706926E+02 -0.13266708156E+03  0.13691922849E+03  0.00000000000E+00 0. -1.
         11    1    4    4    0    0  0.15132320847E+03  0.69371731701E+02 -0.33943109524E+03  0.37805372501E+03  0.00000000000E+00 0.  1.
</event>
<event>
 8    1  0.6965441E-009  0.1041469E+03  0.7561462E-02  0.1271810E+00
          1   -1    0    0  501    0  0.00000000000E+00  0.00000000000E+00  0.99837383898E+02  0.99837383898E+02  0.00000000000E+00 0. -1.
         -1   -1    0    0    0  501 -0.00000000000E+00 -0.00000000000E+00 -0.16793402570E+03  0.16793402570E+03  0.00000000000E+00 0.  1.
         25    2    1    2    0    0  0.64061099515E+02  0.23360464060E+02 -0.64548756640E+02  0.15640903365E+03  0.12509079931E+03 0.  0.
         23    2    1    2    0    0 -0.64061099515E+02 -0.23360464060E+02 -0.35478851592E+01  0.11136237594E+03  0.87974175382E+02 0.  0.
          5    1    3    3  502    0  0.12196168227E+02 -0.48348697831E+02 -0.41117724724E+02  0.64764826780E+02  0.41800000000E+01 0.  1.
         -5    1    3    3    0  502  0.51864931287E+02  0.71709161891E+02 -0.23431031916E+02  0.91644206872E+02  0.41800000000E+01 0.  1.
        -11    1    4    4    0    0 -0.36128194899E+02 -0.56086059430E+01 -0.45216979427E+02  0.58148758850E+02  0.00000000000E+00 0.  1.
         11    1    4    4    0    0 -0.27932904615E+02 -0.17751858117E+02  0.41669094268E+02  0.53213617091E+02  0.00000000000E+00 0. -1.
</event>
<event>
 8    1  0.6965441E-009  0.1733649E+03  0.7561462E-02  0.1174383E+00
         -1   -1    0    0    0  501 -0.00000000000E+00  0.00000000000E+00  0.10421719030E+03  0.10421719030E+03  0.00000000000E+00 0.  1.
          1   -1    0    0  501    0  0.00000000000E+00 -0.00000000000E+00 -0.29229529888E+03  0.29229529888E+03  0.00000000000E+00 0. -1.
         25    2    1    2    0    0 -0.50447520001E+02  0.12405363727E+03 -0.93541878389E+02  0.20573360863E+03  0.12506789161E+03 0.  0.
         23    2    1    2    0    0  0.50447520001E+02 -0.12405363727E+03 -0.94536230192E+02  0.19077888056E+03  0.97597260479E+02 0.  0.
          5    1    3    3  502    0 -0.89703946974E+02  0.10197873294E+03 -0.83216679639E+02  0.15933909830E+03  0.41800000000E+01 0. -1.
         -5    1    3    3    0  502  0.39256426973E+02  0.22074904327E+02 -0.10325198749E+02  0.46394510332E+02  0.41800000000E+01 0. -1.
        -11    1    4    4    0    0 -0.25301283272E+02 -0.64422282570E+02 -0.42654015821E+02  0.81300372031E+02  0.00000000000E+00 0.  1.
         11    1    4    4    0    0  0.75748803273E+02 -0.59631354701E+02 -0.51882214371E+02  0.10947850852E+03  0.00000000000E+00 0. -1.
</event>
<event>
 8    1  0.6965441E-009  0.1237791E+03  0.7561462E-02  0.1236990E+00
         -2   -1    0    0    0  501 -0.00000000000E+00  0.00000000000E+00  0.24764277447E+02  0.24764277447E+02  0.00000000000E+00 0.  1.
          2   -1    0    0  501    0  0.00000000000E+00 -0.00000000000E+00 -0.67376111414E+03  0.67376111414E+03  0.00000000000E+00 0. -1.
         25    2    1    2    0    0 -0.14227822775E+01 -0.70506974524E+02 -0.36288205941E+03  0.39026228370E+03  0.12509197925E+03 0.  0.
         23    2    1    2    0    0  0.14227822775E+01  0.70506974524E+02 -0.28611477729E+03  0.30826310789E+03  0.90505359716E+02 0.  0.
          5    1    3    3  502    0 -0.33558298077E+01 -0.10676469697E+03 -0.26238794887E+03  0.28332820231E+03  0.41800000000E+01 0.  1.
         -5    1    3    3    0  502  0.19330475303E+01  0.36257722447E+02 -0.10049411054E+03  0.10693408139E+03  0.41800000000E+01 0.  1.
        -11    1    4    4    0    0  0.38668218319E+02  0.42857334994E+02 -0.91417962833E+02  0.10811672488E+03  0.00000000000E+00 0.  1.
         11    1    4    4    0    0 -0.37245436041E+02  0.27649639530E+02 -0.19469681445E+03  0.20014638301E+03  0.00000000000E+00 0. -1.
</event>
<event>
 8    1  0.6965441E-009  0.1696156E+03  0.7561462E-02  0.1178249E+00
          2   -1    0    0  501    0  0.00000000000E+00  0.00000000000E+00  0.10174533424E+04  0.10174533424E+04  0.00000000000E+00 0. -1.
         -2   -1    0    0    0  501 -0.00000000000E+00 -0.00000000000E+00 -0.32068261810E+02  0.32068261810E+02  0.00000000000E+00 0.  1.
         25    2    1    2    0    0 -0.12426446755E+03  0.51696807474E+02  0.36922716011E+03  0.41242010593E+03  0.12508968868E+03 0.  0.
         23    2    1    2    0    0  0.12426446755E+03 -0.51696807474E+02  0.61615792051E+03  0.63710149831E+03  0.90186020754E+02 0.  0.
          5    1    3    3  502    0  0.24697730814E+02  0.16901516915E+02  0.72822583168E+02  0.78843136674E+02  0.41800000000E+01 0.  1.
         -5    1    3    3    0  502 -0.14896219836E+03  0.34795290559E+02  0.29640457694E+03  0.33357696925E+03  0.41800000000E+01 0.  1.
        -11    1    4    4    0    0 -0.87252586096E+00 -0.28747116152E+02  0.59449721283E+02  0.66041103482E+02  0.00000000000E+00 0.  1.
         11    1    4    4    0    0  0.12513699341E+03 -0.22949691322E+02  0.55670819923E+03  0.57106039483E+03  0.00000000000E+00 0. -1.
</event>
<event>
 8    1  0.6965441E-009  0.1424118E+03  0.7561462E-02  0.1210120E+00
         -1   -1    0    0    0  501 -0.00000000000E+00  0.00000000000E+00  0.13764871204E+03  0.13764871204E+03  0.00000000000E+00 0.  1.
          1   -1    0    0  501    0  0.00000000000E+00 -0.00000000000E+00 -0.21493120322E+03  0.21493120322E+03  0.00000000000E+00 0. -1.
         25    2    1    2    0    0 -0.63894871743E+02 -0.79345449826E+02 -0.12539709873E+03  0.20432918231E+03  0.12509087630E+03 0.  0.
         23    2    1    2    0    0  0.63894871743E+02  0.79345449826E+02  0.48114607552E+02  0.14825073295E+03  0.96358753191E+02 0.  0.
          5    1    3    3  502    0  0.26637916549E+02  0.11966947343E+02 -0.40824769158E+02  0.50367852879E+02  0.41800000000E+01 0. -1.
         -5    1    3    3    0  502 -0.90532788291E+02 -0.91312397170E+02 -0.84572329568E+02  0.15396132943E+03  0.41800000000E+01 0. -1.
        -11    1    4    4    0    0  0.81107774250E+02  0.69683892070E+02  0.62471575098E+02  0.12384269681E+03  0.00000000000E+00 0.  1.
         11    1    4    4    0    0 -0.17212902508E+02  0.96615577567E+01 -0.14356967546E+02  0.24408036139E+02  0.00000000000E+00 0. -1.
</event>
<event>
 8    1  0.6965441E-009  0.9797415E+02  0.7561462E-02  0.1284615E+00
         -1   -1    0    0    0  501 -0.00000000000E+00  0.00000000000E+00  0.32099772491E+02  0.32099772491E+02  0.00000000000E+00 0.  1.
          1   -1    0    0  501    0  0.00000000000E+00 -0.00000000000E+00 -0.46775776828E+03  0.46775776828E+03  0.00000000000E+00 0. -1.
         25    2    1    2    0    0 -0.38722756060E+02 -0.43382466507E+02 -0.24020869326E+03  0.27700127649E+03  0.12509196866E+03 0.  0.
         23    2    1    2    0    0  0.38722756060E+02  0.43382466507E+02 -0.19544930253E+03  0.22285626428E+03  0.89905474988E+02 0.  0.
          5    1    3    3  502    0 -0.39343968284E+02  0.11862413418E+02 -0.13251704825E+02  0.43379082208E+02  0.41800000000E+01 0. -1.
         -5    1    3    3    0  502  0.62121222332E+00 -0.55244879924E+02 -0.22695698843E+03  0.23362219428E+03  0.41800000000E+01 0. -1.
        -11    1    4    4    0    0  0.63196809020E+02  0.22558721519E+02 -0.16685245613E+03  0.17984013652E+03  0.00000000000E+00 0. -1.
         11    1    4    4    0    0 -0.24474052960E+02  0.20823744988E+02 -0.28596846403E+02  0.43016127764E+02  0.00000000000E+00 0.  1.
</event>
<event>
 8    1  0.6965441E-009  0.1456171E+03  0.7561462E-02  0.1205965E+00
         -2   -1    0    0    0  501 -0.00000000000E+00  0.00000000000E+00  0.51388658371E+02  0.51388658371E+02  0.00000000000E+00 0.  1.
          2   -1    0    0  501    0  0.00000000000E+00 -0.00000000000E+00 -0.55233074852E+03  0.55233074852E+03  0.00000000000E+00 0. -1.
         25    2    1    2    0    0  0.52299161213E+02  0.10902586263E+03 -0.34760491945E+03  0.38871316709E+03  0.12508759033E+03 0.  0.
         23    2    1    2    0    0 -0.52299161213E+02 -0.10902586263E+03 -0.15333717069E+03  0.21500623980E+03  0.89964183154E+02 0.  0.
          5    1    3    3  502    0 -0.72734422842E+01  0.10535768892E+03 -0.15964843224E+03  0.19146341659E+03  0.41800000000E+01 0.  1.
         -5    1    3    3    0  502  0.59572603497E+02  0.36681737119E+01 -0.18795648721E+03  0.19724975050E+03  0.41800000000E+01 0.  1.
        -11    1    4    4    0    0 -0.18722326621E+02 -0.77236327599E+02 -0.32928556980E+02  0.86024796889E+02  0.00000000000E+00 0.  1.
         11    1    4    4    0    0 -0.33576834592E+02 -0.31789535029E+02 -0.12040861371E+03  0.12898144291E+03  0.00000000000E+00 0. -1.
</event>
<event>
 8    1  0.6965441E-009  0.1030972E+03  0.7561462E-02  0.1273915E+00
         -2   -1    0    0    0  501 -0.00000000000E+00  0.00000000000E+00  0.27151381544E+03  0.27151381544E+03  0.00000000000E+00 0. -1.
          2   -1    0    0  501    0  0.00000000000E+00 -0.00000000000E+00 -0.46987054032E+02  0.46987054032E+02  0.00000000000E+00 0.  1.
         25    2    1    2    0    0 -0.16937489427E+02 -0.32482043156E+01  0.88175571911E+02  0.15401220827E+03  0.12508956565E+03 0.  0.
         23    2    1    2    0    0  0.16937489427E+02  0.32482043156E+01  0.13635118950E+03  0.16448866121E+03  0.90373908890E+02 0.  0.
          5    1    3    3  502    0  0.40945761254E+02 -0.39850017237E+02  0.34267738759E+02  0.66755745507E+02  0.41800000000E+01 0. -1.
         -5    1    3    3    0  502 -0.57883250681E+02  0.36601812922E+02  0.53907833151E+02  0.87256462761E+02  0.41800000000E+01 0. -1.
        -11    1    4    4    0    0 -0.10007609674E+02 -0.33364931393E+02  0.10119111213E+03  0.10701874636E+03  0.00000000000E+00 0. -1.
         11    1    4    4    0    0  0.26945099101E+02  0.36613135709E+02  0.35160077372E+02  0.57469914849E+02  0.00000000000E+00 0.  1.
</event>
<event>
 8    1  0.6965441E-009  0.1537608E+03  0.7561462E-02  0.1195926E+00
         -1   -1    0    0    0  501 -0.00000000000E+00  0.00000000000E+00  0.28191572671E+03  0.28191572671E+03  0.00000000000E+00 0.  1.
          1   -1    0    0  501    0  0.00000000000E+00 -0.00000000000E+00 -0.88219787426E+02  0.88219787426E+02  0.00000000000E+00 0. -1.
         25    2    1    2    0    0 -0.95420940748E+02  0.60555629823E+02  0.11109942759E+03  0.20189164451E+03  0.12508002668E+03 0.  0.
         23    2    1    2    0    0  0.95420940748E+02 -0.60555629823E+02  0.82596511693E+02  0.16824386963E+03  0.93336357804E+02 0.  0.
          5    1    3    3  502    0 -0.32300989006E+02 -0.35556443522E+02  0.11174540619E+02  0.49497043596E+02  0.41800000000E+01 0. -1.
         -5    1    3    3    0  502 -0.63119951742E+02  0.96112073345E+02  0.99924886976E+02  0.15239460091E+03  0.41800000000E+01 0. -1.
        -11    1    4    4    0    0  0.20333658901E+02 -0.65898107796E+02  0.54481827074E+02  0.87887927366E+02  0.00000000000E+00 0.  1.
         11    1    4    4    0    0  0.75087281847E+02  0.53424779729E+01  0.28114684619E+02  0.80355942265E+02  0.00000000000E+00 0. -1.
</event>
<event>
 8    1  0.6965441E-009  0.2061711E+03  0.7561462E-02  0.1144634E+00
         -1   -1    0    0    0  501 -0.00000000000E+00  0.00000000000E+00  0.51711413438E+03  0.51711413438E+03  0.00000000000E+00 0.  1.
          1   -1    0    0  501    0  0.00000000000E+00 -0.00000000000E+00 -0.82784141041E+02  0.82784141041E+02  0.00000000000E+00 0. -1.
         25    2    1    2    0    0  0.17245974952E+03 -0.32367332440E+02  0.22270031881E+03  0.30989163085E+03  0.12508949380E+03 0.  0.
         23    2    1    2    0    0 -0.17245974952E+03  0.32367332440E+02  0.21162967454E+03  0.29000664458E+03  0.92340269346E+02 0.  0.
          5    1    3    3  502    0  0.16790802854E+03 -0.66584562302E+02  0.18907821002E+03  0.26152371191E+03  0.41800000000E+01 0. -1.
         -5    1    3    3    0  502  0.45517209743E+01  0.34217229862E+02  0.33622108788E+02  0.48367918940E+02  0.41800000000E+01 0. -1.
        -11    1    4    4    0    0 -0.64542422191E+02  0.57105011499E+02  0.75805398523E+02  0.11477440937E+03  0.00000000000E+00 0. -1.
         11    1    4    4    0    0 -0.10791732733E+03 -0.24737679059E+02  0.13582427601E+03  0.17523223521E+03  0.00000000000E+00 0.  1.
</event>
<event>
 8    1  0.6965441E-009  0.1544383E+03  0.7561462E-02  0.1195123E+00
          3   -1    0    0  501    0  0.00000000000E+00  0.00000000000E+00  0.51310165830E+03  0.51310165830E+03  0.00000000000E+00 0. -1.
         -3   -1    0    0    0  501 -0.00000000000E+00 -0.00000000000E+00 -0.76323547515E+02  0.76323547515E+02  0.00000000000E+00 0.  1.
         25    2    1    2    0    0 -0.12971657105E+03  0.51704113778E+02  0.36290368208E+03  0.40846787669E+03  0.12508884696E+03 0.  0.
         23    2    1    2    0    0  0.12971657105E+03 -0.51704113778E+02  0.73874428703E+02  0.18095732912E+03  0.88252022983E+02 0.  0.
          5    1    3    3  502    0 -0.14478260394E+03  0.45509175216E+02  0.23709224443E+03  0.28153737266E+03  0.41800000000E+01 0.  1.
         -5    1    3    3    0  502  0.15066032891E+02  0.61949385619E+01  0.12581143765E+03  0.12693050403E+03  0.41800000000E+01 0.  1.
        -11    1    4    4    0    0  0.51413850842E+02 -0.27329124723E+02  0.79743736439E+02  0.98738688557E+02  0.00000000000E+00 0. -1.
         11    1    4    4    0    0  0.78302720208E+02 -0.24374989055E+02 -0.58693077360E+01  0.82218640567E+02  0.00000000000E+00 0.  1.
</event>
<event>
 8    1  0.6965441E-009  0.1471687E+03  0.7561462E-02  0.1203996E+00
         -2   -1    0    0    0  501 -0.00000000000E+00  0.00000000000E+00  0.29131766092E+02  0.29131766092E+02  0.00000000000E+00 0.  1.
          2   -1    0    0  501    0  0.00000000000E+00 -0.00000000000E+00 -0.93676027377E+03  0.93676027377E+03  0.00000000000E+00 0. -1.
         25    2    1    2    0    0  0.29061135892E+02 -0.11511109119E+03 -0.59537288981E+03  0.61984848150E+03  0.12509256240E+03 0.  0.
         23    2    1    2    0    0 -0.29061135892E+02  0.11511109119E+03 -0.31225561787E+03  0.34604355836E+03  0.90263284091E+02 0.  0.
          5    1    3    3  502    0 -0.59882696179E+01  0.16050747076E+02 -0.13165147411E+02  0.22006348199E+02  0.41800000000E+01 0.  1.
         -5    1    3    3    0  502  0.35049405510E+02 -0.13116183827E+03 -0.58220774240E+03  0.59784213330E+03  0.41800000000E+01 0.  1.
        -11    1    4    4    0    0 -0.44325336220E+02  0.27981520759E+02 -0.17560536596E+03  0.18326195865E+03  0.00000000000E+00 0. -1.
         11    1    4    4    0    0  0.15264200329E+02  0.87129570435E+02 -0.13665025191E+03  0.16278159970E+03  0.00000000000E+00 0.  1.
</event>
<event>
 8    1  0.6965441E-009  0.1191105E+03  0.7561462E-02  0.1244572E+00
          1   -1    0    0  501    0  0.00000000000E+00  0.00000000000E+00  0.19372373878E+02  0.19372373878E+02  0.00000000000E+00 0. -1.
         -1   -1    0    0    0  501 -0.00000000000E+00 -0.00000000000E+00 -0.85393747836E+03  0.85393747836E+03  0.00000000000E+00 0.  1.
         25    2    1    2    0    0 -0.51282090256E+02  0.13165429999E+02 -0.32132561027E+03  0.34885558247E+03  0.12508752246E+03 0.  0.
         23    2    1    2    0    0  0.51282090256E+02 -0.13165429999E+02 -0.51323949421E+03  0.52445426976E+03  0.93991070495E+02 0.  0.
          5    1    3    3  502    0 -0.66330041958E+02  0.56638304601E+02 -0.17791016870E+03  0.19818444071E+03  0.41800000000E+01 0.  1.
         -5    1    3    3    0  502  0.15047951703E+02 -0.43472874602E+02 -0.14341544158E+03  0.15067114176E+03  0.41800000000E+01 0.  1.
        -11    1    4    4    0    0 -0.21626007610E+02  0.15244031185E+02 -0.81682163088E+02  0.85860587342E+02  0.00000000000E+00 0.  1.
         11    1    4    4    0    0  0.72908097866E+02 -0.28409461184E+02 -0.43155733112E+03  0.43859368242E+03  0.00000000000E+00 0. -1.
</event>
<event>
 8    1  0.6965441E-009  0.1250067E+03  0.7561462E-02  0.1235059E+00
         -3   -1    0    0    0  501 -0.00000000000E+00  0.00000000000E+00  0.70314409819E+03  0.70314409819E+03  0.00000000000E+00 0.  1.
          3   -1    0    0  501    0  0.00000000000E+00 -0.00000000000E+00 -0.26976566539E+02  0.26976566539E+02  0.00000000000E+00 0. -1.
         25    2    1    2    0    0  0.57965731647E+02 -0.58838885067E+02  0.33100345556E+03  0.36336425766E+03  0.12509298825E+03 0.  0.
         23    2    1    2    0    0 -0.57965731647E+02  0.58838885067E+02  0.34516407609E+03  0.36675640707E+03  0.92466114136E+02 0.  0.
          5    1    3    3  502    0 -0.39137539497E+02 -0.12821084026E+02  0.11145282957E+03  0.11889210576E+03  0.41800000000E+01 0. -1.
         -5    1    3    3    0  502  0.97103271144E+02 -0.46017801041E+02  0.21955062599E+03  0.24447215190E+03  0.41800000000E+01 0. -1.
        -11    1    4    4    0    0 -0.51535311406E+02  0.10852369019E+02  0.28353237755E+03  0.28838216199E+03  0.00000000000E+00 0.  1.
         11    1    4    4    0    0 -0.64304202413E+01  0.47986516049E+02  0.61631698536E+02  0.78374245077E+02  0.00000000000E+00 0. -1.
</event>
<event>
 8    1  0.6965441E-009  0.1198747E+03  0.7561462E-02  0.1243304E+00
         -1   -1    0    0    0  501 -0.00000000000E+00  0.00000000000E+00  0.62577356820E+02  0.62577356820E+02  0.00000000000E+00 0.  1.
          1   -1    0    0  501    0  0.00000000000E+00 -0.00000000000E+00 -0.28318893675E+03  0.28318893675E+03  0.00000000000E+00 0. -1.
         25    2    1    2    0    0 -0.60853306617E+01  0.78459991282E+02 -0.11506869503E+03  0.18729894429E+03  0.12508832270E+03 0.  0.
         23    2    1    2    0    0  0.60853306617E+01 -0.78459991282E+02 -0.10554288490E+03  0.15846734928E+03  0.88202033727E+02 0.  0.
          5    1    3    3  502    0 -0.58170007690E+02  0.31012457302E+02 -0.91575060480E+02  0.11291140954E+03  0.41800000000E+01 0. -1.
         -5    1    3    3    0  502  0.52084677028E+02  0.47447533980E+02 -0.23493634553E+02  0.74387534752E+02  0.41800000000E+01 0. -1.
        -11    1    4    4    0    0 -0.24368798650E+02 -0.65742127746E+02 -0.10400200534E+03  0.12542839719E+03  0.00000000000E+00 0. -1.
         11    1    4    4    0    0  0.30454129312E+02 -0.12717863535E+02 -0.15408795601E+01  0.33038952085E+02  0.00000000000E+00 0.  1.
</event>
<event>
 8    1  0.6965441E-009  0.3894892E+03  0.7561462E-02  0.1047481E+00
          2   -1    0    0  501    0  0.00000000000E+00  0.00000000000E+00  0.43490668448E+03  0.43490668448E+03  0.00000000000E+00 0. -1.
         -2   -1    0    0    0  501 -0.00000000000E+00 -0.00000000000E+00 -0.37311212581E+03  0.37311212581E+03  0.00000000000E+00 0.  1.
         25    2    1    2    0    0  0.90566983825E+02 -0.37628825028E+03  0.23861309922E+02  0.40744365600E+03  0.12508295187E+03 0.  0.
         23    2    1    2    0    0 -0.90566983825E+02  0.37628825028E+03  0.37933248748E+02  0.40057515428E+03  0.96053615260E+02 0.  0.
          5    1    3    3  502    0  0.69255256539E+01 -0.15065100995E+03 -0.44413816783E+02  0.15726967039E+03  0.41800000000E+01 0.  1.
         -5    1    3    3    0  502  0.83641458172E+02 -0.22563724033E+03  0.68275126705E+02  0.25017398561E+03  0.41800000000E+01 0.  1.
        -11    1    4    4    0    0 -0.20625952108E+00  0.15497436897E+02  0.23763558401E+02  0.28371108566E+02  0.00000000000E+00 0. -1.
         11    1    4    4    0    0 -0.90360724304E+02  0.36079081338E+03  0.14169690346E+02  0.37220404571E+03  0.00000000000E+00 0.  1.
</event>
<event>
 8    1  0.6965441E-009  0.1730028E+03  0.7561462E-02  0.1174752E+00
         -2   -1    0    0    0  501 -0.00000000000E+00  0.00000000000E+00  0.16267879025E+02  0.16267879025E+02  0.00000000000E+00 0.  1.
          2   -1    0    0  501    0  0.00000000000E+00 -0.00000000000E+00 -0.22164696121E+04  0.22164696121E+04  0.00000000000E+00 0. -1.
         25    2    1    2    0    0  0.42127752638E+02  0.14902139077E+03 -0.12225909739E+04  0.12386922550E+04  0.12509073046E+03 0.  0.
         23    2    1    2    0    0 -0.42127752638E+02 -0.14902139077E+03 -0.97761075923E+03  0.99404523612E+03  0.91766074527E+02 0.  0.
          5    1    3    3  502    0 -0.12191514837E+02  0.63215511659E+02 -0.18100842567E+03  0.19216231813E+03  0.41800000000E+01 0. -1.
         -5    1    3    3    0  502  0.54319267475E+02  0.85805879107E+02 -0.10415825482E+04  0.10465299369E+04  0.41800000000E+01 0. -1.
        -11    1    4    4    0    0  0.23567714589E+02 -0.84665516595E+02 -0.49862373122E+03  0.50630950238E+03  0.00000000000E+00 0.  1.
         11    1    4    4    0    0 -0.65695467227E+02 -0.64355874171E+02 -0.47898702801E+03  0.48773573373E+03  0.00000000000E+00 0. -1.
</event>
<event>
 8    1  0.6965441E-009  0.7922030E+02  0.7561462E-02  0.1331279E+00
         -2   -1    0    0    0  501 -0.00000000000E+00  0.00000000000E+00  0.31601918309E+02  0.31601918309E+02  0.00000000000E+00 0.  1.
          2   -1    0    0  501    0  0.00000000000E+00 -0.00000000000E+00 -0.48021616277E+03  0.48021616277E+03  0.00000000000E+00 0. -1.
         25    2    1    2    0    0  0.52082775865E+02  0.22420274195E+02 -0.28283674555E+03  0.31442186219E+03  0.12509675677E+03 0.  0.
         23    2    1    2    0    0 -0.52082775865E+02 -0.22420274195E+02 -0.16577749892E+03  0.19739621889E+03  0.90927464762E+02 0.  0.
          5    1    3    3  502    0  0.15511481906E+02 -0.20048877336E+02  0.36870474679E+00  0.25693810472E+02  0.41800000000E+01 0. -1.
         -5    1    3    3    0  502  0.36571293958E+02  0.42469151532E+02 -0.28320545029E+03  0.28872805172E+03  0.41800000000E+01 0. -1.
        -11    1    4    4    0    0 -0.85013969822E-01  0.13404150834E+02  0.57722938242E+01  0.14594446305E+02  0.00000000000E+00 0.  1.
         11    1    4    4    0    0 -0.51997761895E+02 -0.35824425029E+02 -0.17154979274E+03  0.18280177259E+03  0.00000000000E+00 0. -1.
</event>
<event>
 8    1  0.6965441E-009  0.1027374E+03  0.7561462E-02  0.1274643E+00
          2   -1    0    0  501    0  0.00000000000E+00  0.00000000000E+00  0.14143044942E+03  0.14143044942E+03  0.00000000000E+00 0. -1.
         -2   -1    0    0    0  501 -0.00000000000E+00 -0.00000000000E+00 -0.10598336229E+03  0.10598336229E+03  0.00000000000E+00 0.  1.
         25    2    1    2    0    0 -0.24579410153E+02 -0.20272942274E+02  0.71000218929E+02  0.14732030503E+03  0.12508837513E+03 0.  0.
         23    2    1    2    0    0  0.24579410153E+02  0.20272942274E+02 -0.35553131794E+02  0.10009350668E+03  0.87974685602E+02 0.  0.
          5    1    3    3  502    0 -0.45174453944E+02  0.41793675571E+02  0.46947144712E+02  0.77517413550E+02  0.41800000000E+01 0.  1.
         -5    1    3    3    0  502  0.20595043791E+02 -0.62066617845E+02  0.24053074216E+02  0.69802891478E+02  0.41800000000E+01 0.  1.
        -11    1    4    4    0    0 -0.25347070437E+02  0.10245616260E+02 -0.40571512194E+02  0.48923350601E+02  0.00000000000E+00 0.  1.
         11    1    4    4    0    0  0.49926480590E+02  0.10027326014E+02  0.50183803999E+01  0.51170156077E+02  0.00000000000E+00 0. -1.
</event>
<event>
 8    1  0.6965441E-009  0.1469415E+03  0.7561462E-02  0.1204282E+00
         -1   -1    0    0    0  501 -0.00000000000E+00  0.00000000000E+00  0.95815673764E+02  0.95815673764E+02  0.00000000000E+00 0.  1.
          1   -1    0    0  501    0  0.00000000000E+00 -0.00000000000E+00 -0.30711190729E+03  0.30711190729E+03  0.00000000000E+00 0. -1.
         25    2    1    2    0    0 -0.15164571474E+02  0.12151026010E+03 -0.51375373724E+02  0.18243350610E+03  0.12509135696E+03 0.  0.
         23    2    1    2    0    0  0.15164571474E+02 -0.12151026010E+03 -0.15992085980E+03  0.22049407495E+03  0.89712029032E+02 0.  0.
          5    1    3    3  502    0  0.32485469361E+02  0.74192693874E+01  0.20511389406E+02  0.39351502808E+02  0.41800000000E+01 0.  1.
         -5    1    3    3    0  502 -0.47650040835E+02  0.11409099071E+03 -0.71886763130E+02  0.14308200329E+03  0.41800000000E+01 0.  1.
        -11    1    4    4    0    0 -0.12814034585E+02 -0.10121554361E+03 -0.68841954277E+02  0.12307721324E+03  0.00000000000E+00 0.  1.
         11    1    4    4    0    0  0.27978606059E+02 -0.20294716488E+02 -0.91078905525E+02  0.97416861713E+02  0.00000000000E+00 0. -1.
</event>
<event>
 7    1  0.6965441E-009  0.1169602E+03  0.7561462E-02  0.1248198E+00
         -1   -1    0    0    0  501 -0.00000000000E+00  0.00000000000E+00  0.15980324475E+03  0.15980324475E+03  0.00000000000E+00 0.  1.
          1   -1    0    0  501    0  0.00000000000E+00 -0.00000000000E+00 -0.13753988865E+03  0.13753988865E+03  0.00000000000E+00 0. -1.
         23    2    1    2    0    0 -0.16667759877E+02 -0.10055989581E+03  0.47882226245E+01  0.13497106688E+03  0.88341128326E+02 0.  0.
          5    1    1    2  502    0  0.11378597313E+02  0.83279736049E+02  0.68225507025E+02  0.10833826250E+03  0.41800000000E+01 0. -1.
         -5    1    1    2    0  502  0.52891625645E+01  0.17280159756E+02 -0.50750373549E+02  0.54033804023E+02  0.41800000000E+01 0. -1.
        -11    1    3    3    0    0  0.23920005399E+02 -0.12753141095E+01 -0.11343919358E+02  0.26504293818E+02  0.00000000000E+00 0. -1.
         11    1    3    3    0    0 -0.40587765277E+02 -0.99284581696E+02  0.16132141982E+02  0.10846677306E+03  0.00000000000E+00 0.  1.
</event>
<event>
 8    1  0.6965441E-009  0.9366507E+02  0.7561462E-02  0.1294211E+00
         -1   -1    0    0    0  501 -0.00000000000E+00  0.00000000000E+00  0.30783349677E+02  0.30783349677E+02  0.00000000000E+00 0.  1.
          1   -1    0    0  501    0  0.00000000000E+00 -0.00000000000E+00 -0.49606882960E+03  0.49606882960E+03  0.00000000000E+00 0. -1.
         25    2    1    2    0    0  0.41009097264E+02  0.22270018559E+02 -0.18223734254E+03  0.22590943047E+03  0.12508765716E+03 0.  0.
         23    2    1    2    0    0 -0.41009097264E+02 -0.22270018559E+02 -0.28304813738E+03  0.30094274880E+03  0.90953780564E+02 0.  0.
          5    1    3    3  502    0  0.20117457623E+02  0.56237526785E+02 -0.27184283624E+02  0.65755830132E+02  0.41800000000E+01 0. -1.
         -5    1    3    3    0  502  0.20891639641E+02 -0.33967508227E+02 -0.15505305892E+03  0.16015360034E+03  0.41800000000E+01 0. -1.
        -11    1    4    4    0    0 -0.43382406602E+02  0.18037490567E+02 -0.71357685661E+02  0.85435961816E+02  0.00000000000E+00 0.  1.
         11    1    4    4    0    0  0.23733093387E+01 -0.40307509126E+02 -0.21169045172E+03  0.21550678699E+03  0.00000000000E+00 0. -1.
</event>
<event>
 8    1  0.6965441E-009  0.1958313E+03  0.7561462E-02  0.1153305E+00
          1   -1    0    0  501    0  0.00000000000E+00  0.00000000000E+00  0.19414412053E+03  0.19414412053E+03  0.00000000000E+00 0. -1.
         -1   -1    0    0    0  501 -0.00000000000E+00 -0.00000000000E+00 -0.25098345598E+03  0.25098345598E+03  0.00000000000E+00 0.  1.
         25    2    1    2    0    0 -0.80037778780E+01 -0.18397109830E+03  0.27331773229E+02  0.22428318520E+03  0.12508595392E+03 0.  0.
         23    2    1    2    0    0  0.80037778780E+01  0.18397109830E+03 -0.84171108677E+02  0.22084439130E+03  0.88193220628E+02 0.  0.
          5    1    3    3  502    0 -0.24877949530E+02 -0.18204678761E+02 -0.34549144671E+02  0.46491273365E+02  0.41800000000E+01 0. -1.
         -5    1    3    3    0  502  0.16874171652E+02 -0.16576641953E+03  0.61880917900E+02  0.17779191184E+03  0.41800000000E+01 0. -1.
        -11    1    4    4    0    0  0.34390408931E+02  0.92905743227E+02 -0.77535806925E+02  0.12580134620E+03  0.00000000000E+00 0.  1.
         11    1    4    4    0    0 -0.26386631053E+02  0.91065355069E+02 -0.66353017520E+01  0.95043045098E+02  0.00000000000E+00 0. -1.
</event>
<event>
 8    1  0.6965441E-009  0.7999440E+02  0.7561462E-02  0.1329067E+00
          1   -1    0    0  501    0  0.00000000000E+00  0.00000000000E+00  0.95343894842E+02  0.95343894842E+02  0.00000000000E+00 0. -1.
         -1   -1    0    0    0  501 -0.00000000000E+00 -0.00000000000E+00 -0.14017727756E+03  0.14017727756E+03  0.00000000000E+00 0.  1.
         25    2    1    2    0    0  0.10385210985E+02  0.30861753906E+02 -0.15447154466E+01  0.12926683437E+03  0.12508887984E+03 0.  0.
         23    2    1    2    0    0 -0.10385210985E+02 -0.30861753906E+02 -0.43288667271E+02  0.10625433803E+03  0.91409929304E+02 0.  0.
          5    1    3    3  502    0 -0.12943182881E+01  0.49178576618E+02 -0.53498352822E+02  0.72799408052E+02  0.41800000000E+01 0.  1.
         -5    1    3    3    0  502  0.11679529273E+02 -0.18316822712E+02  0.51953637375E+02  0.56467426317E+02  0.41800000000E+01 0.  1.
        -11    1    4    4    0    0  0.34144282548E+02 -0.27492781315E+02  0.31810626396E+00  0.43838182522E+02  0.00000000000E+00 0.  1.
         11    1    4    4    0    0 -0.44529493534E+02 -0.33689725910E+01 -0.43606773535E+02  0.62416155511E+02  0.00000000000E+00 0. -1.
</event>
<event>
 8    1  0.6965441E-009  0.1059177E+03  0.7561462E-02  0.1268322E+00
          3   -1    0    0  501    0  0.00000000000E+00  0.00000000000E+00  0.10739216026E+03  0.10739216026E+03  0.00000000000E+00 0. -1.
         -3   -1    0    0    0  501 -0.00000000000E+00 -0.00000000000E+00 -0.11249370205E+03  0.11249370205E+03  0.00000000000E+00 0.  1.
         25    2    1    2    0    0 -0.21714905609E+02 -0.75751834622E+01 -0.14728036994E+02  0.12804902827E+03  0.12510282985E+03 0.  0.
         23    2    1    2    0    0  0.21714905609E+02  0.75751834622E+01  0.96264952059E+01  0.91836834042E+02  0.88387861988E+02 0.  0.
          5    1    3    3  502    0  0.80572426859E+01  0.53818183400E+02  0.97441055272E+01  0.55441284407E+02  0.41800000000E+01 0.  1.
         -5    1    3    3    0  502 -0.29772148295E+02 -0.61393366863E+02 -0.24472142522E+02  0.72607743860E+02  0.41800000000E+01 0.  1.
        -11    1    4    4    0    0  0.54487271671E+02 -0.26950019763E+01 -0.44174261400E+01  0.54732435205E+02  0.00000000000E+00 0.  1.
         11    1    4    4    0    0 -0.32772366062E+02  0.10270185438E+02  0.14043921346E+02  0.37104398837E+02  0.00000000000E+00 0. -1.
</event>
<event>
 8    1  0.6965441E-009  0.7314270E+02  0.7561462E-02  0.1349721E+00
         -1   -1    0    0    0  501 -0.00000000000E+00  0.00000000000E+00  0.91414313971E+02  0.91414313971E+02  0.00000000000E+00 0.  1.
          1   -1    0    0  501    0  0.00000000000E+00 -0.00000000000E+00 -0.13596615232E+03  0.13596615232E+03  0.00000000000E+00 0. -1.
         25    2    1    2    0    0  0.62845290923E+01  0.12570481818E+02 -0.30520193892E+02  0.12949326216E+03  0.12505802809E+03 0.  0.
         23    2    1    2    0    0 -0.62845290923E+01 -0.12570481818E+02 -0.14031644455E+02  0.97887204132E+02  0.95851475563E+02 0.  0.
          5    1    3    3  502    0 -0.24887594867E+02  0.44418390886E+02 -0.57748356442E+02  0.77102081029E+02  0.41800000000E+01 0. -1.
         -5    1    3    3    0  502  0.31172123960E+02 -0.31847909069E+02  0.27228162550E+02  0.52391181128E+02  0.41800000000E+01 0. -1.
        -11    1    4    4    0    0 -0.20073066628E+02 -0.24870999785E+02 -0.48904130853E+02  0.58421816547E+02  0.00000000000E+00 0. -1.
         11    1    4    4    0    0  0.13788537536E+02  0.12300517967E+02  0.34872486398E+02  0.39465387585E+02  0.00000000000E+00 0.  1.
</event>
<event>
 8    1  0.6965441E-009  0.9831213E+02  0.7561462E-02  0.1283886E+00
         -1   -1    0    0    0  501 -0.00000000000E+00  0.00000000000E+00  0.44517221484E+02  0.44517221484E+02  0.00000000000E+00 0.  1.
          1   -1    0    0  501    0  0.00000000000E+00 -0.00000000000E+00 -0.25351607515E+03  0.25351607515E+03  0.00000000000E+00 0. -1.
         25    2    1    2    0    0 -0.83476934020E+01 -0.16046653412E+02 -0.11728576071E+03  0.17242669285E+03  0.12509130934E+03 0.  0.
         23    2    1    2    0    0  0.83476934020E+01  0.16046653412E+02 -0.91713092961E+02  0.12560660378E+03  0.83896057255E+02 0.  0.
          5    1    3    3  502    0 -0.54917265296E+02  0.27140042796E+02 -0.70140776794E+02  0.93218500953E+02  0.41800000000E+01 0.  1.
         -5    1    3    3    0  502  0.46569571894E+02 -0.43186696208E+02 -0.47144983913E+02  0.79208191899E+02  0.41800000000E+01 0.  1.
        -11    1    4    4    0    0 -0.23030085907E+02 -0.14959063104E+02 -0.44400686778E+01  0.27818566385E+02  0.00000000000E+00 0.  1.
         11    1    4    4    0    0  0.31377779309E+02  0.31005716515E+02 -0.87273024283E+02  0.97788037400E+02  0.00000000000E+00 0. -1.
</event>
<event>
 8    1  0.6965441E-009  0.1005237E+03  0.7561462E-02  0.1279198E+00
          1   -1    0    0  501    0  0.00000000000E+00  0.00000000000E+00  0.47588920943E+02  0.47588920943E+02  0.00000000000E+00 0. -1.
         -1   -1    0    0    0  501 -0.00000000000E+00 -0.00000000000E+00 -0.45342699789E+03  0.45342699789E+03  0.00000000000E+00 0.  1.
         25    2    1    2    0    0 -0.21350148945E+02 -0.90743133499E+02 -0.27456112925E+03  0.31578662765E+03  0.12508890987E+03 0.  0.
         23    2    1    2    0    0  0.21350148945E+02  0.90743133499E+02 -0.13127694770E+03  0.18522929118E+03  0.91575696433E+02 0.  0.
          5    1    3    3  502    0 -0.15885413997E+02 -0.41364427363E+02 -0.26009378727E+03  0.26387423673E+03  0.41800000000E+01 0. -1.
         -5    1    3    3    0  502 -0.54647349481E+01 -0.49378706137E+02 -0.14467341972E+02  0.51912390925E+02  0.41800000000E+01 0.  1.
        -11    1    4    4    0    0  0.38609562585E+02  0.67055721408E+02 -0.35617657069E+02  0.85180899218E+02  0.00000000000E+00 0. -1.
         11    1    4    4    0    0 -0.17259413639E+02  0.23687412091E+02 -0.95659290628E+02  0.10004839196E+03  0.00000000000E+00 0.  1.
</event>
<event>
 8    1  0.6965441E-009  0.1238852E+03  0.7561462E-02  0.1236822E+00
         -1   -1    0    0    0  501 -0.00000000000E+00  0.00000000000E+00  0.18573790864E+03  0.18573790864E+03  0.00000000000E+00 0.  1.
          1   -1    0    0  501    0  0.00000000000E+00 -0.00000000000E+00 -0.13349360654E+03  0.13349360654E+03  0.00000000000E+00 0. -1.
         25    2    1    2    0    0 -0.67921195242E+02 -0.54892055050E+02 -0.48910238888E+02  0.16020945716E+03  0.12509369379E+03 0.  0.
         23    2    1    2    0    0  0.67921195242E+02  0.54892055050E+02  0.10115454098E+03  0.15902205801E+03  0.86193661615E+02 0.  0.
          5    1    3    3  502    0 -0.81427941031E+01 -0.84709482400E+02 -0.21439366481E+02  0.87858524569E+02  0.41800000000E+01 0.  1.
         -5    1    3    3    0  502 -0.59778401138E+02  0.29817427350E+02 -0.27470872407E+02  0.72350932594E+02  0.41800000000E+01 0.  1.
        -11    1    4    4    0    0  0.13593706642E+02 -0.52646986948E+01  0.71089110059E+02  0.72568364192E+02  0.00000000000E+00 0.  1.
         11    1    4    4    0    0  0.54327488599E+02  0.60156753745E+02  0.30065430924E+02  0.86453693821E+02  0.00000000000E+00 0. -1.
</event>
<event>
 8    1  0.6965441E-009  0.9993364E+02  0.7561462E-02  0.1280436E+00
          1   -1    0    0  501    0  0.00000000000E+00  0.00000000000E+00  0.10443595828E+03  0.10443595828E+03  0.00000000000E+00 0. -1.
         -1   -1    0    0    0  501 -0.00000000000E+00 -0.00000000000E+00 -0.13212109052E+03  0.13212109052E+03  0.00000000000E+00 0.  1.
         25    2    1    2    0    0 -0.47533229152E+01  0.21744077795E+02  0.22425943382E+02  0.12901028689E+03  0.12508130232E+03 0.  0.
         23    2    1    2    0    0  0.47533229152E+01 -0.21744077795E+02 -0.50111075618E+02  0.10754676190E+03  0.92519117472E+02 0.  0.
          5    1    3    3  502    0 -0.51201114839E+02  0.26930009422E+02 -0.24211676144E+02  0.62852662871E+02  0.41800000000E+01 0. -1.
         -5    1    3    3    0  502  0.46447791924E+02 -0.51859316264E+01  0.46637619526E+02  0.66157624024E+02  0.41800000000E+01 0. -1.
        -11    1    4    4    0    0 -0.39593972802E+02  0.94705195684E+01 -0.17914427376E+02  0.44478085967E+02  0.00000000000E+00 0.  1.
         11    1    4    4    0    0  0.44347295717E+02 -0.31214597364E+02 -0.32196648243E+02  0.63068675934E+02  0.00000000000E+00 0. -1.
</event>
<event>
 8    1  0.6965441E-009  0.1947471E+03  0.7561462E-02  0.1154248E+00
         -2   -1    0    0    0  501 -0.00000000000E+00  0.00000000000E+00  0.56042050013E+02  0.56042050013E+02  0.00000000000E+00 0.  1.
          2   -1    0    0  501    0  0.00000000000E+00 -0.00000000000E+00 -0.10242452820E+04  0.10242452820E+04  0.00000000000E+00 0. -1.
         25    2    1    2    0    0  0.13481950183E+03  0.10016628308E+03 -0.80191248459E+03  0.82880776350E+03  0.12509633707E+03 0.  0.
         23    2    1    2    0    0 -0.13481950183E+03 -0.10016628308E+03 -0.16629074738E+03  0.25147956850E+03  0.85905636414E+02 0.  0.
          5    1    3    3  502    0  0.19782719137E+02  0.81929592312E+02 -0.45728089178E+03  0.46500225856E+03  0.41800000000E+01 0. -1.
         -5    1    3    3    0  502  0.11503678270E+03  0.18236690771E+02 -0.34463159281E+03  0.36380550494E+03  0.41800000000E+01 0. -1.
        -11    1    4    4    0    0 -0.11765755112E+03 -0.37355973332E+02 -0.11260206983E+03  0.16708678646E+03  0.00000000000E+00 0. -1.
         11    1    4    4    0    0 -0.17161950710E+02 -0.62810309751E+02 -0.53688677550E+02  0.84392782039E+02  0.00000000000E+00 0.  1.
</event>
<event>
 8    1  0.6965441E-009  0.1980874E+03  0.7561462E-02  0.1151363E+00
         -2   -1    0    0    0  501 -0.00000000000E+00  0.00000000000E+00  0.51610678602E+02  0.51610678602E+02  0.00000000000E+00 0. -1.
          2   -1    0    0  501    0  0.00000000000E+00 -0.00000000000E+00 -0.86394895703E+03  0.86394895703E+03  0.00000000000E+00 0.  1.
         25    2    1    2    0    0 -0.16584160355E+03  0.71986484065E+02 -0.44102138406E+03  0.49277917368E+03  0.12508381777E+03 0.  0.
         23    2    1    2    0    0  0.16584160355E+03 -0.71986484065E+02 -0.37131689437E+03  0.42278046195E+03  0.90452150910E+02 0.  0.
          5    1    3    3  502    0 -0.26546074180E+02  0.70465779898E+02 -0.10755030910E+03  0.13135700050E+03  0.41800000000E+01 0. -1.
         -5    1    3    3    0  502 -0.13929552937E+03  0.15207041675E+01 -0.33347107495E+03  0.36142217319E+03  0.41800000000E+01 0. -1.
        -11    1    4    4    0    0  0.93743066017E+02 -0.32685963026E+02 -0.10682218231E+03  0.14583248348E+03  0.00000000000E+00 0. -1.
         11    1    4    4    0    0  0.72098537529E+02 -0.39300521040E+02 -0.26449471206E+03  0.27694797847E+03  0.00000000000E+00 0.  1.
</event>
<event>
 8    1  0.6965441E-009  0.1195973E+03  0.7561462E-02  0.1243763E+00
          2   -1    0    0  501    0  0.00000000000E+00  0.00000000000E+00  0.15063488089E+03  0.15063488089E+03  0.00000000000E+00 0.  1.
         -2   -1    0    0    0  501 -0.00000000000E+00 -0.00000000000E+00 -0.12433339457E+03  0.12433339457E+03  0.00000000000E+00 0. -1.
         25    2    1    2    0    0  0.12051824268E+02 -0.81722413902E+02  0.18114702468E+02  0.15099705112E+03  0.12509263608E+03 0.  0.
         23    2    1    2    0    0 -0.12051824268E+02  0.81722413902E+02  0.81867838432E+01  0.12397122434E+03  0.92076281591E+02 0.  0.
          5    1    3    3  502    0 -0.45697975748E+02 -0.36998686081E+02  0.43820630788E+02  0.73450172511E+02  0.41800000000E+01 0. -1.
         -5    1    3    3    0  502  0.57749800016E+02 -0.44723727821E+02 -0.25705928319E+02  0.77546878614E+02  0.41800000000E+01 0. -1.
        -11    1    4    4    0    0  0.50450487791E+01  0.88537242393E+02  0.31642073683E+02  0.94156872477E+02  0.00000000000E+00 0.  1.
         11    1    4    4    0    0 -0.17096873047E+02 -0.68148284908E+01 -0.23455289840E+02  0.29814351859E+02  0.00000000000E+00 0. -1.
</event>
<event>
 8    1  0.6965441E-009  0.2097890E+03  0.7561462E-02  0.1141733E+00
          1   -1    0    0  501    0  0.00000000000E+00  0.00000000000E+00  0.64131181465E+03  0.64131181465E+03  0.00000000000E+00 0.  1.
         -1   -1    0    0    0  501 -0.00000000000E+00 -0.00000000000E+00 -0.87345849778E+02  0.87345849778E+02  0.00000000000E+00 0. -1.
         25    2    1    2    0    0  0.16322993192E+03  0.12040012210E+03  0.35246227005E+03  0.42546401794E+03  0.12509907543E+03 0.  0.
         23    2    1    2    0    0 -0.16322993192E+03 -0.12040012210E+03  0.20150369482E+03  0.30319364649E+03  0.10090811747E+03 0.  0.
          5    1    3    3  502    0  0.11470291574E+03  0.10565863617E+03  0.14898081076E+03  0.21571569403E+03  0.41800000000E+01 0.  1.
         -5    1    3    3    0  502  0.48527016183E+02  0.14741485929E+02  0.20348145929E+03  0.20974832391E+03  0.41800000000E+01 0.  1.
        -11    1    4    4    0    0 -0.77842158090E+02 -0.19014745682E+02  0.28067293308E+02  0.84904270111E+02  0.00000000000E+00 0.  1.
         11    1    4    4    0    0 -0.85387773829E+02 -0.10138537642E+03  0.17343640151E+03  0.21828937638E+03  0.00000000000E+00 0. -1.
</event>
<event>
 8    1  0.6965441E-009  0.7090832E+02  0.7561462E-02  0.1357031E+00
         -1   -1    0    0    0  501 -0.00000000000E+00  0.00000000000E+00  0.14821725023E+03  0.14821725023E+03  0.00000000000E+00 0.  1.
          1   -1    0    0  501    0  0.00000000000E+00 -0.00000000000E+00 -0.95445251548E+02  0.95445251548E+02  0.00000000000E+00 0. -1.
         25    2    1    2    0    0 -0.49603422020E+02  0.76647307008E+01  0.28863024767E+02  0.13784241055E+03  0.12509279905E+03 0.  0.
         23    2    1    2    0    0  0.49603422020E+02 -0.76647307008E+01  0.23908973915E+02  0.10582009123E+03  0.90038908817E+02 0.  0.
          5    1    3    3  502    0 -0.11497663997E+00  0.10645744993E+02  0.71444757121E+02  0.72354480346E+02  0.41800000000E+01 0. -1.
         -5    1    3    3    0  502 -0.49488445380E+02 -0.29810142920E+01 -0.42581732354E+02  0.65487930205E+02  0.41800000000E+01 0. -1.
        -11    1    4    4    0    0 -0.14820550656E+02  0.35313325853E+01  0.36208985548E+02  0.39283707386E+02  0.00000000000E+00 0.  1.
         11    1    4    4    0    0  0.64423972676E+02 -0.11196063286E+02 -0.12300011633E+02  0.66536383841E+02  0.00000000000E+00 0. -1.
</event>
<event>
 8    1  0.6965441E-009  0.1071816E+03  0.7561462E-02  0.1265880E+00
          1   -1    0    0  501    0  0.00000000000E+00  0.00000000000E+00  0.28457608253E+03  0.28457608253E+03  0.00000000000E+00 0. -1.
         -1   -1    0    0    0  501 -0.00000000000E+00 -0.00000000000E+00 -0.56027242180E+02  0.56027242180E+02  0.00000000000E+00 0.  1.
         25    2    1    2    0    0 -0.41991846756E+02  0.48710160940E+02  0.12514679943E+03  0.18826932630E+03  0.12509045864E+03 0.  0.
         23    2    1    2    0    0  0.41991846756E+02 -0.48710160940E+02  0.10340204091E+03  0.15233399841E+03  0.91529612877E+02 0.  0.
          5    1    3    3  502    0  0.35849958484E+02  0.22747102075E+02  0.88614962587E+02  0.98350059331E+02  0.41800000000E+01 0. -1.
         -5    1    3    3    0  502 -0.77841805239E+02  0.25963058865E+02  0.36531836847E+02  0.89919266967E+02  0.41800000000E+01 0. -1.
        -11    1    4    4    0    0  0.13174603106E+02 -0.57829066441E+02  0.18371232198E+02  0.62090846869E+02  0.00000000000E+00 0.  1.
         11    1    4    4    0    0  0.28817243649E+02  0.91189055013E+01  0.85030808715E+02  0.90243151540E+02  0.00000000000E+00 0. -1.
</event>
<event>
 8    1  0.6965441E-009  0.1464744E+03  0.7561462E-02  0.1204873E+00
         -1   -1    0    0    0  501 -0.00000000000E+00  0.00000000000E+00  0.25925751362E+02  0.25925751362E+02  0.00000000000E+00 0.  1.
          1   -1    0    0  501    0  0.00000000000E+00 -0.00000000000E+00 -0.15023667773E+04  0.15023667773E+04  0.00000000000E+00 0. -1.
         25    2    1    2    0    0  0.13284643988E+03  0.63200854055E+01 -0.11515184595E+04  0.11659030066E+04  0.12508772245E+03 0.  0.
         23    2    1    2    0    0 -0.13284643988E+03 -0.63200854055E+01 -0.32492256650E+03  0.36238952206E+03  0.89796277262E+02 0.  0.
          5    1    3    3  502    0  0.14609025446E+02  0.35037596651E+02 -0.59494457015E+03  0.59616907900E+03  0.41800000000E+01 0. -1.
         -5    1    3    3    0  502  0.11823741444E+03 -0.28717511246E+02 -0.55657388931E+03  0.56973392763E+03  0.41800000000E+01 0. -1.
        -11    1    4    4    0    0 -0.53203274331E+02 -0.15584893160E+01 -0.24014329167E+03  0.24597117275E+03  0.00000000000E+00 0. -1.
         11    1    4    4    0    0 -0.79643165550E+02 -0.47615960895E+01 -0.84779274828E+02  0.11641834931E+03  0.00000000000E+00 0.  1.
</event>
<event>
 8    1  0.6965441E-009  0.1140694E+03  0.7561462E-02  0.1253214E+00
          2   -1    0    0  501    0  0.00000000000E+00  0.00000000000E+00  0.28192594307E+03  0.28192594307E+03  0.00000000000E+00 0. -1.
         -2   -1    0    0    0  501 -0.00000000000E+00 -0.00000000000E+00 -0.78538655043E+02  0.78538655043E+02  0.00000000000E+00 0.  1.
         25    2    1    2    0    0 -0.36857007306E+02  0.93412497561E+02  0.10638166817E+03  0.19248292044E+03  0.12509309194E+03 0.  0.
         23    2    1    2    0    0  0.36857007306E+02 -0.93412497561E+02  0.97005619862E+02  0.16798167767E+03  0.93399250856E+02 0.  0.
          5    1    3    3  502    0 -0.21896650877E+02  0.34360936456E+02  0.12263690495E+03  0.12929586277E+03  0.41800000000E+01 0.  1.
         -5    1    3    3    0  502 -0.14960356429E+02  0.59051561106E+02 -0.16255236789E+02  0.63187057667E+02  0.41800000000E+01 0.  1.
        -11    1    4    4    0    0 -0.22503610280E+02 -0.12420244315E+02 -0.34615391565E+01  0.25935635674E+02  0.00000000000E+00 0.  1.
         11    1    4    4    0    0  0.59360617586E+02 -0.80992253247E+02  0.10046715902E+03  0.14204604200E+03  0.00000000000E+00 0. -1.
</event>
<event>
 8    1  0.6965441E-009  0.1638504E+03  0.7561462E-02  0.1184417E+00
          2   -1    0    0  501    0  0.00000000000E+00  0.00000000000E+00  0.24319192267E+04  0.24319192267E+04  0.00000000000E+00 0. -1.
         -2   -1    0    0    0  501 -0.00000000000E+00 -0.00000000000E+00 -0.12304570069E+02  0.12304570069E+02  0.00000000000E+00 0.  1.
         25    2    1    2    0    0 -0.24672487974E+02 -0.13054663355E+03  0.15463481758E+04  0.15570776286E+04  0.12508759078E+03 0.  0.
         23    2    1    2    0    0  0.24672487974E+02  0.13054663355E+03  0.87326648079E+03  0.88714616817E+03  0.82357889917E+02 0.  0.
          5    1    3    3  502    0  0.42332261343E+02 -0.36939831042E+02  0.79015989362E+03  0.79216582945E+03  0.41800000000E+01 0.  1.
         -5    1    3    3    0  502 -0.67004749317E+02 -0.93606802505E+02  0.75618828223E+03  0.76491179915E+03  0.41800000000E+01 0.  1.
        -11    1    4    4    0    0 -0.29376245040E+02  0.64143173178E+02  0.37561621546E+03  0.38218431646E+03  0.00000000000E+00 0.  1.
         11    1    4    4    0    0  0.54048733014E+02  0.66403460369E+02  0.49765026534E+03  0.50496185171E+03  0.00000000000E+00 0. -1.
</event>
<event>
 8    1  0.6965441E-009  0.9243755E+02  0.7561462E-02  0.1297054E+00
          4   -1    0    0  501    0  0.00000000000E+00  0.00000000000E+00  0.16816629205E+03  0.16816629205E+03  0.00000000000E+00 0. -1.
         -4   -1    0    0    0  501 -0.00000000000E+00 -0.00000000000E+00 -0.96296238962E+02  0.96296238962E+02  0.00000000000E+00 0.  1.
         25    2    1    2    0    0 -0.44452894236E+02 -0.12209233251E+02 -0.64522382769E+01  0.13346993756E+03  0.12508983840E+03 0.  0.
         23    2    1    2    0    0  0.44452894236E+02  0.12209233251E+02  0.78322291362E+02  0.13099259345E+03  0.94337442371E+02 0.  0.
          5    1    3    3  502    0  0.26732190621E+02 -0.14027152396E+02  0.38540505209E+02  0.49134651332E+02  0.41800000000E+01 0.  1.
         -5    1    3    3    0  502 -0.71185084857E+02  0.18179191455E+01 -0.44992743486E+02  0.84335286224E+02  0.41800000000E+01 0.  1.
        -11    1    4    4    0    0 -0.14573777005E+02 -0.12381469522E+02 -0.10291457416E+02  0.21716580290E+02  0.00000000000E+00 0.  1.
         11    1    4    4    0    0  0.59026671241E+02  0.24590702772E+02  0.88613748778E+02  0.10927601316E+03  0.00000000000E+00 0. -1.
</event>
<event>
 8    1  0.6965441E-009  0.1381787E+03  0.7561462E-02  0.1215801E+00
         -4   -1    0    0    0  501 -0.00000000000E+00  0.00000000000E+00  0.12670005800E+03  0.12670005800E+03  0.00000000000E+00 0.  1.
          4   -1    0    0  501    0  0.00000000000E+00 -0.00000000000E+00 -0.18124387658E+03  0.18124387658E+03  0.00000000000E+00 0. -1.
         25    2    1    2    0    0  0.41200239745E+01  0.87297994194E+02 -0.89376042827E+02  0.17684314253E+03  0.12508999017E+03 0.  0.
         23    2    1    2    0    0 -0.41200239745E+01 -0.87297994194E+02  0.34832224245E+02  0.13110079205E+03  0.91302899416E+02 0.  0.
          5    1    3    3  502    0  0.63693224277E+02  0.49837392884E+02 -0.58391863865E+02  0.99838242743E+02  0.41800000000E+01 0. -1.
         -5    1    3    3    0  502 -0.59573200303E+02  0.37460601310E+02 -0.30984178961E+02  0.77004899784E+02  0.41800000000E+01 0. -1.
        -11    1    4    4    0    0 -0.45698956801E+02 -0.58804561222E+02  0.10776714044E+02  0.75249642117E+02  0.00000000000E+00 0.  1.
         11    1    4    4    0    0  0.41578932826E+02 -0.28493432973E+02  0.24055510201E+02  0.55851149930E+02  0.00000000000E+00 0. -1.
</event>
<event>
 8    1  0.6965441E-009  0.1839149E+03  0.7561462E-02  0.1164067E+00
         -2   -1    0    0    0  501 -0.00000000000E+00  0.00000000000E+00  0.55778450829E+02  0.55778450829E+02  0.00000000000E+00 0.  1.
          2   -1    0    0  501    0  0.00000000000E+00 -0.00000000000E+00 -0.98268335053E+03  0.98268335053E+03  0.00000000000E+00 0. -1.
         25    2    1    2    0    0  0.73878269026E+02 -0.14144939891E+03 -0.77187163198E+03  0.79805926534E+03  0.12508734406E+03 0.  0.
         23    2    1    2    0    0 -0.73878269026E+02  0.14144939891E+03 -0.15503326772E+03  0.24040253603E+03  0.91061156054E+02 0.  0.
          5    1    3    3  502    0  0.99285301063E+02 -0.13182431655E+03 -0.54292439569E+03  0.56746770241E+03  0.41800000000E+01 0.  1.
         -5    1    3    3    0  502 -0.25407032038E+02 -0.96250823566E+01 -0.22894723629E+03  0.23059156293E+03  0.41800000000E+01 0.  1.
        -11    1    4    4    0    0  0.11202159788E+02  0.46215033577E+02 -0.77735343668E+02  0.91126842191E+02  0.00000000000E+00 0. -1.
         11    1    4    4    0    0 -0.85080428814E+02  0.95234365330E+02 -0.77297924053E+02  0.14927569383E+03  0.00000000000E+00 0.  1.
</event>
<event>
 8    1  0.6965441E-009  0.8745640E+02  0.7561462E-02  0.1309131E+00
         -1   -1    0    0    0  501 -0.00000000000E+00  0.00000000000E+00  0.62325525140E+02  0.62325525140E+02  0.00000000000E+00 0.  1.
          1   -1    0    0  501    0  0.00000000000E+00 -0.00000000000E+00 -0.34977152448E+03  0.34977152448E+03  0.00000000000E+00 0. -1.
         25    2    1    2    0    0  0.71565940659E+01  0.64683979068E+02 -0.26461050002E+03  0.29983571962E+03  0.12508999982E+03 0.  0.
         23    2    1    2    0    0 -0.71565940659E+01 -0.64683979068E+02 -0.22835499327E+02  0.11226133000E+03  0.88577153928E+02 0.  0.
          5    1    3    3  502    0  0.36345021642E+02  0.39305810868E+02 -0.25385600110E+03  0.25947302183E+03  0.41800000000E+01 0.  1.
         -5    1    3    3    0  502 -0.29188427576E+02  0.25378168200E+02 -0.10754498918E+02  0.40362697786E+02  0.41800000000E+01 0.  1.
        -11    1    4    4    0    0 -0.21802855007E+02 -0.64042179939E+02  0.17049699131E+02  0.69767166620E+02  0.00000000000E+00 0.  1.
         11    1    4    4    0    0  0.14646260941E+02 -0.64179912931E+00 -0.39885198457E+02  0.42494163383E+02  0.00000000000E+00 0. -1.
</event>
<event>
 8    1  0.6965441E-009  0.1296271E+03  0.7561462E-02  0.1228010E+00
         -2   -1    0    0    0  501 -0.00000000000E+00  0.00000000000E+00  0.43998196974E+02  0.43998196974E+02  0.00000000000E+00 0.  1.
          2   -1    0    0  501    0  0.00000000000E+00 -0.00000000000E+00 -0.68685337172E+03  0.68685337172E+03  0.00000000000E+00 0. -1.
         25    2    1    2    0    0  0.88206693121E+02  0.90646812645E+02 -0.43740185994E+03  0.47219165251E+03  0.12508918524E+03 0.  0.
         23    2    1    2    0    0 -0.88206693121E+02 -0.90646812645E+02 -0.20545331481E+03  0.25865991619E+03  0.93255682523E+02 0.  0.
          5    1    3    3  502    0  0.71758308789E+02  0.52834777282E+02 -0.41616982134E+03  0.42562373191E+03  0.41800000000E+01 0.  1.
         -5    1    3    3    0  502  0.16448384332E+02  0.37812035363E+02 -0.21232038595E+02  0.46567920592E+02  0.41800000000E+01 0.  1.
        -11    1    4    4    0    0 -0.27450258122E+02 -0.44577177704E+02 -0.16340512002E+03  0.17158634762E+03  0.00000000000E+00 0. -1.
         11    1    4    4    0    0 -0.60756434999E+02 -0.46069634940E+02 -0.42048194790E+02  0.87073568564E+02  0.00000000000E+00 0.  1.
</event>
<event>
 8    1  0.6965441E-009  0.1375248E+03  0.7561462E-02  0.1216699E+00
         -3   -1    0    0    0  501 -0.00000000000E+00  0.00000000000E+00  0.66190195056E+03  0.66190195056E+03  0.00000000000E+00 0.  1.
          3   -1    0    0  501    0  0.00000000000E+00 -0.00000000000E+00 -0.35332946392E+02  0.35332946392E+02  0.00000000000E+00 0. -1.
         25    2    1    2    0    0 -0.14114087113E+01 -0.98008845535E+02  0.43288254064E+03  0.46113303260E+03  0.12509457976E+03 0.  0.
         23    2    1    2    0    0  0.14114087113E+01  0.98008845535E+02  0.19368646353E+03  0.23610186435E+03  0.92854285415E+02 0.  0.
          5    1    3    3  502    0  0.42135685427E+02 -0.57814532060E+01  0.54689301980E+02  0.69406291780E+02  0.41800000000E+01 0.  1.
         -5    1    3    3    0  502 -0.43547094139E+02 -0.92227392329E+02  0.37819323866E+03  0.39172674082E+03  0.41800000000E+01 0.  1.
        -11    1    4    4    0    0 -0.32107851017E+02  0.90306397112E+02  0.16708138341E+03  0.19261969821E+03  0.00000000000E+00 0. -1.
         11    1    4    4    0    0  0.33519259728E+02  0.77024484236E+01  0.26605080113E+02  0.43482166140E+02  0.00000000000E+00 0.  1.
</event>
<event>
 8    1  0.6965441E-009  0.1566943E+03  0.7561462E-02  0.1192480E+00
          4   -1    0    0  501    0  0.00000000000E+00  0.00000000000E+00  0.19262347519E+03  0.19262347519E+03  0.00000000000E+00 0. -1.
         -4   -1    0    0    0  501 -0.00000000000E+00 -0.00000000000E+00 -0.15246962545E+03  0.15246962545E+03  0.00000000000E+00 0.  1.
         25    2    1    2    0    0 -0.12958512742E+03 -0.21748201084E+02  0.43478735287E+02  0.18655048397E+03  0.12508154600E+03 0.  0.
         23    2    1    2    0    0  0.12958512742E+03  0.21748201084E+02 -0.33248855429E+01  0.15854261667E+03  0.88653352661E+02 0.  0.
          5    1    3    3  502    0 -0.62603738031E+02  0.49785496100E+02  0.37059741905E+02  0.88253728008E+02  0.41800000000E+01 0. -1.
         -5    1    3    3    0  502 -0.66981389390E+02 -0.71533697183E+02  0.64189933824E+01  0.98296755966E+02  0.41800000000E+01 0. -1.
        -11    1    4    4    0    0  0.65441868829E+02  0.27118988654E+02 -0.43059222088E+02  0.82898578687E+02  0.00000000000E+00 0.  1.
         11    1    4    4    0    0  0.64143258592E+02 -0.53707875703E+01  0.39734336545E+02  0.75644037984E+02  0.00000000000E+00 0. -1.
</event>
<event>
 7    1  0.6965441E-009  0.2330948E+03  0.7561462E-02  0.1124480E+00
          1   -1    0    0  501    0  0.00000000000E+00  0.00000000000E+00  0.42660179312E+03  0.42660179312E+03  0.00000000000E+00 0. -1.
         -1   -1    0    0    0  501 -0.00000000000E+00 -0.00000000000E+00 -0.17715265830E+03  0.17715265830E+03  0.00000000000E+00 0.  1.
         23    2    1    2    0    0  0.19362736652E+03  0.10485568979E+03  0.25749240043E+03  0.35097196073E+03  0.91611725198E+02 0.  0.
          5    1    1    2  502    0 -0.82120410335E+02 -0.77663785644E+02  0.50504939930E+02  0.12386947466E+03  0.41800000000E+01 0.  1.
         -5    1    1    2    0  502 -0.11150695619E+03 -0.27191904145E+02 -0.58548205538E+02  0.12891301603E+03  0.41800000000E+01 0.  1.
        -11    1    3    3    0    0  0.16606459141E+03  0.44564273924E+02  0.17837170875E+03  0.24774965088E+03  0.00000000000E+00 0.  1.
         11    1    3    3    0    0  0.27562775116E+02  0.60291415866E+02  0.79120691678E+02  0.10322230985E+03  0.00000000000E+00 0. -1.
</event>
<event>
 8    1  0.6965441E-009  0.6935642E+02  0.7561462E-02  0.1362295E+00
         -1   -1    0    0    0  501 -0.00000000000E+00  0.00000000000E+00  0.27234811748E+03  0.27234811748E+03  0.00000000000E+00 0.  1.
          1   -1    0    0  501    0  0.00000000000E+00 -0.00000000000E+00 -0.55155093301E+02  0.55155093301E+02  0.00000000000E+00 0. -1.
         25    2    1    2    0    0 -0.21726790458E+02  0.40832725029E+02  0.75848723897E+02  0.15342839262E+03  0.12509147807E+03 0.  0.
         23    2    1    2    0    0  0.21726790458E+02 -0.40832725029E+02  0.14134430028E+03  0.17407481816E+03  0.90468039882E+02 0.  0.
          5    1    3    3  502    0 -0.31491744412E+02  0.35000648084E+02  0.10863586178E+03  0.11847361815E+03  0.41800000000E+01 0. -1.
         -5    1    3    3    0  502  0.97649539544E+01  0.58320769445E+01 -0.32787137885E+02  0.34954774465E+02  0.41800000000E+01 0. -1.
        -11    1    4    4    0    0 -0.10418548190E+02 -0.45649251667E+02  0.24603894706E+02  0.52893779964E+02  0.00000000000E+00 0. -1.
         11    1    4    4    0    0  0.32145338648E+02  0.48165266381E+01  0.11674040557E+03  0.12118103820E+03  0.00000000000E+00 0.  1.
</event>
<event>
 8    1  0.6965441E-009  0.1134683E+03  0.7561462E-02  0.1254279E+00
         -2   -1    0    0    0  501 -0.00000000000E+00  0.00000000000E+00  0.23461152252E+02  0.23461152252E+02  0.00000000000E+00 0.  1.
          2   -1    0    0  501    0  0.00000000000E+00 -0.00000000000E+00 -0.72802870637E+03  0.72802870637E+03  0.00000000000E+00 0. -1.
         25    2    1    2    0    0 -0.47772286823E+01  0.70404688183E+02 -0.43462384788E+03  0.45774147417E+03  0.12509886490E+03 0.  0.
         23    2    1    2    0    0  0.47772286823E+01 -0.70404688183E+02 -0.26994370623E+03  0.29374838445E+03  0.91863304954E+02 0.  0.
          5    1    3    3  502    0 -0.60651833147E+01 -0.19868852478E+02 -0.96869294776E+01  0.23299501071E+02  0.41800000000E+01 0. -1.
         -5    1    3    3    0  502  0.12879546324E+01  0.90273540661E+02 -0.42493691840E+03  0.43444197310E+03  0.41800000000E+01 0. -1.
        -11    1    4    4    0    0 -0.41315696284E+02 -0.16618983895E+02 -0.11734203440E+03  0.12550828826E+03  0.00000000000E+00 0.  1.
         11    1    4    4    0    0  0.46092924966E+02 -0.53785704288E+02 -0.15260167183E+03  0.16824009619E+03  0.00000000000E+00 0. -1.
</event>
<event>
 8    1  0.6965441E-009  0.1286969E+03  0.7561462E-02  0.1229402E+00
         -1   -1    0    0    0  501 -0.00000000000E+00  0.00000000000E+00  0.43450084194E+02  0.43450084194E+02  0.00000000000E+00 0.  1.
          1   -1    0    0  501    0  0.00000000000E+00 -0.00000000000E+00 -0.45445172756E+03  0.45445172756E+03  0.00000000000E+00 0. -1.
         25    2    1    2    0    0 -0.54460029935E+01 -0.76836026368E+02 -0.30793127988E+03  0.34117876280E+03  0.12509133126E+03 0.  0.
         23    2    1    2    0    0  0.54460029935E+01  0.76836026368E+02 -0.10307036348E+03  0.15672304895E+03  0.89471673440E+02 0.  0.
          5    1    3    3  502    0 -0.59557036287E+02 -0.70304925532E+02 -0.19493436155E+03  0.21565412317E+03  0.41800000000E+01 0.  1.
         -5    1    3    3    0  502  0.54111033293E+02 -0.65311008351E+01 -0.11299691833E+03  0.12552463963E+03  0.41800000000E+01 0.  1.
        -11    1    4    4    0    0 -0.27894506374E+02  0.12961367950E+01 -0.47427234963E+01  0.28324492627E+02  0.00000000000E+00 0. -1.
         11    1    4    4    0    0  0.33340509367E+02  0.75539889573E+02 -0.98327639981E+02  0.12839855632E+03  0.00000000000E+00 0.  1.
</event>
<event>
 8    1  0.6965441E-009  0.1001699E+03  0.7561462E-02  0.1279939E+00
         -1   -1    0    0    0  501 -0.00000000000E+00  0.00000000000E+00  0.10514253588E+03  0.10514253588E+03  0.00000000000E+00 0.  1.
          1   -1    0    0  501    0  0.00000000000E+00 -0.00000000000E+00 -0.16116247938E+03  0.16116247938E+03  0.00000000000E+00 0. -1.
         25    2    1    2    0    0  0.52549938137E+02 -0.14097910468E+02  0.16513168833E+02  0.13740699575E+03  0.12509096953E+03 0.  0.
         23    2    1    2    0    0 -0.52549938137E+02  0.14097910468E+02 -0.72533112333E+02  0.12889801951E+03  0.91615500712E+02 0.  0.
          5    1    3    3  502    0  0.47465084105E+02 -0.45214096358E+02 -0.36826113998E+02  0.75305270670E+02  0.41800000000E+01 0. -1.
         -5    1    3    3    0  502  0.50848540317E+01  0.31116185890E+02  0.53339282831E+02  0.62101725079E+02  0.41800000000E+01 0. -1.
        -11    1    4    4    0    0  0.24028907541E+02 -0.34758466798E+01 -0.39341116865E+01  0.24595673248E+02  0.00000000000E+00 0.  1.
         11    1    4    4    0    0 -0.76578845678E+02  0.17573757148E+02 -0.68599000647E+02  0.10430234626E+03  0.00000000000E+00 0. -1.
</event>
<event>
 8    1  0.6965441E-009  0.2407026E+03  0.7561462E-02  0.1119326E+00
         -2   -1    0    0    0  501 -0.00000000000E+00  0.00000000000E+00  0.92750185627E+02  0.92750185627E+02  0.00000000000E+00 0.  1.
          2   -1    0    0  501    0  0.00000000000E+00 -0.00000000000E+00 -0.92142477109E+03  0.92142477109E+03  0.00000000000E+00 0. -1.
         25    2    1    2    0    0  0.16839983924E+03  0.16092630799E+03 -0.18512309226E+03  0.32275285296E+03  0.12507222851E+03 0.  0.
         23    2    1    2    0    0 -0.16839983924E+03 -0.16092630799E+03 -0.64355149320E+03  0.69142210376E+03  0.98235526671E+02 0.  0.
          5    1    3    3  502    0  0.92501155936E+02  0.70830621310E+02 -0.16673490636E+03  0.20344886867E+03  0.41800000000E+01 0. -1.
         -5    1    3    3    0  502  0.75898683307E+02  0.90095686685E+02 -0.18388185904E+02  0.11930398429E+03  0.41800000000E+01 0. -1.
        -11    1    4    4    0    0 -0.21212901120E+02 -0.71823617632E+02 -0.26921923731E+03  0.27944161638E+03  0.00000000000E+00 0.  1.
         11    1    4    4    0    0 -0.14718693812E+03 -0.89102690362E+02 -0.37433225589E+03  0.41198048738E+03  0.00000000000E+00 0. -1.
</event>
<event>
 8    1  0.6965441E-009  0.1155231E+03  0.7561462E-02  0.1250671E+00
          2   -1    0    0  501    0  0.00000000000E+00  0.00000000000E+00  0.26930425218E+03  0.26930425218E+03  0.00000000000E+00 0. -1.
         -2   -1    0    0    0  501 -0.00000000000E+00 -0.00000000000E+00 -0.74622556866E+02  0.74622556866E+02  0.00000000000E+00 0.  1.
         25    2    1    2    0    0 -0.69912922793E+02  0.46456561292E+02  0.14762519190E+03  0.21091836693E+03  0.12508929355E+03 0.  0.
         23    2    1    2    0    0  0.69912922793E+02 -0.46456561292E+02  0.47056503408E+02  0.13300844212E+03  0.91819945005E+02 0.  0.
          5    1    3    3  502    0 -0.44010854384E+02 -0.10475326930E+02  0.14069616506E+03  0.14784982598E+03  0.41800000000E+01 0.  1.
         -5    1    3    3    0  502 -0.25902068409E+02  0.56931888222E+02  0.69290268392E+01  0.63068540948E+02  0.41800000000E+01 0.  1.
        -11    1    4    4    0    0  0.27101182255E+01 -0.55103096749E+02  0.11001352474E+02  0.56255895410E+02  0.00000000000E+00 0. -1.
         11    1    4    4    0    0  0.67202804567E+02  0.86465354567E+01  0.36055150933E+02  0.76752546707E+02  0.00000000000E+00 0.  1.
</event>
<event>
 8    1  0.6965441E-009  0.7548686E+02  0.7561462E-02  0.1342370E+00
          2   -1    0    0  501    0  0.00000000000E+00  0.00000000000E+00  0.25457531356E+03  0.25457531356E+03  0.00000000000E+00 0.  1.
         -2   -1    0    0    0  501 -0.00000000000E+00 -0.00000000000E+00 -0.51693345452E+02  0.51693345452E+02  0.00000000000E+00 0. -1.
         25    2    1    2    0    0 -0.36242150382E+02 -0.11762403022E+02  0.12452169520E+03  0.18056107877E+03  0.12507918693E+03 0.  0.
         23    2    1    2    0    0  0.36242150382E+02  0.11762403022E+02  0.78360272916E+02  0.12570758024E+03  0.90610240978E+02 0.  0.
          5    1    3    3  502    0  0.21854331174E+02 -0.33454950605E+02  0.10946875770E+03  0.11660929133E+03  0.41800000000E+01 0.  1.
         -5    1    3    3    0  502 -0.58096481557E+02  0.21692547583E+02  0.15052937492E+02  0.63951787442E+02  0.41800000000E+01 0.  1.
        -11    1    4    4    0    0  0.18211111188E+02  0.21477072444E+02 -0.13757933864E+02  0.31339909950E+02  0.00000000000E+00 0. -1.
         11    1    4    4    0    0  0.18031039194E+02 -0.97146694216E+01  0.92118206780E+02  0.94367670294E+02  0.00000000000E+00 0.  1.
</event>
<event>
 8    1  0.6965441E-009  0.1048228E+03  0.7561462E-02  0.1270469E+00
         -1   -1    0    0    0  501 -0.00000000000E+00  0.00000000000E+00  0.68659708439E+02  0.68659708439E+02  0.00000000000E+00 0.  1.
          1   -1    0    0  501    0  0.00000000000E+00 -0.00000000000E+00 -0.27441901891E+03  0.27441901891E+03  0.00000000000E+00 0. -1.
         25    2    1    2    0    0 -0.73364439426E+02 -0.27361328199E+02 -0.71033726981E+02  0.16378207377E+03  0.12509114304E+03 0.  0.
         23    2    1    2    0    0  0.73364439426E+02  0.27361328199E+02 -0.13472558349E+03  0.17929665358E+03  0.88686661260E+02 0.  0.
          5    1    3    3  502    0 -0.84488010554E+02  0.11839929160E+02 -0.85001235484E+02  0.12050348660E+03  0.41800000000E+01 0. -1.
         -5    1    3    3    0  502  0.11123571128E+02 -0.39201257358E+02  0.13967508503E+02  0.43278587164E+02  0.41800000000E+01 0. -1.
        -11    1    4    4    0    0  0.48912784967E+01  0.12187781590E+02  0.11285148325E+02  0.17315345741E+02  0.00000000000E+00 0.  1.
         11    1    4    4    0    0  0.68473160929E+02  0.15173546609E+02 -0.14601073181E+03  0.16198130784E+03  0.00000000000E+00 0. -1.
</event>
<event>
 8    1  0.6965441E-009  0.1238675E+03  0.7561462E-02  0.1236850E+00
         -1   -1    0    0    0  501 -0.00000000000E+00  0.00000000000E+00  0.10724780776E+04  0.10724780776E+04  0.00000000000E+00 0.  1.
          1   -1    0    0  501    0  0.00000000000E+00 -0.00000000000E+00 -0.21928845898E+02  0.21928845898E+02  0.00000000000E+00 0. -1.
         25    2    1    2    0    0 -0.52637464698E+02 -0.96244492337E+02  0.56430526029E+03  0.58832083012E+03  0.12508903774E+03 0.  0.
         23    2    1    2    0    0  0.52637464698E+02  0.96244492337E+02  0.48624397144E+03  0.50608609341E+03  0.87499881065E+02 0.  0.
          5    1    3    3  502    0  0.21775272632E+02 -0.24331091975E+02  0.31565007402E+02  0.45606870394E+02  0.41800000000E+01 0.  1.
         -5    1    3    3    0  502 -0.74412737331E+02 -0.71913400362E+02  0.53274025289E+03  0.54271395972E+03  0.41800000000E+01 0.  1.
        -11    1    4    4    0    0  0.19371851180E+01  0.17415222778E+02  0.89486977400E+01  0.19675412622E+02  0.00000000000E+00 0. -1.
         11    1    4    4    0    0  0.50700279580E+02  0.78829269559E+02  0.47729527370E+03  0.48641068078E+03  0.00000000000E+00 0.  1.
</event>
<event>
 8    1  0.6965441E-009  0.2316542E+03  0.7561462E-02  0.1125481E+00
         -1   -1    0    0    0  501 -0.00000000000E+00  0.00000000000E+00  0.30804465104E+03  0.30804465104E+03  0.00000000000E+00 0.  1.
          1   -1    0    0  501    0  0.00000000000E+00 -0.00000000000E+00 -0.24391020368E+03  0.24391020368E+03  0.00000000000E+00 0. -1.
         25    2    1    2    0    0  0.14247497430E+03  0.16982594055E+03  0.15161084595E+03  0.29626816115E+03  0.12509598841E+03 0.  0.
         23    2    1    2    0    0 -0.14247497430E+03 -0.16982594055E+03 -0.87476398583E+02  0.25568669357E+03  0.92647701398E+02 0.  0.
          5    1    3    3  502    0  0.78355522234E+02  0.69901402996E+02  0.18430662708E+01  0.10510310794E+03  0.41800000000E+01 0.  1.
         -5    1    3    3    0  502  0.64119452069E+02  0.99924537558E+02  0.14976777968E+03  0.19116505321E+03  0.41800000000E+01 0.  1.
        -11    1    4    4    0    0 -0.13285427295E+03 -0.93421396375E+02 -0.49266477622E+02  0.16972036106E+03  0.00000000000E+00 0. -1.
         11    1    4    4    0    0 -0.96207013521E+01 -0.76404544179E+02 -0.38209920962E+02  0.85966332512E+02  0.00000000000E+00 0.  1.
</event>
<event>
 8    1  0.6965441E-009  0.1154295E+03  0.7561462E-02  0.1250833E+00
          1   -1    0    0  501    0  0.00000000000E+00  0.00000000000E+00  0.29249217844E+03  0.29249217844E+03  0.00000000000E+00 0. -1.
         -1   -1    0    0    0  501 -0.00000000000E+00 -0.00000000000E+00 -0.57579947574E+02  0.57579947574E+02  0.00000000000E+00 0.  1.
         25    2    1    2    0    0 -0.49264466904E+01 -0.69949827987E+02  0.12105774416E+03  0.18766707179E+03  0.12508678627E+03 0.  0.
         23    2    1    2    0    0  0.49264466904E+01  0.69949827987E+02  0.11385448671E+03  0.16240505423E+03  0.92170001532E+02 0.  0.
          5    1    3    3  502    0 -0.37607675349E+02 -0.74579597258E+02  0.26971662373E+02  0.87871477417E+02  0.41800000000E+01 0. -1.
         -5    1    3    3    0  502  0.32681228659E+02  0.46297692703E+01  0.94086081788E+02  0.99795594373E+02  0.41800000000E+01 0. -1.
        -11    1    4    4    0    0  0.33452257110E+02 -0.49441656917E+01  0.21255388464E+02  0.39941079340E+02  0.00000000000E+00 0.  1.
         11    1    4    4    0    0 -0.28525810419E+02  0.74893993679E+02  0.92599098243E+02  0.12246397489E+03  0.00000000000E+00 0. -1.
</event>
<event>
 7    1  0.6965441E-009  0.1226511E+03  0.7561462E-02  0.1238787E+00
         -2   -1    0    0    0  501 -0.00000000000E+00  0.00000000000E+00  0.12071195899E+03  0.12071195899E+03  0.00000000000E+00 0.  1.
          2   -1    0    0  501    0  0.00000000000E+00 -0.00000000000E+00 -0.21585934462E+03  0.21585934462E+03  0.00000000000E+00 0. -1.
         25    2    1    2    0    0  0.73095370830E+02  0.50374566855E+02  0.49527472377E+02  0.16118820265E+03  0.12509250949E+03 0.  0.
          5    1    3    3  502    0 -0.12383800300E+02 -0.27755024193E+02  0.31397953197E+02  0.43897650766E+02  0.41800000000E+01 0. -1.
         -5    1    3    3    0  502  0.85479171130E+02  0.78129591049E+02  0.18129519180E+02  0.11729055188E+03  0.41800000000E+01 0. -1.
        -11    1    1    2    0    0 -0.12036230776E+01 -0.21075416215E+02 -0.37689981421E+02  0.43199034442E+02  0.00000000000E+00 0.  1.
         11    1    1    2    0    0 -0.71891747753E+02 -0.29299150640E+02 -0.10698487658E+03  0.13218406652E+03  0.00000000000E+00 0. -1.
</event>
<event>
 8    1  0.6965441E-009  0.1704342E+03  0.7561462E-02  0.1177396E+00
         -1   -1    0    0    0  501 -0.00000000000E+00  0.00000000000E+00  0.79913136047E+03  0.79913136047E+03  0.00000000000E+00 0.  1.
          1   -1    0    0  501    0  0.00000000000E+00 -0.00000000000E+00 -0.44487681480E+02  0.44487681480E+02  0.00000000000E+00 0. -1.
         25    2    1    2    0    0  0.11631120403E+03 -0.67753240229E+02  0.23722182840E+03  0.30006639483E+03  0.12508736025E+03 0.  0.
         23    2    1    2    0    0 -0.11631120403E+03  0.67753240229E+02  0.51742185059E+03  0.54355264712E+03  0.98006688429E+02 0.  0.
          5    1    3    3  502    0  0.10387291187E+03  0.67784117150E+01  0.16698625077E+03  0.19681821316E+03  0.41800000000E+01 0.  1.
         -5    1    3    3    0  502  0.12438292157E+02 -0.74531651944E+02  0.70235577630E+02  0.10324818167E+03  0.41800000000E+01 0.  1.
        -11    1    4    4    0    0 -0.44068542991E+02  0.76456593471E+02  0.21304251815E+03  0.23059653446E+03  0.00000000000E+00 0. -1.
         11    1    4    4    0    0 -0.72242661036E+02 -0.87033532429E+01  0.30437933244E+03  0.31295611266E+03  0.00000000000E+00 0.  1.
</event>
<event>
 8    1  0.6965441E-009  0.1358648E+03  0.7561462E-02  0.1219004E+00
          1   -1    0    0  501    0  0.00000000000E+00  0.00000000000E+00  0.14067282034E+04  0.14067282034E+04  0.00000000000E+00 0. -1.
         -1   -1    0    0    0  501 -0.00000000000E+00 -0.00000000000E+00 -0.15846523425E+02  0.15846523425E+02  0.00000000000E+00 0.  1.
         25    2    1    2    0    0  0.95453992358E+02  0.16998223732E+02  0.67310790339E+03  0.69146282968E+03  0.12508473510E+03 0.  0.
         23    2    1    2    0    0 -0.95453992358E+02 -0.16998223732E+02  0.71777377657E+03  0.73111189713E+03  0.99624332007E+02 0.  0.
          5    1    3    3  502    0  0.67235341190E+02  0.56114362285E+02  0.23738068557E+03  0.25305429268E+03  0.41800000000E+01 0. -1.
         -5    1    3    3    0  502  0.28218651168E+02 -0.39116138553E+02  0.43572721782E+03  0.43840853701E+03  0.41800000000E+01 0. -1.
        -11    1    4    4    0    0 -0.10500149118E+03 -0.38720842844E+02  0.64290609777E+03  0.65257403210E+03  0.00000000000E+00 0. -1.
         11    1    4    4    0    0  0.95474988208E+01  0.21722619112E+02  0.74867678795E+02  0.78537865027E+02  0.00000000000E+00 0.  1.
</event>
<event>
 8    1  0.6965441E-009  0.1496302E+03  0.7561462E-02  0.1200928E+00
         -1   -1    0    0    0  501 -0.00000000000E+00  0.00000000000E+00  0.67958646209E+02  0.67958646209E+02  0.00000000000E+00 0.  1.
          1   -1    0    0  501    0  0.00000000000E+00 -0.00000000000E+00 -0.55094322964E+03  0.55094322964E+03  0.00000000000E+00 0. -1.
         25    2    1    2    0    0  0.35396971989E+02 -0.12150514557E+03 -0.96239996849E+02  0.20230225100E+03  0.12509043824E+03 0.  0.
         23    2    1    2    0    0 -0.35396971989E+02  0.12150514557E+03 -0.38674458658E+03  0.41659962485E+03  0.89260439998E+02 0.  0.
          5    1    3    3  502    0 -0.43388686968E+02 -0.39930928687E+02 -0.57284386508E+02  0.82316648135E+02  0.41800000000E+01 0.  1.
         -5    1    3    3    0  502  0.78785658956E+02 -0.81574216883E+02 -0.38955610341E+02  0.11998560286E+03  0.41800000000E+01 0.  1.
        -11    1    4    4    0    0 -0.10275910078E+02  0.44063761782E+02 -0.39893106763E+02  0.60321384247E+02  0.00000000000E+00 0.  1.
         11    1    4    4    0    0 -0.25121061911E+02  0.77441383789E+02 -0.34685147981E+03  0.35627824060E+03  0.00000000000E+00 0. -1.
</event>
<event>
 8    1  0.6965441E-009  0.1066781E+03  0.7561462E-02  0.1266848E+00
          1   -1    0    0  501    0  0.00000000000E+00  0.00000000000E+00  0.20986026681E+03  0.20986026681E+03  0.00000000000E+00 0. -1.
         -1   -1    0    0    0  501 -0.00000000000E+00 -0.00000000000E+00 -0.63503405095E+02  0.63503405095E+02  0.00000000000E+00 0.  1.
         25    2    1    2    0    0  0.33883014646E+02 -0.77581682520E+01  0.49688058800E+02  0.13901404145E+03  0.12509097760E+03 0.  0.
         23    2    1    2    0    0 -0.33883014646E+02  0.77581682520E+01  0.96668802914E+02  0.13434963046E+03  0.86583589038E+02 0.  0.
          5    1    3    3  502    0 -0.29833112804E+02  0.34087085764E+02  0.42633161797E+02  0.62345833222E+02  0.41800000000E+01 0. -1.
         -5    1    3    3    0  502  0.63716127450E+02 -0.41845254015E+02  0.70548970032E+01  0.76668208226E+02  0.41800000000E+01 0. -1.
        -11    1    4    4    0    0 -0.37735849139E+02 -0.33273550063E+02  0.39968639014E+02  0.64254303737E+02  0.00000000000E+00 0.  1.
         11    1    4    4    0    0  0.38528344933E+01  0.41031718315E+02  0.56700163901E+02  0.70095326719E+02  0.00000000000E+00 0. -1.
</event>
<event>
 8    1  0.6965441E-009  0.1045828E+03  0.7561462E-02  0.1270944E+00
         -2   -1    0    0    0  501 -0.00000000000E+00  0.00000000000E+00  0.22569279462E+02  0.22569279462E+02  0.00000000000E+00 0.  1.
          2   -1    0    0  501    0  0.00000000000E+00 -0.00000000000E+00 -0.10838903508E+04  0.10838903508E+04  0.00000000000E+00 0. -1.
         25    2    1    2    0    0 -0.47386282658E+02  0.19225952774E+02 -0.92684851388E+03  0.93664848032E+03  0.12508841262E+03 0.  0.
         23    2    1    2    0    0  0.47386282658E+02 -0.19225952774E+02 -0.13447255744E+03  0.16981114992E+03  0.90210093052E+02 0.  0.
          5    1    3    3  502    0  0.26314934087E+02 -0.23529612958E+02 -0.11598734663E+03  0.12131222288E+03  0.41800000000E+01 0.  1.
         -5    1    3    3    0  502 -0.73701216745E+02  0.42755565732E+02 -0.81086116725E+03  0.81533625744E+03  0.41800000000E+01 0.  1.
        -11    1    4    4    0    0  0.50577155524E+02  0.15917719912E+02 -0.33182251001E+02  0.62549854113E+02  0.00000000000E+00 0.  1.
         11    1    4    4    0    0 -0.31908728660E+01 -0.35143672686E+02 -0.10129030644E+03  0.10726129581E+03  0.00000000000E+00 0. -1.
</event>
<event>
 8    1  0.6965441E-009  0.1008582E+03  0.7561462E-02  0.1278502E+00
          2   -1    0    0  501    0  0.00000000000E+00  0.00000000000E+00  0.55130787632E+03  0.55130787632E+03  0.00000000000E+00 0. -1.
         -2   -1    0    0    0  501 -0.00000000000E+00 -0.00000000000E+00 -0.31527438844E+02  0.31527438844E+02  0.00000000000E+00 0.  1.
         25    2    1    2    0    0  0.52113447979E+02 -0.45121896158E+02  0.35609372675E+03  0.38366501924E+03  0.12507720728E+03 0.  0.
         23    2    1    2    0    0 -0.52113447979E+02  0.45121896158E+02  0.16368671072E+03  0.19917029592E+03  0.90131407058E+02 0.  0.
          5    1    3    3  502    0  0.49109037438E+02 -0.61970719552E+02  0.35733612257E+03  0.36600361273E+03  0.41800000000E+01 0.  1.
         -5    1    3    3    0  502  0.30044105407E+01  0.16848823394E+02 -0.12423958144E+01  0.17661406508E+02  0.41800000000E+01 0.  1.
        -11    1    4    4    0    0 -0.56953696555E+02 -0.25409849422E+01  0.50108484567E+02  0.75901517649E+02  0.00000000000E+00 0.  1.
         11    1    4    4    0    0  0.48402485763E+01  0.47662881100E+02  0.11357822615E+03  0.12326877827E+03  0.00000000000E+00 0. -1.
</event>
<event>
 8    1  0.6965441E-009  0.9845600E+02  0.7561462E-02  0.1283577E+00
         -2   -1    0    0    0  501 -0.00000000000E+00  0.00000000000E+00  0.69883213968E+02  0.69883213968E+02  0.00000000000E+00 0. -1.
          2   -1    0    0  501    0  0.00000000000E+00 -0.00000000000E+00 -0.22324302947E+03  0.22324302947E+03  0.00000000000E+00 0.  1.
         25    2    1    2    0    0 -0.37724268911E+02 -0.51725508168E+02 -0.89893185854E+02  0.16681196646E+03  0.12508716413E+03 0.  0.
         23    2    1    2    0    0  0.37724268911E+02  0.51725508168E+02 -0.63466629648E+02  0.12631427698E+03  0.88479572953E+02 0.  0.
          5    1    3    3  502    0 -0.16279482928E+01  0.36765524823E+02 -0.52171542678E+02  0.63981999786E+02  0.41800000000E+01 0.  1.
         -5    1    3    3    0  502 -0.36096320618E+02 -0.88491032991E+02 -0.37721643176E+02  0.10282996667E+03  0.41800000000E+01 0.  1.
        -11    1    4    4    0    0  0.28668259777E+02  0.42666525859E+02  0.94640240636E+01  0.52267287083E+02  0.00000000000E+00 0. -1.
         11    1    4    4    0    0  0.90560091334E+01  0.90589823088E+01 -0.72930653712E+02  0.74046989897E+02  0.00000000000E+00 0.  1.
</event>
<event>
 8    1  0.6965441E-009  0.1462402E+03  0.7561462E-02  0.1205171E+00
          2   -1    0    0  501    0  0.00000000000E+00  0.00000000000E+00  0.13824336618E+04  0.13824336618E+04  0.00000000000E+00 0.  1.
         -2   -1    0    0    0  501 -0.00000000000E+00 -0.00000000000E+00 -0.21858815343E+02  0.21858815343E+02  0.00000000000E+00 0. -1.
         25    2    1    2    0    0 -0.91063478272E+02  0.87557302799E+02  0.91872659679E+03  0.93576939794E+03  0.12508784166E+03 0.  0.
         23    2    1    2    0    0  0.91063478272E+02 -0.87557302799E+02  0.44184824966E+03  0.46852307919E+03  0.91242323838E+02 0.  0.
          5    1    3    3  502    0  0.46680562770E+01 -0.16888712597E+01  0.42269497579E+03  0.42274479062E+03  0.41800000000E+01 0. -1.
         -5    1    3    3    0  502 -0.95731534549E+02  0.89246174058E+02  0.49603162100E+03  0.51302460732E+03  0.41800000000E+01 0. -1.
        -11    1    4    4    0    0  0.10837145883E+03 -0.64154884438E+02  0.33906403836E+03  0.36169689575E+03  0.00000000000E+00 0.  1.
         11    1    4    4    0    0 -0.17307980559E+02 -0.23402418361E+02  0.10278421130E+03  0.10682618344E+03  0.00000000000E+00 0. -1.
</event>
<event>
 8    1  0.6965441E-009  0.8308724E+02  0.7561462E-02  0.1320512E+00
         -3   -1    0    0    0  501 -0.00000000000E+00  0.00000000000E+00  0.55245581910E+02  0.55245581910E+02  0.00000000000E+00 0.  1.
          3   -1    0    0  501    0  0.00000000000E+00 -0.00000000000E+00 -0.22056878681E+03  0.22056878681E+03  0.00000000000E+00 0. -1.
         25    2    1    2    0    0  0.10485153838E+02 -0.50286963544E+01 -0.11716943965E+03  0.17179003528E+03  0.12509161600E+03 0.  0.
         23    2    1    2    0    0 -0.10485153838E+02  0.50286963544E+01 -0.48153765252E+02  0.10402433344E+03  0.91471583581E+02 0.  0.
          5    1    3    3  502    0  0.58384670112E+02 -0.11210693577E+02 -0.19423802775E+02  0.62683377931E+02  0.41800000000E+01 0.  1.
         -5    1    3    3    0  502 -0.47899516274E+02  0.61819972231E+01 -0.97745636876E+02  0.10910665735E+03  0.41800000000E+01 0.  1.
        -11    1    4    4    0    0  0.15365021429E+02  0.22248618185E+02 -0.63765362095E+02  0.69261145657E+02  0.00000000000E+00 0. -1.
         11    1    4    4    0    0 -0.25850175267E+02 -0.17219921831E+02  0.15611596843E+02  0.34763187788E+02  0.00000000000E+00 0.  1.
</event>
<event>
 8    1  0.6965441E-009  0.1289948E+03  0.7561462E-02  0.1228955E+00
         -3   -1    0    0    0  501 -0.00000000000E+00  0.00000000000E+00  0.47588934750E+02  0.47588934750E+02  0.00000000000E+00 0. -1.
          3   -1    0    0  501    0  0.00000000000E+00 -0.00000000000E+00 -0.49536421204E+03  0.49536421204E+03  0.00000000000E+00 0.  1.
         25    2    1    2    0    0  0.10302228208E+03  0.29924888746E+02 -0.26537961773E+03  0.31237946498E+03  0.12508196938E+03 0.  0.
         23    2    1    2    0    0 -0.10302228208E+03 -0.29924888746E+02 -0.18239565956E+03  0.23057368181E+03  0.91580328386E+02 0.  0.
          5    1    3    3  502    0  0.36460032774E+02  0.39590711495E+02 -0.23003214390E+03  0.23628164985E+03  0.41800000000E+01 0.  1.
         -5    1    3    3    0  502  0.66562249303E+02 -0.96658227491E+01 -0.35347473828E+02  0.76097815131E+02  0.41800000000E+01 0.  1.
        -11    1    4    4    0    0 -0.89680311824E+01 -0.40947357682E+02 -0.31540820570E+02  0.52458889110E+02  0.00000000000E+00 0.  1.
         11    1    4    4    0    0 -0.94054250894E+02  0.11022468936E+02 -0.15085483899E+03  0.17811479270E+03  0.00000000000E+00 0. -1.
</event>
<event>
 8    1  0.6965441E-009  0.1026504E+03  0.7561462E-02  0.1274819E+00
          1   -1    0    0  501    0  0.00000000000E+00  0.00000000000E+00  0.10585900447E+03  0.10585900447E+03  0.00000000000E+00 0. -1.
         -1   -1    0    0    0  501 -0.00000000000E+00 -0.00000000000E+00 -0.21632795857E+03  0.21632795857E+03  0.00000000000E+00 0.  1.
         25    2    1    2    0    0 -0.50902285074E+01  0.26131177010E+02 -0.15988483919E+03  0.20474111557E+03  0.12508802406E+03 0.  0.
         23    2    1    2    0    0  0.50902285074E+01 -0.26131177010E+02  0.49415885098E+02  0.11744584747E+03  0.10316418250E+03 0.  0.
          5    1    3    3  502    0  0.54835199083E+02  0.13904510183E+02 -0.37906543294E+02  0.68224723425E+02  0.41800000000E+01 0.  1.
         -5    1    3    3    0  502 -0.59925427590E+02  0.12226666828E+02 -0.12197829590E+03  0.13651639215E+03  0.41800000000E+01 0.  1.
        -11    1    4    4    0    0 -0.22120165777E+02 -0.47681630639E+02  0.61306798115E+02  0.80754957306E+02  0.00000000000E+00 0.  1.
         11    1    4    4    0    0  0.27210394284E+02  0.21550453629E+02 -0.11890913017E+02  0.36690890165E+02  0.00000000000E+00 0. -1.
</event>
<event>
 8    1  0.6965441E-009  0.1145990E+03  0.7561462E-02  0.1252283E+00
         -4   -1    0    0    0  501 -0.00000000000E+00  0.00000000000E+00  0.78895779044E+02  0.78895779044E+02  0.00000000000E+00 0.  1.
          4   -1    0    0  501    0  0.00000000000E+00 -0.00000000000E+00 -0.23414869615E+03  0.23414869615E+03  0.00000000000E+00 0. -1.
         25    2    1    2    0    0 -0.44300953640E+02  0.62411476171E+02 -0.50531282691E+02  0.15510306835E+03  0.12508311009E+03 0.  0.
         23    2    1    2    0    0  0.44300953640E+02 -0.62411476171E+02 -0.10472163441E+03  0.15794140684E+03  0.90117148361E+02 0.  0.
          5    1    3    3  502    0  0.16921049648E+02 -0.17088517867E+02 -0.48908889162E+02  0.54661606298E+02  0.41800000000E+01 0.  1.
         -5    1    3    3    0  502 -0.61222003289E+02  0.79499994038E+02 -0.16223935294E+01  0.10044146205E+03  0.41800000000E+01 0.  1.
        -11    1    4    4    0    0 -0.13354811700E+02 -0.40560939720E+02 -0.81586776197E+02  0.92086605306E+02  0.00000000000E+00 0. -1.
         11    1    4    4    0    0  0.57655765340E+02 -0.21850536451E+02 -0.23134858214E+02  0.65854801531E+02  0.00000000000E+00 0.  1.
</event>
<event>
 8    1  0.6965441E-009  0.1124507E+03  0.7561462E-02  0.1256098E+00
         -1   -1    0    0    0  501 -0.00000000000E+00  0.00000000000E+00  0.47823413540E+02  0.47823413540E+02  0.00000000000E+00 0.  1.
          1   -1    0    0  501    0  0.00000000000E+00 -0.00000000000E+00 -0.59266488775E+03  0.59266488775E+03  0.00000000000E+00 0. -1.
         25    2    1    2    0    0  0.41533133807E+02  0.54868244132E+02 -0.49597447494E+03  0.51611485212E+03  0.12509330665E+03 0.  0.
         23    2    1    2    0    0 -0.41533133807E+02 -0.54868244132E+02 -0.48866999272E+02  0.12437344917E+03  0.91352317011E+02 0.  0.
          5    1    3    3  502    0  0.68478853966E+02  0.53487642916E+02 -0.47146856115E+03  0.47942711431E+03  0.41800000000E+01 0.  1.
         -5    1    3    3    0  502 -0.26945720159E+02  0.13806012157E+01 -0.24505913786E+02  0.36687737803E+02  0.41800000000E+01 0.  1.
        -11    1    4    4    0    0  0.27242097538E+02 -0.16579310131E+02 -0.32095775907E+00  0.31892137222E+02  0.00000000000E+00 0. -1.
         11    1    4    4    0    0 -0.68775231345E+02 -0.38288934000E+02 -0.48546041513E+02  0.92481311950E+02  0.00000000000E+00 0.  1.
</event>
<event>
 8    1  0.6965441E-009  0.9632385E+02  0.7561462E-02  0.1288222E+00
          2   -1    0    0  501    0  0.00000000000E+00  0.00000000000E+00  0.39446324367E+03  0.39446324367E+03  0.00000000000E+00 0.  1.
         -2   -1    0    0    0  501 -0.00000000000E+00 -0.00000000000E+00 -0.37112037000E+02  0.37112037000E+02  0.00000000000E+00 0. -1.
         25    2    1    2    0    0  0.47036621398E+02 -0.25906136240E+02  0.17619264947E+03  0.22265339344E+03  0.12508841768E+03 0.  0.
         23    2    1    2    0    0 -0.47036621398E+02  0.25906136240E+02  0.18115855720E+03  0.20892188722E+03  0.89142360676E+02 0.  0.
          5    1    3    3  502    0  0.27688535961E+02  0.25857984936E+02  0.16062981655E+03  0.16508997781E+03  0.41800000000E+01 0. -1.
         -5    1    3    3    0  502  0.19348085437E+02 -0.51764121176E+02  0.15562832919E+02  0.57563415636E+02  0.41800000000E+01 0. -1.
        -11    1    4    4    0    0 -0.69689351352E+02  0.78219845895E+01  0.95431149381E+02  0.11842674279E+03  0.00000000000E+00 0. -1.
         11    1    4    4    0    0  0.22652729954E+02  0.18084151651E+02  0.85727407821E+02  0.90495144439E+02  0.00000000000E+00 0.  1.
</event>
<event>
 8    1  0.6965441E-009  0.1076710E+03  0.7561462E-02  0.1264945E+00
          4   -1    0    0  501    0  0.00000000000E+00  0.00000000000E+00  0.10331794553E+03  0.10331794553E+03  0.00000000000E+00 0. -1.
         -4   -1    0    0    0  501 -0.00000000000E+00 -0.00000000000E+00 -0.12391515097E+03  0.12391515097E+03  0.00000000000E+00 0.  1.
         25    2    1    2    0    0 -0.13890954594E+02  0.25907407905E+02 -0.49132380446E+01  0.12859342577E+03  0.12509187359E+03 0.  0.
         23    2    1    2    0    0  0.13890954594E+02 -0.25907407905E+02 -0.15683967399E+02  0.98639670738E+02  0.92842045464E+02 0.  0.
          5    1    3    3  502    0 -0.56780342338E+02  0.52630404652E+02  0.10305855544E+01  0.77540320327E+02  0.41800000000E+01 0. -1.
         -5    1    3    3    0  502  0.42889387744E+02 -0.26722996747E+02 -0.59438235989E+01  0.51053105441E+02  0.41800000000E+01 0. -1.
        -11    1    4    4    0    0  0.13063985451E+02 -0.55744070902E+02 -0.30981975916E+02  0.65099554439E+02  0.00000000000E+00 0.  1.
         11    1    4    4    0    0  0.82696914362E+00  0.29836662997E+02  0.15298008517E+02  0.33540116298E+02  0.00000000000E+00 0. -1.
</event>
<event>
 8    1  0.6965441E-009  0.1136770E+03  0.7561462E-02  0.1253908E+00
          2   -1    0    0  501    0  0.00000000000E+00  0.00000000000E+00  0.38359951682E+03  0.38359951682E+03  0.00000000000E+00 0. -1.
         -2   -1    0    0    0  501 -0.00000000000E+00 -0.00000000000E+00 -0.58719022413E+02  0.58719022413E+02  0.00000000000E+00 0.  1.
         25    2    1    2    0    0 -0.99781822557E+01 -0.10218944626E+03  0.15554569891E+03  0.22445678401E+03  0.12507652215E+03 0.  0.
         23    2    1    2    0    0  0.99781822557E+01  0.10218944626E+03  0.16933479549E+03  0.21786175522E+03  0.90814230024E+02 0.  0.
          5    1    3    3  502    0  0.25835225979E+02 -0.62664457206E+02  0.15687156832E+03  0.17093991473E+03  0.41800000000E+01 0. -1.
         -5    1    3    3    0  502 -0.35813408235E+02 -0.39524989050E+02 -0.13258694100E+01  0.53516869289E+02  0.41800000000E+01 0. -1.
        -11    1    4    4    0    0  0.18333082902E+02  0.53794317681E+02  0.15736496632E+03  0.16731306933E+03  0.00000000000E+00 0. -1.
         11    1    4    4    0    0 -0.83549006464E+01  0.48395128575E+02  0.11969829173E+02  0.50548685888E+02  0.00000000000E+00 0.  1.
</event>
<event>
 8    1  0.6965441E-009  0.1079266E+03  0.7561462E-02  0.1264458E+00
          1   -1    0    0  501    0  0.00000000000E+00  0.00000000000E+00  0.13706907773E+03  0.13706907773E+03  0.00000000000E+00 0. -1.
         -1   -1    0    0    0  501 -0.00000000000E+00 -0.00000000000E+00 -0.13083508396E+03  0.13083508396E+03  0.00000000000E+00 0.  1.
         25    2    1    2    0    0  0.76404166403E+02 -0.25386549247E+01  0.12013954918E+02  0.14708822319E+03  0.12508624575E+03 0.  0.
         23    2    1    2    0    0 -0.76404166403E+02  0.25386549247E+01 -0.57799611468E+01  0.12081593850E+03  0.93375808599E+02 0.  0.
          5    1    3    3  502    0  0.80823508126E+02 -0.36640045301E+02 -0.28954172923E+02  0.93438476631E+02  0.41800000000E+01 0.  1.
         -5    1    3    3    0  502 -0.44193417228E+01  0.34101390376E+02  0.40968127841E+02  0.53649746557E+02  0.41800000000E+01 0.  1.
        -11    1    4    4    0    0 -0.49675781099E+02 -0.23593368949E+02 -0.41667902953E+02  0.68996698636E+02  0.00000000000E+00 0.  1.
         11    1    4    4    0    0 -0.26728385303E+02  0.26132023874E+02  0.35887941806E+02  0.51819239861E+02  0.00000000000E+00 0. -1.
</event>
<event>
 8    1  0.6965441E-009  0.1706090E+03  0.7561462E-02  0.1177214E+00
         -1   -1    0    0    0  501 -0.00000000000E+00  0.00000000000E+00  0.15337847280E+04  0.15337847280E+04  0.00000000000E+00 0.  1.
          1   -1    0    0  501    0  0.00000000000E+00 -0.00000000000E+00 -0.23765845052E+02  0.23765845052E+02  0.00000000000E+00 0. -1.
         25    2    1    2    0    0  0.15342260629E+03 -0.28761816365E+02  0.86743822395E+03  0.89020327860E+03  0.12508823551E+03 0.  0.
         23    2    1    2    0    0 -0.15342260629E+03  0.28761816365E+02  0.64258065895E+03  0.66734729440E+03  0.89870851157E+02 0.  0.
          5    1    3    3  502    0  0.95688556567E+02 -0.56773352681E+02  0.31627259648E+03  0.33529888326E+03  0.41800000000E+01 0. -1.
         -5    1    3    3    0  502  0.57734049724E+02  0.28011536316E+02  0.55116562747E+03  0.55490439534E+03  0.41800000000E+01 0. -1.
        -11    1    4    4    0    0 -0.11791784540E+03  0.45405119504E+02  0.57915776213E+03  0.59278154204E+03  0.00000000000E+00 0.  1.
         11    1    4    4    0    0 -0.35504760886E+02 -0.16643303139E+02  0.63422896815E+02  0.74565752362E+02  0.00000000000E+00 0. -1.
</event>
<event>
 8    1  0.6965441E-009  0.1275331E+03  0.7561462E-02  0.1231163E+00
         -1   -1    0    0    0  501 -0.00000000000E+00  0.00000000000E+00  0.67578400140E+02  0.67578400140E+02  0.00000000000E+00 0. -1.
          1   -1    0    0  501    0  0.00000000000E+00 -0.00000000000E+00 -0.28211675415E+03  0.28211675415E+03  0.00000000000E+00 0.  1.
         25    2    1    2    0    0 -0.34878592091E+02 -0.68600522334E+02 -0.73410730297E+02  0.16419258631E+03  0.12509005646E+03 0.  0.
         23    2    1    2    0    0  0.34878592091E+02  0.68600522334E+02 -0.14112762372E+03  0.18550256799E+03  0.92583198820E+02 0.  0.
          5    1    3    3  502    0 -0.75866025591E+02 -0.53253671903E+02 -0.76305824314E+02  0.12013183855E+03  0.41800000000E+01 0.  1.
         -5    1    3    3    0  502  0.40987433500E+02 -0.15346850431E+02  0.28950940173E+01  0.44060747752E+02  0.41800000000E+01 0.  1.
        -11    1    4    4    0    0  0.61804213584E+02  0.24168254019E+02 -0.61834794153E+02  0.90705055465E+02  0.00000000000E+00 0.  1.
         11    1    4    4    0    0 -0.26925621493E+02  0.44432268316E+02 -0.79292829564E+02  0.94797512524E+02  0.00000000000E+00 0. -1.
</event>
<event>
 8    1  0.6965441E-009  0.1118735E+03  0.7561462E-02  0.1257139E+00
         -4   -1    0    0    0  501 -0.00000000000E+00  0.00000000000E+00  0.14567200673E+02  0.14567200673E+02  0.00000000000E+00 0.  1.
          4   -1    0    0  501    0  0.00000000000E+00 -0.00000000000E+00 -0.11752898294E+04  0.11752898294E+04  0.00000000000E+00 0. -1.
         25    2    1    2    0    0  0.90627680758E+01 -0.66046322412E+02 -0.78945200586E+03  0.80207623059E+03  0.12509020609E+03 0.  0.
         23    2    1    2    0    0 -0.90627680758E+01  0.66046322412E+02 -0.37127062289E+03  0.38778079950E+03  0.89932322175E+02 0.  0.
          5    1    3    3  502    0 -0.37238937887E+02 -0.60849753495E+02 -0.23427783086E+03  0.24493469625E+03  0.41800000000E+01 0. -1.
         -5    1    3    3    0  502  0.46301705962E+02 -0.51965689168E+01 -0.55517417500E+03  0.55714153434E+03  0.41800000000E+01 0. -1.
        -11    1    4    4    0    0  0.33256676946E+02  0.50404567077E+02 -0.14528185833E+03  0.15733227674E+03  0.00000000000E+00 0.  1.
         11    1    4    4    0    0 -0.42319445021E+02  0.15641755335E+02 -0.22598876455E+03  0.23044852276E+03  0.00000000000E+00 0. -1.
</event>
<event>
 8    1  0.6965441E-009  0.1189295E+03  0.7561462E-02  0.1244874E+00
          3   -1    0    0  501    0  0.00000000000E+00  0.00000000000E+00  0.61715245076E+02  0.61715245076E+02  0.00000000000E+00 0. -1.
         -3   -1    0    0    0  501 -0.00000000000E+00 -0.00000000000E+00 -0.64583463388E+03  0.64583463388E+03  0.00000000000E+00 0.  1.
         25    2    1    2    0    0 -0.35974971672E+02  0.79839105459E+02 -0.53407858960E+02  0.16176674132E+03  0.12509035875E+03 0.  0.
         23    2    1    2    0    0  0.35974971672E+02 -0.79839105459E+02 -0.53071152984E+03  0.54578313763E+03  0.92498778734E+02 0.  0.
          5    1    3    3  502    0 -0.32962881467E+02 -0.59182949006E+01 -0.66776502735E+02  0.74820795817E+02  0.41800000000E+01 0. -1.
         -5    1    3    3    0  502 -0.30120902050E+01  0.85757400360E+02  0.13368643774E+02  0.86945945508E+02  0.41800000000E+01 0. -1.
        -11    1    4    4    0    0  0.10785078705E+02 -0.90285310323E+02 -0.47651390392E+03  0.48511159109E+03  0.00000000000E+00 0.  1.
         11    1    4    4    0    0  0.25189892968E+02  0.10446204864E+02 -0.54197625922E+02  0.60671546539E+02  0.00000000000E+00 0. -1.
</event>
<event>
 8    1  0.6965441E-009  0.8416775E+02  0.7561462E-02  0.1317623E+00
         -2   -1    0    0    0  501 -0.00000000000E+00  0.00000000000E+00  0.11500567067E+02  0.11500567067E+02  0.00000000000E+00 0.  1.
          2   -1    0    0  501    0  0.00000000000E+00 -0.00000000000E+00 -0.16543128342E+04  0.16543128342E+04  0.00000000000E+00 0. -1.
         25    2    1    2    0    0  0.45234799672E+01  0.30183663478E+02 -0.13748198320E+04  0.13808364944E+04  0.12509331875E+03 0.  0.
         23    2    1    2    0    0 -0.45234799672E+01 -0.30183663478E+02 -0.26799243516E+03  0.28497690689E+03  0.91980306305E+02 0.  0.
          5    1    3    3  502    0  0.27073502598E+02  0.38370148002E+02 -0.18984413759E+03  0.19561061264E+03  0.41800000000E+01 0. -1.
         -5    1    3    3    0  502 -0.22550022630E+02 -0.81864845244E+01 -0.11849756944E+04  0.11852258817E+04  0.41800000000E+01 0. -1.
        -11    1    4    4    0    0  0.26128923328E+02 -0.52688499882E+02 -0.15729626037E+03  0.16793127219E+03  0.00000000000E+00 0.  1.
         11    1    4    4    0    0 -0.30652403295E+02  0.22504836404E+02 -0.11069617479E+03  0.11704563470E+03  0.00000000000E+00 0. -1.
</event>
<event>
 8    1  0.6965441E-009  0.1655098E+03  0.7561462E-02  0.1182613E+00
         -3   -1    0    0    0  501 -0.00000000000E+00  0.00000000000E+00  0.84299228932E+03  0.84299228932E+03  0.00000000000E+00 0.  1.
          3   -1    0    0  501    0  0.00000000000E+00 -0.00000000000E+00 -0.36929607453E+02  0.36929607453E+02  0.00000000000E+00 0. -1.
         25    2    1    2    0    0 -0.12674605704E+03  0.38889762883E+02  0.32706612578E+03  0.37442745676E+03  0.12508674235E+03 0.  0.
         23    2    1    2    0    0  0.12674605704E+03 -0.38889762883E+02  0.47899655609E+03  0.50549444002E+03  0.92249398410E+02 0.  0.
          5    1    3    3  502    0 -0.14571034386E+03  0.35817878647E+02  0.32013719516E+03  0.35358127900E+03  0.41800000000E+01 0.  1.
         -5    1    3    3    0  502  0.18964286822E+02  0.30718842358E+01  0.69289306223E+01  0.20846177755E+02  0.41800000000E+01 0.  1.
        -11    1    4    4    0    0  0.83637168412E+02 -0.69200890713E+02  0.30868410687E+03  0.32721524575E+03  0.00000000000E+00 0.  1.
         11    1    4    4    0    0  0.43108888631E+02  0.30311127830E+02  0.17031244922E+03  0.17827919427E+03  0.00000000000E+00 0. -1.
</event>
<event>
 8    1  0.6965441E-009  0.1241228E+03  0.7561462E-02  0.1236447E+00
          1   -1    0    0  501    0  0.00000000000E+00  0.00000000000E+00  0.55092357037E+02  0.55092357037E+02  0.00000000000E+00 0. -1.
         -1   -1    0    0    0  501 -0.00000000000E+00 -0.00000000000E+00 -0.37186254759E+03  0.37186254759E+03  0.00000000000E+00 0.  1.
         25    2    1    2    0    0 -0.82728225943E+02 -0.11376618425E+02 -0.23599982095E+03  0.27985151908E+03  0.12509024912E+03 0.  0.
         23    2    1    2    0    0  0.82728225943E+02  0.11376618425E+02 -0.80770369598E+02  0.14710338555E+03  0.90233954917E+02 0.  0.
          5    1    3    3  502    0 -0.34197322235E+02 -0.54557074787E+02 -0.46640803569E+02  0.79616381574E+02  0.41800000000E+01 0.  1.
         -5    1    3    3    0  502 -0.48530903707E+02  0.43180456362E+02 -0.18935901738E+03  0.20023513750E+03  0.41800000000E+01 0.  1.
        -11    1    4    4    0    0  0.30411673049E+02  0.46537026969E+02 -0.57314300264E+02  0.79846689045E+02  0.00000000000E+00 0.  1.
         11    1    4    4    0    0  0.52316552893E+02 -0.35160408545E+02 -0.23456069334E+02  0.67256696501E+02  0.00000000000E+00 0. -1.
</event>
<event>
 8    1  0.6965441E-009  0.1500684E+03  0.7561462E-02  0.1200389E+00
          2   -1    0    0  501    0  0.00000000000E+00  0.00000000000E+00  0.41094551448E+02  0.41094551448E+02  0.00000000000E+00 0. -1.
         -2   -1    0    0    0  501 -0.00000000000E+00 -0.00000000000E+00 -0.74834941201E+03  0.74834941201E+03  0.00000000000E+00 0.  1.
         25    2    1    2    0    0  0.12233348811E+03  0.63096087098E+02 -0.39710673924E+03  0.43850586181E+03  0.12508808887E+03 0.  0.
         23    2    1    2    0    0 -0.12233348811E+03 -0.63096087098E+02 -0.31014812132E+03  0.35093810164E+03  0.89549402592E+02 0.  0.
          5    1    3    3  502    0  0.10528065852E+03  0.23734042868E+02 -0.13503675879E+03  0.17291535638E+03  0.41800000000E+01 0.  1.
         -5    1    3    3    0  502  0.17052829591E+02  0.39362044230E+02 -0.26206998045E+03  0.26559050543E+03  0.41800000000E+01 0.  1.
        -11    1    4    4    0    0 -0.32173878466E+01 -0.23186457756E+02 -0.12513771568E+03  0.12730833159E+03  0.00000000000E+00 0.  1.
         11    1    4    4    0    0 -0.11911610026E+03 -0.39909629342E+02 -0.18501040565E+03  0.22362977005E+03  0.00000000000E+00 0. -1.
</event>
<event>
 8    1  0.6965441E-009  0.1248333E+03  0.7561462E-02  0.1235330E+00
         -2   -1    0    0    0  501 -0.00000000000E+00  0.00000000000E+00  0.21926460371E+03  0.21926460371E+03  0.00000000000E+00 0.  1.
          2   -1    0    0  501    0  0.00000000000E+00 -0.00000000000E+00 -0.88997956735E+02  0.88997956735E+02  0.00000000000E+00 0. -1.
         25    2    1    2    0    0  0.13480514310E+02 -0.81233782156E+02  0.10715770871E+03  0.18415121720E+03  0.12509294397E+03 0.  0.
         23    2    1    2    0    0 -0.13480514310E+02  0.81233782156E+02  0.23108938268E+02  0.12411134324E+03  0.89938594965E+02 0.  0.
          5    1    3    3  502    0  0.42490037481E+02  0.10330414938E+01 -0.38813374301E+01  0.42883652364E+02  0.41800000000E+01 0. -1.
         -5    1    3    3    0  502 -0.29009523171E+02 -0.82266823650E+02  0.11103904614E+03  0.14126756484E+03  0.41800000000E+01 0. -1.
        -11    1    4    4    0    0 -0.41016556345E+02  0.85446816574E+01  0.19724097883E+02  0.46307769503E+02  0.00000000000E+00 0.  1.
         11    1    4    4    0    0  0.27536042035E+02  0.72689100498E+02  0.33848403848E+01  0.77803573740E+02  0.00000000000E+00 0. -1.
</event>
<event>
 8    1  0.6965441E-009  0.1884918E+03  0.7561462E-02  0.1159829E+00
         -1   -1    0    0    0  501 -0.00000000000E+00  0.00000000000E+00  0.84938848090E+03  0.84938848090E+03  0.00000000000E+00 0.  1.
          1   -1    0    0  501    0  0.00000000000E+00 -0.00000000000E+00 -0.52139496286E+02  0.52139496286E+02  0.00000000000E+00 0. -1.
         25    2    1    2    0    0  0.54822954416E+02 -0.15633459456E+03  0.26150348790E+03  0.33388318283E+03  0.12509134185E+03 0.  0.
         23    2    1    2    0    0 -0.54822954416E+02  0.15633459456E+03  0.53574549672E+03  0.56764479436E+03  0.88041544295E+02 0.  0.
          5    1    3    3  502    0  0.15971125322E+02  0.16581180235E+02  0.65743830442E+02  0.69783493917E+02  0.41800000000E+01 0.  1.
         -5    1    3    3    0  502  0.38851829095E+02 -0.17291577479E+03  0.19575965745E+03  0.26409968891E+03  0.41800000000E+01 0.  1.
        -11    1    4    4    0    0 -0.34831506283E+02  0.23590969739E+02  0.59694961809E+02  0.73029145884E+02  0.00000000000E+00 0. -1.
         11    1    4    4    0    0 -0.19991448133E+02  0.13274362482E+03  0.47605053491E+03  0.49461564848E+03  0.00000000000E+00 0.  1.
</event>
<event>
 8    1  0.6965441E-009  0.1266288E+03  0.7561462E-02  0.1232545E+00
         -2   -1    0    0    0  501 -0.00000000000E+00  0.00000000000E+00  0.11899496659E+03  0.11899496659E+03  0.00000000000E+00 0.  1.
          2   -1    0    0  501    0  0.00000000000E+00 -0.00000000000E+00 -0.15352645610E+03  0.15352645610E+03  0.00000000000E+00 0. -1.
         25    2    1    2    0    0 -0.46289455816E+02 -0.52416186885E+02  0.27275646092E+02  0.14588160056E+03  0.12508920874E+03 0.  0.
         23    2    1    2    0    0  0.46289455816E+02  0.52416186885E+02 -0.61807135611E+02  0.12663982214E+03  0.85599954268E+02 0.  0.
          5    1    3    3  502    0  0.13193880171E+02 -0.77365383257E+02  0.17335639922E+02  0.80482779599E+02  0.41800000000E+01 0. -1.
         -5    1    3    3    0  502 -0.59483335987E+02  0.24949196372E+02  0.99400061709E+01  0.65398820956E+02  0.41800000000E+01 0. -1.
        -11    1    4    4    0    0  0.23757181057E+02  0.74668585878E+02 -0.38401689920E+02  0.87261051779E+02  0.00000000000E+00 0.  1.
         11    1    4    4    0    0  0.22532274759E+02 -0.22252398993E+02 -0.23405445691E+02  0.39378770356E+02  0.00000000000E+00 0. -1.
</event>
<event>
 8    1  0.6965441E-009  0.1058067E+03  0.7561462E-02  0.1268538E+00
          2   -1    0    0  501    0  0.00000000000E+00  0.00000000000E+00  0.22672916557E+03  0.22672916557E+03  0.00000000000E+00 0. -1.
         -2   -1    0    0    0  501 -0.00000000000E+00 -0.00000000000E+00 -0.65360182201E+02  0.65360182201E+02  0.00000000000E+00 0.  1.
         25    2    1    2    0    0  0.15874544627E+02 -0.31721385168E+02  0.14502536257E+03  0.19477833746E+03  0.12509195623E+03 0.  0.
         23    2    1    2    0    0 -0.15874544627E+02  0.31721385168E+02  0.16343620798E+02  0.97311010304E+02  0.89129520034E+02 0.  0.
          5    1    3    3  502    0  0.61703711295E+02 -0.38484268673E+02  0.48155942842E+02  0.87320410867E+02  0.41800000000E+01 0. -1.
         -5    1    3    3    0  502 -0.45829166668E+02  0.67628835044E+01  0.96869419725E+02  0.10745792660E+03  0.41800000000E+01 0. -1.
        -11    1    4    4    0    0  0.24462202873E+02 -0.16412364148E+02 -0.70587151412E+01  0.30291756730E+02  0.00000000000E+00 0.  1.
         11    1    4    4    0    0 -0.40336747501E+02  0.48133749316E+02  0.23402335939E+02  0.67019253574E+02  0.00000000000E+00 0. -1.
</event>
<event>
 8    1  0.6965441E-009  0.6550245E+02  0.7561462E-02  0.1376091E+00
         -2   -1    0    0    0  501 -0.00000000000E+00  0.00000000000E+00  0.29969257629E+02  0.29969257629E+02  0.00000000000E+00 0.  1.
          2   -1    0    0  501    0  0.00000000000E+00 -0.00000000000E+00 -0.47941684239E+03  0.47941684239E+03  0.00000000000E+00 0. -1.
         25    2    1    2    0    0  0.17433615235E+02 -0.18543238300E+02 -0.15752528012E+03  0.20275502037E+03  0.12509037446E+03 0.  0.
         23    2    1    2    0    0 -0.17433615235E+02  0.18543238300E+02 -0.29192230465E+03  0.30663107965E+03  0.90311707052E+02 0.  0.
          5    1    3    3  502    0  0.13707897889E+01 -0.27473349974E+02 -0.17491292031E+03  0.17711201572E+03  0.41800000000E+01 0.  1.
         -5    1    3    3    0  502  0.16062825446E+02  0.89301116741E+01  0.17387640192E+02  0.25643004645E+02  0.41800000000E+01 0.  1.
        -11    1    4    4    0    0  0.31062483581E+02  0.17864287987E+02 -0.61657321432E+02  0.71313644961E+02  0.00000000000E+00 0.  1.
         11    1    4    4    0    0 -0.48496098816E+02  0.67895031371E+00 -0.23026498321E+03  0.23531743469E+03  0.00000000000E+00 0. -1.
</event>
<event>
 8    1  0.6965441E-009  0.1240510E+03  0.7561462E-02  0.1236560E+00
         -2   -1    0    0    0  501 -0.00000000000E+00  0.00000000000E+00  0.23446784862E+03  0.23446784862E+03  0.00000000000E+00 0.  1.
          2   -1    0    0  501    0  0.00000000000E+00 -0.00000000000E+00 -0.18942208301E+03  0.18942208301E+03  0.00000000000E+00 0. -1.
         25    2    1    2    0    0 -0.51468276834E+02  0.10895293499E+03 -0.11042496930E+03  0.20581600954E+03  0.12508729102E+03 0.  0.
         23    2    1    2    0    0  0.51468276834E+02 -0.10895293499E+03  0.15547073491E+03  0.21807392209E+03  0.94156043437E+02 0.  0.
          5    1    3    3  502    0 -0.54251216537E+02  0.95548809915E+02 -0.16953554793E+02  0.11125495491E+03  0.41800000000E+01 0. -1.
         -5    1    3    3    0  502  0.27829397033E+01  0.13404125080E+02 -0.93471414510E+02  0.94561054631E+02  0.41800000000E+01 0. -1.
        -11    1    4    4    0    0  0.49751460926E+02 -0.76007793725E+02  0.16077095297E+03  0.18466101887E+03  0.00000000000E+00 0.  1.
         11    1    4    4    0    0  0.17168159075E+01 -0.32945141270E+02 -0.53002180542E+01  0.33412903220E+02  0.00000000000E+00 0. -1.
</event>
<event>
 8    1  0.6965441E-009  0.1054410E+03  0.7561462E-02  0.1269253E+00
          2   -1    0    0  501    0  0.00000000000E+00  0.00000000000E+00  0.17911777886E+03  0.17911777886E+03  0.00000000000E+00 0.  1.
         -2   -1    0    0    0  501 -0.00000000000E+00 -0.00000000000E+00 -0.11808291621E+03  0.11808291621E+03  0.00000000000E+00 0. -1.
         25    2    1    2    0    0  0.69556291183E+02  0.30345679068E+02  0.93483271334E+02  0.17362883660E+03  0.12509561542E+03 0.  0.
         23    2    1    2    0    0 -0.69556291183E+02 -0.30345679068E+02 -0.32448408684E+02  0.12357185847E+03  0.91968293979E+02 0.  0.
          5    1    3    3  502    0  0.84080288642E+02  0.45466567956E+02  0.11060041169E+03  0.14624167397E+03  0.41800000000E+01 0. -1.
         -5    1    3    3    0  502 -0.14523997459E+02 -0.15120888888E+02 -0.17117140353E+02  0.27387162628E+02  0.41800000000E+01 0. -1.
        -11    1    4    4    0    0 -0.13371727860E+02  0.16100228936E+02  0.23655629767E+02  0.31584953655E+02  0.00000000000E+00 0.  1.
         11    1    4    4    0    0 -0.56184563323E+02 -0.46445908004E+02 -0.56104038451E+02  0.91986904811E+02  0.00000000000E+00 0. -1.
</event>
<event>
 7    1  0.6965441E-009  0.9281282E+02  0.7561462E-02  0.1296180E+00
          3   -1    0    0  501    0  0.00000000000E+00  0.00000000000E+00  0.14548779283E+02  0.14548779283E+02  0.00000000000E+00 0. -1.
         -3   -1    0    0    0  501 -0.00000000000E+00 -0.00000000000E+00 -0.88370618643E+03  0.88370618643E+03  0.00000000000E+00 0.  1.
         23    2    1    2    0    0  0.12367423377E+02 -0.28701707075E+02 -0.43282012635E+03  0.44328925296E+03  0.90528221407E+02 0.  0.
          5    1    1    2  502    0 -0.39759409254E+02 -0.11237999360E+02 -0.47466955581E+02  0.63068910930E+02  0.41800000000E+01 0.  1.
         -5    1    1    2    0  502  0.27391985876E+02  0.39939706435E+02 -0.38887032522E+03  0.39189680182E+03  0.41800000000E+01 0.  1.
        -11    1    3    3    0    0 -0.18761583723E+01 -0.60560382547E+02 -0.29071996131E+03  0.29696662407E+03  0.00000000000E+00 0.  1.
         11    1    3    3    0    0  0.14243581750E+02  0.31858675473E+02 -0.14210016504E+03  0.14632262890E+03  0.00000000000E+00 0. -1.
</event>
<event>
 8    1  0.6965441E-009  0.1841985E+03  0.7561462E-02  0.1163800E+00
         -2   -1    0    0    0  501 -0.00000000000E+00  0.00000000000E+00  0.90567785820E+03  0.90567785820E+03  0.00000000000E+00 0.  1.
          2   -1    0    0  501    0  0.00000000000E+00 -0.00000000000E+00 -0.47784891190E+02  0.47784891190E+02  0.00000000000E+00 0. -1.
         25    2    1    2    0    0  0.44392497264E+02  0.16867607808E+03  0.37379673050E+03  0.43103773774E+03  0.12508885837E+03 0.  0.
         23    2    1    2    0    0 -0.44392497264E+02 -0.16867607808E+03  0.48409623651E+03  0.52242501165E+03  0.90312864363E+02 0.  0.
          5    1    3    3  502    0  0.28324782684E+02  0.17039114661E+02  0.73647609052E+01  0.34122380423E+02  0.41800000000E+01 0. -1.
         -5    1    3    3    0  502  0.16067714580E+02  0.15163696342E+03  0.36643196960E+03  0.39691535731E+03  0.41800000000E+01 0. -1.
        -11    1    4    4    0    0  0.10613229511E+02 -0.57787554702E+02  0.25858315044E+03  0.26517407078E+03  0.00000000000E+00 0.  1.
         11    1    4    4    0    0 -0.55005726776E+02 -0.11088852338E+03  0.22551308606E+03  0.25725094088E+03  0.00000000000E+00 0. -1.
</event>
<event>
 8    1  0.6965441E-009  0.1488390E+03  0.7561462E-02  0.1201907E+00
          1   -1    0    0  501    0  0.00000000000E+00  0.00000000000E+00  0.44707942569E+02  0.44707942569E+02  0.00000000000E+00 0. -1.
         -1   -1    0    0    0  501 -0.00000000000E+00 -0.00000000000E+00 -0.56895230973E+03  0.56895230973E+03  0.00000000000E+00 0.  1.
         25    2    1    2    0    0  0.39660703243E+01 -0.10811516749E+03 -0.26493949467E+03  0.31232170072E+03  0.12508912721E+03 0.  0.
         23    2    1    2    0    0 -0.39660703243E+01  0.10811516749E+03 -0.25930487249E+03  0.30133855158E+03  0.10890953409E+03 0.  0.
          5    1    3    3  502    0 -0.11238976332E+02 -0.13026277211E+03 -0.17580970873E+03  0.21913746934E+03  0.41800000000E+01 0. -1.
         -5    1    3    3    0  502  0.15205046657E+02  0.22147604620E+02 -0.89129785947E+02  0.93184231376E+02  0.41800000000E+01 0. -1.
        -11    1    4    4    0    0 -0.17093581032E+02  0.12045384013E+03 -0.25541112934E+03  0.28290663319E+03  0.00000000000E+00 0.  1.
         11    1    4    4    0    0  0.13127510708E+02 -0.12338672637E+02 -0.38937431556E+01  0.18431918392E+02  0.00000000000E+00 0. -1.
</event>
<event>
 8    1  0.6965441E-009  0.1750323E+03  0.7561462E-02  0.1172699E+00
         -2   -1    0    0    0  501 -0.00000000000E+00  0.00000000000E+00  0.36835611511E+02  0.36835611511E+02  0.00000000000E+00 0.  1.
          2   -1    0    0  501    0  0.00000000000E+00 -0.00000000000E+00 -0.10412047435E+04  0.10412047435E+04  0.00000000000E+00 0. -1.
         25    2    1    2    0    0 -0.15363471699E+03  0.52430931212E+01 -0.66976433509E+03  0.69847320031E+03  0.12509768464E+03 0.  0.
         23    2    1    2    0    0  0.15363471699E+03 -0.52430931212E+01 -0.33460479691E+03  0.37956715471E+03  0.92085495769E+02 0.  0.
          5    1    3    3  502    0 -0.25948615173E+02 -0.33440799475E+02 -0.34102702721E+03  0.34366920634E+03  0.41800000000E+01 0.  1.
         -5    1    3    3    0  502 -0.12768610182E+03  0.38683892596E+02 -0.32873730788E+03  0.35480399397E+03  0.41800000000E+01 0.  1.
        -11    1    4    4    0    0  0.99410633707E+02  0.36204021925E+02 -0.15719575308E+03  0.18948274350E+03  0.00000000000E+00 0.  1.
         11    1    4    4    0    0  0.54224083285E+02 -0.41447115046E+02 -0.17740904383E+03  0.19008441122E+03  0.00000000000E+00 0. -1.
</event>
<event>
 8    1  0.6965441E-009  0.1205914E+03  0.7561462E-02  0.1242125E+00
          2   -1    0    0  501    0  0.00000000000E+00  0.00000000000E+00  0.30664241723E+03  0.30664241723E+03  0.00000000000E+00 0.  1.
         -2   -1    0    0    0  501 -0.00000000000E+00 -0.00000000000E+00 -0.89363540227E+02  0.89363540227E+02  0.00000000000E+00 0. -1.
         25    2    1    2    0    0  0.95208517422E+02 -0.39215158100E+02  0.32611614351E+02  0.16526537095E+03  0.12508651019E+03 0.  0.
         23    2    1    2    0    0 -0.95208517422E+02  0.39215158100E+02  0.18466726265E+03  0.23074058650E+03  0.92394425964E+02 0.  0.
          5    1    3    3  502    0  0.77677770626E+02 -0.38177988626E+02 -0.36358184099E+02  0.93972255565E+02  0.41800000000E+01 0. -1.
         -5    1    3    3    0  502  0.17530746796E+02 -0.10371694737E+01  0.68969798450E+02  0.71293115390E+02  0.41800000000E+01 0. -1.
        -11    1    4    4    0    0 -0.35366425489E+02 -0.28998160338E+02  0.44835362981E+02  0.64045976677E+02  0.00000000000E+00 0. -1.
         11    1    4    4    0    0 -0.59842091933E+02  0.68213318437E+02  0.13983189967E+03  0.16669460982E+03  0.00000000000E+00 0.  1.
</event>
<event>
 8    1  0.6965441E-009  0.1057876E+03  0.7561462E-02  0.1268576E+00
          1   -1    0    0  501    0  0.00000000000E+00  0.00000000000E+00  0.88845199642E+03  0.88845199642E+03  0.00000000000E+00 0. -1.
         -1   -1    0    0    0  501 -0.00000000000E+00 -0.00000000000E+00 -0.13912488036E+02  0.13912488036E+02  0.00000000000E+00 0.  1.
         25    2    1    2    0    0  0.70161466952E+01  0.26422919718E+02  0.51527783760E+03  0.53094865902E+03  0.12509129304E+03 0.  0.
         23    2    1    2    0    0 -0.70161466952E+01 -0.26422919718E+02  0.35926167078E+03  0.37141582543E+03  0.90185199939E+02 0.  0.
          5    1    3    3  502    0 -0.56272731059E+02  0.22485317514E+02  0.31593942801E+03  0.32172566627E+03  0.41800000000E+01 0.  1.
         -5    1    3    3    0  502  0.63288877755E+02  0.39376022044E+01  0.19933840959E+03  0.20922299276E+03  0.41800000000E+01 0.  1.
        -11    1    4    4    0    0  0.36839715342E+02 -0.15654906178E+01  0.86441047755E+02  0.93976965924E+02  0.00000000000E+00 0.  1.
         11    1    4    4    0    0 -0.43855862037E+02 -0.24857429100E+02  0.27282062302E+03  0.27743885950E+03  0.00000000000E+00 0. -1.
</event>
<event>
 8    1  0.6965441E-009  0.9885508E+02  0.7561462E-02  0.1282722E+00
         -1   -1    0    0    0  501 -0.00000000000E+00  0.00000000000E+00  0.30952153168E+02  0.30952153168E+02  0.00000000000E+00 0.  1.
          1   -1    0    0  501    0  0.00000000000E+00 -0.00000000000E+00 -0.39047377120E+03  0.39047377120E+03  0.00000000000E+00 0. -1.
         25    2    1    2    0    0  0.16607385494E+02  0.92559250646E+01 -0.20854791167E+03  0.24392924686E+03  0.12509104129E+03 0.  0.
         23    2    1    2    0    0 -0.16607385494E+02 -0.92559250646E+01 -0.15097370636E+03  0.17749667750E+03  0.91381251424E+02 0.  0.
          5    1    3    3  502    0 -0.42629667095E+02 -0.56797608850E+01 -0.23869137469E+02  0.49363512070E+02  0.41800000000E+01 0.  1.
         -5    1    3    3    0  502  0.59237052590E+02  0.14935685950E+02 -0.18467877420E+03  0.19456573479E+03  0.41800000000E+01 0.  1.
        -11    1    4    4    0    0  0.20128638378E+02  0.32139186514E+02 -0.64802180743E+02  0.75082701215E+02  0.00000000000E+00 0.  1.
         11    1    4    4    0    0 -0.36736023872E+02 -0.41395111578E+02 -0.86171525616E+02  0.10241397629E+03  0.00000000000E+00 0. -1.
</event>
<event>
 8    1  0.6965441E-009  0.8614461E+02  0.7561462E-02  0.1312466E+00
          2   -1    0    0  501    0  0.00000000000E+00  0.00000000000E+00  0.26014383640E+03  0.26014383640E+03  0.00000000000E+00 0.  1.
         -2   -1    0    0    0  501 -0.00000000000E+00 -0.00000000000E+00 -0.72545405156E+02  0.72545405156E+02  0.00000000000E+00 0. -1.
         25    2    1    2    0    0 -0.44814373745E+02  0.58329509172E+02  0.15241551072E+03  0.21044677599E+03  0.12508676142E+03 0.  0.
         23    2    1    2    0    0  0.44814373745E+02 -0.58329509172E+02  0.35182920529E+02  0.12224246557E+03  0.91075368556E+02 0.  0.
          5    1    3    3  502    0 -0.33935053920E+02  0.19063896720E+02  0.16341354950E+03  0.16803714055E+03  0.41800000000E+01 0.  1.
         -5    1    3    3    0  502 -0.10879319825E+02  0.39265612452E+02 -0.10998038783E+02  0.42409635440E+02  0.41800000000E+01 0.  1.
        -11    1    4    4    0    0  0.90621525781E+01 -0.55592827375E+02  0.57109130562E+02  0.80213077852E+02  0.00000000000E+00 0.  1.
         11    1    4    4    0    0  0.35752221167E+02 -0.27366817974E+01 -0.21926210034E+02  0.42029387720E+02  0.00000000000E+00 0. -1.
</event>
<event>
 8    1  0.6965441E-009  0.7158221E+02  0.7561462E-02  0.1354794E+00
         -1   -1    0    0    0  501 -0.00000000000E+00  0.00000000000E+00  0.57272596618E+02  0.57272596618E+02  0.00000000000E+00 0.  1.
          1   -1    0    0  501    0  0.00000000000E+00 -0.00000000000E+00 -0.25832754050E+03  0.25832754050E+03  0.00000000000E+00 0. -1.
         25    2    1    2    0    0  0.36378693833E+01 -0.39383857795E+02 -0.16513360046E+03  0.21090375595E+03  0.12508783283E+03 0.  0.
         23    2    1    2    0    0 -0.36378693833E+01  0.39383857795E+02 -0.35921343414E+02  0.10469638116E+03  0.90037031090E+02 0.  0.
          5    1    3    3  502    0  0.38392927175E+02  0.41904662277E+01 -0.14714538687E+03  0.15218677387E+03  0.41800000000E+01 0.  1.
         -5    1    3    3    0  502 -0.34755057792E+02 -0.43574324023E+02 -0.17988213595E+02  0.58716982080E+02  0.41800000000E+01 0.  1.
        -11    1    4    4    0    0 -0.13102982686E+02  0.36101987485E+02  0.23108590791E+02  0.44822412072E+02  0.00000000000E+00 0.  1.
         11    1    4    4    0    0  0.94651133024E+01  0.32818703105E+01 -0.59029934204E+02  0.59873969091E+02  0.00000000000E+00 0. -1.
</event>
<event>
 8    1  0.6965441E-009  0.1216868E+03  0.7561462E-02  0.1240340E+00
         -2   -1    0    0    0  501 -0.00000000000E+00  0.00000000000E+00  0.45684026002E+02  0.45684026002E+02  0.00000000000E+00 0. -1.
          2   -1    0    0  501    0  0.00000000000E+00 -0.00000000000E+00 -0.43083344707E+03  0.43083344707E+03  0.00000000000E+00 0.  1.
         25    2    1    2    0    0  0.84287490576E+01  0.80521289702E+02 -0.25691078254E+03  0.29699222651E+03  0.12508601246E+03 0.  0.
         23    2    1    2    0    0 -0.84287490576E+01 -0.80521289702E+02 -0.12823863853E+03  0.17952524657E+03  0.96069994474E+02 0.  0.
          5    1    3    3  502    0 -0.51962843872E+02  0.44135523610E+02 -0.72938252762E+02  0.99927687372E+02  0.41800000000E+01 0.  1.
         -5    1    3    3    0  502  0.60391592929E+02  0.36385766092E+02 -0.18397252978E+03  0.19706453913E+03  0.41800000000E+01 0.  1.
        -11    1    4    4    0    0 -0.37417294484E+02 -0.48278775089E+02 -0.12103322161E+03  0.13557261812E+03  0.00000000000E+00 0.  1.
         11    1    4    4    0    0  0.28988545426E+02 -0.32242514613E+02 -0.72054169160E+01  0.43952628447E+02  0.00000000000E+00 0. -1.
</event>
<event>
 8    1  0.6965441E-009  0.1842717E+03  0.7561462E-02  0.1163732E+00
          2   -1    0    0  501    0  0.00000000000E+00  0.00000000000E+00  0.82241544934E+03  0.82241544934E+03  0.00000000000E+00 0.  1.
         -2   -1    0    0    0  501 -0.00000000000E+00 -0.00000000000E+00 -0.44035594959E+02  0.44035594959E+02  0.00000000000E+00 0. -1.
         25    2    1    2    0    0 -0.10324024448E+03 -0.11306410193E+03  0.34389346416E+03  0.39667640751E+03  0.12508964130E+03 0.  0.
         23    2    1    2    0    0  0.10324024448E+03  0.11306410193E+03  0.43448639023E+03  0.46977463679E+03  0.92020361078E+02 0.  0.
          5    1    3    3  502    0 -0.70642291336E+01  0.24728626624E+02  0.24564121297E+02  0.35808892235E+02  0.41800000000E+01 0. -1.
         -5    1    3    3    0  502 -0.96176015344E+02 -0.13779272856E+03  0.31932934286E+03  0.36086751528E+03  0.41800000000E+01 0. -1.
        -11    1    4    4    0    0  0.18465803012E+02  0.82092244181E+02  0.15917573647E+03  0.18004732022E+03  0.00000000000E+00 0.  1.
         11    1    4    4    0    0  0.84774441465E+02  0.30971857754E+02  0.27531065376E+03  0.28972731657E+03  0.00000000000E+00 0. -1.
</event>
<event>
 8    1  0.6965441E-009  0.9436266E+02  0.7561462E-02  0.1292618E+00
          1   -1    0    0  501    0  0.00000000000E+00  0.00000000000E+00  0.23666908216E+03  0.23666908216E+03  0.00000000000E+00 0. -1.
         -1   -1    0    0    0  501 -0.00000000000E+00 -0.00000000000E+00 -0.65142955275E+02  0.65142955275E+02  0.00000000000E+00 0.  1.
         25    2    1    2    0    0  0.87950611810E+00  0.38380826096E+02  0.15270202685E+03  0.20109408943E+03  0.12508821869E+03 0.  0.
         23    2    1    2    0    0 -0.87950611810E+00 -0.38380826096E+02  0.18824100035E+02  0.10071794801E+03  0.91191539988E+02 0.  0.
          5    1    3    3  502    0  0.48629791342E+02 -0.18670922391E+02  0.88299525013E+02  0.10260476824E+03  0.41800000000E+01 0. -1.
         -5    1    3    3    0  502 -0.47750285224E+02  0.57051748487E+02  0.64402501834E+02  0.98489321182E+02  0.41800000000E+01 0. -1.
        -11    1    4    4    0    0  0.25323422571E+01  0.11590782559E+02  0.43352479141E+02  0.44946595480E+02  0.00000000000E+00 0. -1.
         11    1    4    4    0    0 -0.34118483752E+01 -0.49971608655E+02 -0.24528379106E+02  0.55771352525E+02  0.00000000000E+00 0.  1.
</event>
<event>
 8    1  0.6965441E-009  0.1202058E+03  0.7561462E-02  0.1242758E+00
         -2   -1    0    0    0  501 -0.00000000000E+00  0.00000000000E+00  0.14146226109E+02  0.14146226109E+02  0.00000000000E+00 0.  1.
          2   -1    0    0  501    0  0.00000000000E+00 -0.00000000000E+00 -0.12389978335E+04  0.12389978335E+04  0.00000000000E+00 0. -1.
         25    2    1    2    0    0 -0.74896325307E+02  0.82970306798E+01 -0.73477499751E+03  0.74914569969E+03  0.12508669847E+03 0.  0.
         23    2    1    2    0    0  0.74896325307E+02 -0.82970306798E+01 -0.49007660989E+03  0.50399835993E+03  0.90338048386E+02 0.  0.
          5    1    3    3  502    0 -0.25930791076E+02  0.55614992924E+02 -0.52418945764E+03  0.52778546140E+03  0.41800000000E+01 0. -1.
         -5    1    3    3    0  502 -0.48965534231E+02 -0.47317962244E+02 -0.21058553987E+03  0.22136023829E+03  0.41800000000E+01 0. -1.
        -11    1    4    4    0    0  0.25277926567E+02  0.36122810118E+02 -0.11714245938E+03  0.12516463867E+03  0.00000000000E+00 0. -1.
         11    1    4    4    0    0  0.49618398740E+02 -0.44419840798E+02 -0.37293415051E+03  0.37883372126E+03  0.00000000000E+00 0.  1.
</event>
<event>
 8    1  0.6965441E-009  0.1393935E+03  0.7561462E-02  0.1214147E+00
          1   -1    0    0  501    0  0.00000000000E+00  0.00000000000E+00  0.56238675806E+03  0.56238675806E+03  0.00000000000E+00 0. -1.
         -1   -1    0    0    0  501 -0.00000000000E+00 -0.00000000000E+00 -0.36197649268E+02  0.36197649268E+02  0.00000000000E+00 0.  1.
         25    2    1    2    0    0  0.92181468591E+02  0.16215640179E+02  0.27629181087E+03  0.31740274632E+03  0.12508784305E+03 0.  0.
         23    2    1    2    0    0 -0.92181468591E+02 -0.16215640179E+02  0.24989729792E+03  0.28118166101E+03  0.88623342531E+02 0.  0.
          5    1    3    3  502    0  0.67158458032E+02  0.69378223555E+02  0.18566174623E+03  0.20931161650E+03  0.41800000000E+01 0.  1.
         -5    1    3    3    0  502  0.25023010559E+02 -0.53162583376E+02  0.90630064636E+02  0.10809112981E+03  0.41800000000E+01 0.  1.
        -11    1    4    4    0    0 -0.41123295443E+02 -0.47908381319E+02  0.16897881492E+03  0.18038896396E+03  0.00000000000E+00 0.  1.
         11    1    4    4    0    0 -0.51058173148E+02  0.31692741140E+02  0.80918483002E+02  0.10079269704E+03  0.00000000000E+00 0. -1.
</event>
<event>
 8    1  0.6965441E-009  0.9738197E+02  0.7561462E-02  0.1285900E+00
          1   -1    0    0  501    0  0.00000000000E+00  0.00000000000E+00  0.66285671207E+03  0.66285671207E+03  0.00000000000E+00 0. -1.
         -1   -1    0    0    0  501 -0.00000000000E+00 -0.00000000000E+00 -0.19064290151E+02  0.19064290151E+02  0.00000000000E+00 0.  1.
         25    2    1    2    0    0  0.15557908795E+02  0.18874269616E+02  0.29834299171E+03  0.32442897394E+03  0.12508929549E+03 0.  0.
         23    2    1    2    0    0 -0.15557908795E+02 -0.18874269616E+02  0.34544943021E+03  0.35749202829E+03  0.88695856031E+02 0.  0.
          5    1    3    3  502    0 -0.17532532257E+01 -0.41055946021E+02  0.36167239595E+02  0.54901787043E+02  0.41800000000E+01 0.  1.
         -5    1    3    3    0  502  0.17311162020E+02  0.59930215637E+02  0.26217575212E+03  0.26952718689E+03  0.41800000000E+01 0.  1.
        -11    1    4    4    0    0 -0.50572121918E+02 -0.23233608108E+02  0.23700742933E+03  0.24345402363E+03  0.00000000000E+00 0. -1.
         11    1    4    4    0    0  0.35014213124E+02  0.43593384915E+01  0.10844200087E+03  0.11403800466E+03  0.00000000000E+00 0.  1.
</event>
<event>
 8    1  0.6965441E-009  0.8238994E+02  0.7561462E-02  0.1322403E+00
         -2   -1    0    0    0  501 -0.00000000000E+00  0.00000000000E+00  0.70810746224E+02  0.70810746224E+02  0.00000000000E+00 0. -1.
          2   -1    0    0  501    0  0.00000000000E+00 -0.00000000000E+00 -0.22127201864E+03  0.22127201864E+03  0.00000000000E+00 0.  1.
         25    2    1    2    0    0  0.32943832116E+02 -0.91334134119E+01 -0.21293373076E+02  0.13141394898E+03  0.12508997935E+03 0.  0.
         23    2    1    2    0    0 -0.32943832116E+02  0.91334134119E+01 -0.12916789934E+03  0.16066881589E+03  0.89226716086E+02 0.  0.
          5    1    3    3  502    0  0.54751574089E+02 -0.14892886429E+01 -0.62978767788E+02  0.83568836524E+02  0.41800000000E+01 0. -1.
         -5    1    3    3    0  502 -0.21807741974E+02 -0.76441247690E+01  0.41685394712E+02  0.47845112454E+02  0.41800000000E+01 0. -1.
        -11    1    4    4    0    0  0.55632683430E+01 -0.30560226792E+02 -0.16529705561E+02  0.35186767146E+02  0.00000000000E+00 0.  1.
         11    1    4    4    0    0 -0.38507100459E+02  0.39693640204E+02 -0.11263819378E+03  0.12548204874E+03  0.00000000000E+00 0. -1.
</event>
<event>
 8    1  0.6965441E-009  0.8621205E+02  0.7561462E-02  0.1312293E+00
         -2   -1    0    0    0  501 -0.00000000000E+00  0.00000000000E+00  0.10674621879E+03  0.10674621879E+03  0.00000000000E+00 0.  1.
          2   -1    0    0  501    0  0.00000000000E+00 -0.00000000000E+00 -0.11671990227E+03  0.11671990227E+03  0.00000000000E+00 0. -1.
         25    2    1    2    0    0 -0.73157749578E+01  0.25155606732E+01  0.20614773252E+02  0.12701294174E+03  0.12508984725E+03 0.  0.
         23    2    1    2    0    0  0.73157749578E+01 -0.25155606732E+01 -0.30588456732E+02  0.96453179319E+02  0.91146659329E+02 0.  0.
          5    1    3    3  502    0  0.36454512435E+02 -0.23966993810E+02 -0.31416910144E+02  0.53924418515E+02  0.41800000000E+01 0.  1.
         -5    1    3    3    0  502 -0.43770287393E+02  0.26482554483E+02  0.52031683396E+02  0.73088523227E+02  0.41800000000E+01 0.  1.
        -11    1    4    4    0    0 -0.19078202407E+02 -0.32274051478E+02  0.10833484212E+02  0.39025076375E+02  0.00000000000E+00 0.  1.
         11    1    4    4    0    0  0.26393977365E+02  0.29758490805E+02 -0.41421940945E+02  0.57428102944E+02  0.00000000000E+00 0. -1.
</event>
<event>
 8    1  0.6965441E-009  0.9855600E+02  0.7561462E-02  0.1283362E+00
          2   -1    0    0  501    0  0.00000000000E+00  0.00000000000E+00  0.37301846420E+03  0.37301846420E+03  0.00000000000E+00 0. -1.
         -2   -1    0    0    0  501 -0.00000000000E+00 -0.00000000000E+00 -0.51930065024E+02  0.51930065024E+02  0.00000000000E+00 0.  1.
         25    2    1    2    0    0  0.69180579495E+02  0.49017458235E+02  0.15853873233E+03  0.21901942789E+03  0.12508523636E+03 0.  0.
         23    2    1    2    0    0 -0.69180579495E+02 -0.49017458235E+02  0.16254966685E+03  0.20592910133E+03  0.93785589469E+02 0.  0.
          5    1    3    3  502    0  0.73690925336E+02  0.33175138503E+02  0.25420840899E+02  0.84821187469E+02  0.41800000000E+01 0.  1.
         -5    1    3    3    0  502 -0.45103458415E+01  0.15842319732E+02  0.13311789143E+03  0.13419824042E+03  0.41800000000E+01 0.  1.
        -11    1    4    4    0    0 -0.23025357866E+02 -0.47763217479E+02  0.14847566718E+03  0.15765949319E+03  0.00000000000E+00 0. -1.
         11    1    4    4    0    0 -0.46155221629E+02 -0.12542407563E+01  0.14073999669E+02  0.48269608142E+02  0.00000000000E+00 0.  1.
</event>
<event>
 8    1  0.6965441E-009  0.1344711E+03  0.7561462E-02  0.1220968E+00
         -2   -1    0    0    0  501 -0.00000000000E+00  0.00000000000E+00  0.18550889400E+02  0.18550889400E+02  0.00000000000E+00 0.  1.
          2   -1    0    0  501    0  0.00000000000E+00 -0.00000000000E+00 -0.15453133324E+04  0.15453133324E+04  0.00000000000E+00 0. -1.
         25    2    1    2    0    0  0.79878791514E+02 -0.57806629529E+02 -0.11940694583E+04  0.12046459595E+04  0.12509112231E+03 0.  0.
         23    2    1    2    0    0 -0.79878791514E+02  0.57806629529E+02 -0.33269298474E+03  0.35921826229E+03  0.92902691624E+02 0.  0.
          5    1    3    3  502    0  0.35736176812E+02  0.37967612990E+02 -0.47524071656E+03  0.47811068284E+03  0.41800000000E+01 0. -1.
         -5    1    3    3    0  502  0.44142614702E+02 -0.95774242519E+02 -0.71882874170E+03  0.72653527668E+03  0.41800000000E+01 0. -1.
        -11    1    4    4    0    0 -0.11748862338E+01  0.26287322838E+02 -0.14749645572E+02  0.30165472716E+02  0.00000000000E+00 0.  1.
         11    1    4    4    0    0 -0.78703905280E+02  0.31519306691E+02 -0.31794333917E+03  0.32905278957E+03  0.00000000000E+00 0. -1.
</event>
<event>
 8    1  0.6965441E-009  0.9645355E+02  0.7561462E-02  0.1287935E+00
          1   -1    0    0  501    0  0.00000000000E+00  0.00000000000E+00  0.14936893871E+04  0.14936893871E+04  0.00000000000E+00 0. -1.
         -1   -1    0    0    0  501 -0.00000000000E+00 -0.00000000000E+00 -0.16425252216E+02  0.16425252216E+02  0.00000000000E+00 0.  1.
         25    2    1    2    0    0 -0.73749552367E+02  0.41573765172E+02  0.11523358026E+04  0.11621930046E+04  0.12508958191E+03 0.  0.
         23    2    1    2    0    0  0.73749552367E+02 -0.41573765172E+02  0.32492833228E+03  0.34792163474E+03  0.91124466398E+02 0.  0.
          5    1    3    3  502    0 -0.21918668703E+01  0.53631888749E+00  0.81072444901E+03  0.81073836504E+03  0.41800000000E+01 0. -1.
         -5    1    3    3    0  502 -0.71557685497E+02  0.41037446284E+02  0.34161135358E+03  0.35145463953E+03  0.41800000000E+01 0. -1.
        -11    1    4    4    0    0  0.16085220693E+02 -0.45006766028E+02  0.24312294606E+03  0.24777633102E+03  0.00000000000E+00 0.  1.
         11    1    4    4    0    0  0.57664331675E+02  0.34330008558E+01  0.81805386222E+02  0.10014530372E+03  0.00000000000E+00 0. -1.
</event>
<event>
 8    1  0.6965441E-009  0.1183460E+03  0.7561462E-02  0.1245851E+00
         -1   -1    0    0    0  501 -0.00000000000E+00  0.00000000000E+00  0.30937656557E+02  0.30937656557E+02  0.00000000000E+00 0.  1.
          1   -1    0    0  501    0  0.00000000000E+00 -0.00000000000E+00 -0.59212806193E+03  0.59212806193E+03  0.00000000000E+00 0. -1.
         25    2    1    2    0    0  0.26260433999E+02 -0.80526923811E+02 -0.24596169368E+03  0.28863149306E+03  0.12504714382E+03 0.  0.
         23    2    1    2    0    0 -0.26260433999E+02  0.80526923811E+02 -0.31522871169E+03  0.33443422542E+03  0.72821113756E+02 0.  0.
          5    1    3    3  502    0 -0.43163882529E+02 -0.59477040920E+02 -0.87780563426E+02  0.11455801529E+03  0.41800000000E+01 0.  1.
         -5    1    3    3    0  502  0.69424316528E+02 -0.21049882891E+02 -0.15818113026E+03  0.17407347777E+03  0.41800000000E+01 0.  1.
        -11    1    4    4    0    0 -0.29327132073E+02  0.39090499534E+02 -0.68001206210E+02  0.83739547858E+02  0.00000000000E+00 0.  1.
         11    1    4    4    0    0  0.30666980734E+01  0.41436424276E+02 -0.24722750548E+03  0.25069467756E+03  0.00000000000E+00 0. -1.
</event>
<event>
 7    1  0.6965441E-009  0.1222112E+03  0.7561462E-02  0.1239493E+00
          3   -1    0    0  501    0  0.00000000000E+00  0.00000000000E+00  0.12754109594E+03  0.12754109594E+03  0.00000000000E+00 0. -1.
         -3   -1    0    0    0  501 -0.00000000000E+00 -0.00000000000E+00 -0.27839191974E+03  0.27839191974E+03  0.00000000000E+00 0.  1.
         25    2    1    2    0    0 -0.52184518810E+02 -0.40268035134E+02 -0.16783123913E+03  0.21945291803E+03  0.12509004656E+03 0.  0.
          5    1    3    3  502    0 -0.26409753290E+02  0.16096737203E+01  0.14570151937E+02  0.30493078653E+02  0.41800000000E+01 0.  1.
         -5    1    3    3    0  502 -0.25774765521E+02 -0.41877708855E+02 -0.18240139106E+03  0.18895983938E+03  0.41800000000E+01 0.  1.
        -11    1    1    2    0    0 -0.54720283114E+02  0.25478677865E+02 -0.31593931655E+02  0.68129647931E+02  0.00000000000E+00 0. -1.
         11    1    1    2    0    0  0.10690480192E+03  0.14789357270E+02  0.48574346986E+02  0.11835044972E+03  0.00000000000E+00 0.  1.
</event>
<event>
 8    1  0.6965441E-009  0.7109230E+02  0.7561462E-02  0.1356418E+00
         -2   -1    0    0    0  501 -0.00000000000E+00  0.00000000000E+00  0.12346258828E+04  0.12346258828E+04  0.00000000000E+00 0.  1.
          2   -1    0    0  501    0  0.00000000000E+00 -0.00000000000E+00 -0.12323425913E+02  0.12323425913E+02  0.00000000000E+00 0. -1.
         25    2    1    2    0    0 -0.12057783888E+02  0.33061005611E+02  0.91892503985E+03  0.92806750317E+03  0.12509053254E+03 0.  0.
         23    2    1    2    0    0  0.12057783888E+02 -0.33061005611E+02  0.30337741702E+03  0.31888180552E+03  0.91702390882E+02 0.  0.
          5    1    3    3  502    0 -0.16994852367E+02  0.47449746423E+02  0.90669946369E+03  0.90810885543E+03  0.41800000000E+01 0. -1.
         -5    1    3    3    0  502  0.49370684787E+01 -0.14388740811E+02  0.12225576153E+02  0.19958647739E+02  0.41800000000E+01 0. -1.
        -11    1    4    4    0    0  0.26689411787E+02 -0.48001465091E+02  0.28730400162E+03  0.29250650368E+03  0.00000000000E+00 0.  1.
         11    1    4    4    0    0 -0.14631627899E+02  0.14940459480E+02  0.16073415398E+02  0.26375301837E+02  0.00000000000E+00 0. -1.
</event>
<event>
 8    1  0.6965441E-009  0.1109112E+03  0.7561462E-02  0.1258892E+00
          2   -1    0    0  501    0  0.00000000000E+00  0.00000000000E+00  0.58633204773E+02  0.58633204773E+02  0.00000000000E+00 0. -1.
         -2   -1    0    0    0  501 -0.00000000000E+00 -0.00000000000E+00 -0.33963646309E+03  0.33963646309E+03  0.00000000000E+00 0.  1.
         25    2    1    2    0    0  0.89170826939E+02 -0.11177260392E+02 -0.16316066378E+03  0.22437878932E+03  0.12509225143E+03 0.  0.
         23    2    1    2    0    0 -0.89170826939E+02  0.11177260392E+02 -0.11784259454E+03  0.17389087854E+03  0.90965889346E+02 0.  0.
          5    1    3    3  502    0  0.23925577189E+02  0.19404323424E+02  0.13234883395E+02  0.33787505825E+02  0.41800000000E+01 0.  1.
         -5    1    3    3    0  502  0.65245249750E+02 -0.30581583816E+02 -0.17639554717E+03  0.19059128350E+03  0.41800000000E+01 0.  1.
        -11    1    4    4    0    0 -0.28666326247E+02  0.41846346458E+02 -0.19328294292E+02  0.54281285289E+02  0.00000000000E+00 0. -1.
         11    1    4    4    0    0 -0.60504500692E+02 -0.30669086066E+02 -0.98514300250E+02  0.11960959325E+03  0.00000000000E+00 0.  1.
</event>
<event>
 8    1  0.6965441E-009  0.1240469E+03  0.7561462E-02  0.1236566E+00
          3   -1    0    0  501    0  0.00000000000E+00  0.00000000000E+00  0.18209155389E+02  0.18209155389E+02  0.00000000000E+00 0. -1.
         -3   -1    0    0    0  501 -0.00000000000E+00 -0.00000000000E+00 -0.88209161732E+03  0.88209161732E+03  0.00000000000E+00 0.  1.
         25    2    1    2    0    0 -0.47855557658E+02  0.43918521017E+02 -0.53477285761E+03  0.55303793148E+03  0.12509977431E+03 0.  0.
         23    2    1    2    0    0  0.47855557658E+02 -0.43918521017E+02 -0.32910960432E+03  0.34726284123E+03  0.89773929150E+02 0.  0.
          5    1    3    3  502    0 -0.66654318087E+02 -0.23187739734E+02 -0.29103815404E+03  0.29950150066E+03  0.41800000000E+01 0. -1.
         -5    1    3    3    0  502  0.18798760428E+02  0.67106260751E+02 -0.24373470357E+03  0.25353643082E+03  0.41800000000E+01 0. -1.
        -11    1    4    4    0    0 -0.63746838738E+00  0.24066587290E+02 -0.43765914486E+02  0.49950598200E+02  0.00000000000E+00 0. -1.
         11    1    4    4    0    0  0.48493026046E+02 -0.67985108307E+02 -0.28534368983E+03  0.29731224303E+03  0.00000000000E+00 0.  1.
</event>
<event>
 8    1  0.6965441E-009  0.1285876E+03  0.7561462E-02  0.1229567E+00
          1   -1    0    0  501    0  0.00000000000E+00  0.00000000000E+00  0.27956287701E+03  0.27956287701E+03  0.00000000000E+00 0. -1.
         -1   -1    0    0    0  501 -0.00000000000E+00 -0.00000000000E+00 -0.99973547371E+02  0.99973547371E+02  0.00000000000E+00 0.  1.
         25    2    1    2    0    0 -0.71973698171E+02 -0.63546814634E+02  0.19207896255E+03  0.24851585747E+03  0.12508953867E+03 0.  0.
         23    2    1    2    0    0  0.71973698171E+02  0.63546814634E+02 -0.12489632906E+02  0.13102056691E+03  0.88272233140E+02 0.  0.
          5    1    3    3  502    0 -0.24376963171E+02 -0.90263370909E+02  0.77430631170E+02  0.12146887463E+03  0.41800000000E+01 0. -1.
         -5    1    3    3    0  502 -0.47596735000E+02  0.26716556274E+02  0.11464833138E+03  0.12704698284E+03  0.41800000000E+01 0. -1.
        -11    1    4    4    0    0 -0.94635528003E+00  0.27469922258E+02 -0.36963258926E+02  0.46062726012E+02  0.00000000000E+00 0.  1.
         11    1    4    4    0    0  0.72920053451E+02  0.36076892376E+02  0.24473626020E+02  0.84957840894E+02  0.00000000000E+00 0. -1.
</event>
<event>
 8    1  0.6965441E-009  0.3201864E+03  0.7561462E-02  0.1075564E+00
          1   -1    0    0  501    0  0.00000000000E+00  0.00000000000E+00  0.61496594155E+03  0.61496594155E+03  0.00000000000E+00 0. -1.
         -1   -1    0    0    0  501 -0.00000000000E+00 -0.00000000000E+00 -0.18686686420E+03  0.18686686420E+03  0.00000000000E+00 0.  1.
         25    2    1    2    0    0 -0.30945332354E+02  0.31526538927E+03  0.27582920858E+03  0.43826617400E+03  0.12508240365E+03 0.  0.
         23    2    1    2    0    0  0.30945332354E+02 -0.31526538927E+03  0.15226986877E+03  0.36356663175E+03  0.92976897772E+02 0.  0.
          5    1    3    3  502    0 -0.40790372617E+02  0.28941453859E+03  0.28556592480E+03  0.40864409877E+03  0.41800000000E+01 0. -1.
         -5    1    3    3    0  502  0.98450402630E+01  0.25850850679E+02 -0.97367162220E+01  0.29622075238E+02  0.41800000000E+01 0. -1.
        -11    1    4    4    0    0  0.10094015972E+01 -0.22479626735E+03  0.14603761969E+03  0.26806970562E+03  0.00000000000E+00 0. -1.
         11    1    4    4    0    0  0.29935930757E+02 -0.90469121919E+02  0.62322490781E+01  0.95496926127E+02  0.00000000000E+00 0.  1.
</event>
<event>
 8    1  0.6965441E-009  0.1133921E+03  0.7561462E-02  0.1254414E+00
          1   -1    0    0  501    0  0.00000000000E+00  0.00000000000E+00  0.24636293934E+03  0.24636293934E+03  0.00000000000E+00 0. -1.
         -1   -1    0    0    0  501 -0.00000000000E+00 -0.00000000000E+00 -0.71939463299E+02  0.71939463299E+02  0.00000000000E+00 0.  1.
         25    2    1    2    0    0  0.41194386964E+02 -0.58051091235E+02  0.62613209384E+02  0.15695606808E+03  0.12509151292E+03 0.  0.
         23    2    1    2    0    0 -0.41194386964E+02  0.58051091235E+02  0.11181026666E+03  0.16134633456E+03  0.92001071930E+02 0.  0.
          5    1    3    3  502    0  0.16715003127E+01  0.37050313125E+02  0.19858213642E+01  0.37375600363E+02  0.41800000000E+01 0. -1.
         -5    1    3    3    0  502  0.39522886651E+02 -0.95101404360E+02  0.60627388020E+02  0.11958046771E+03  0.41800000000E+01 0. -1.
        -11    1    4    4    0    0  0.66792537587E+01  0.30356182571E+02 -0.55804912530E+01  0.31579299132E+02  0.00000000000E+00 0.  1.
         11    1    4    4    0    0 -0.47873640722E+02  0.27694908664E+02  0.11739075791E+03  0.12976703543E+03  0.00000000000E+00 0. -1.
</event>
<event>
 8    1  0.6965441E-009  0.9102305E+02  0.7561462E-02  0.1300393E+00
         -2   -1    0    0    0  501 -0.00000000000E+00  0.00000000000E+00  0.48227239243E+02  0.48227239243E+02  0.00000000000E+00 0.  1.
          2   -1    0    0  501    0  0.00000000000E+00 -0.00000000000E+00 -0.27837016224E+03  0.27837016224E+03  0.00000000000E+00 0. -1.
         25    2    1    2    0    0  0.79593359743E+01 -0.29580680020E+02 -0.97167862644E+02  0.16132971939E+03  0.12508923682E+03 0.  0.
         23    2    1    2    0    0 -0.79593359743E+01  0.29580680020E+02 -0.13297506035E+03  0.16526768209E+03  0.93234502239E+02 0.  0.
          5    1    3    3  502    0 -0.23072870367E+02 -0.44517239883E+02 -0.11262224732E+03  0.12335065863E+03  0.41800000000E+01 0. -1.
         -5    1    3    3    0  502  0.31032206341E+02  0.14936559863E+02  0.15454384672E+02  0.37979060765E+02  0.41800000000E+01 0. -1.
        -11    1    4    4    0    0 -0.49915552080E+02  0.10799641264E+02 -0.57587962359E+02  0.76971215396E+02  0.00000000000E+00 0.  1.
         11    1    4    4    0    0  0.41956216105E+02  0.18781038755E+02 -0.75387097991E+02  0.88296466691E+02  0.00000000000E+00 0. -1.
</event>
<event>
 8    1  0.6965441E-009  0.1462996E+03  0.7561462E-02  0.1205095E+00
         -2   -1    0    0    0  501 -0.00000000000E+00  0.00000000000E+00  0.14668280326E+03  0.14668280326E+03  0.00000000000E+00 0.  1.
          2   -1    0    0  501    0  0.00000000000E+00 -0.00000000000E+00 -0.18009336846E+03  0.18009336846E+03  0.00000000000E+00 0. -1.
         25    2    1    2    0    0  0.50859346618E+02 -0.10750693967E+03 -0.29470610201E+02  0.17509785349E+03  0.12508527577E+03 0.  0.
         23    2    1    2    0    0 -0.50859346618E+02  0.10750693967E+03 -0.39399549972E+01  0.15167831824E+03  0.94055163400E+02 0.  0.
          5    1    3    3  502    0 -0.25175039900E+02  0.40180850857E+01  0.18514196552E+02  0.31783258418E+02  0.41800000000E+01 0. -1.
         -5    1    3    3    0  502  0.76034386518E+02 -0.11152502476E+03 -0.47984806752E+02  0.14331459507E+03  0.41800000000E+01 0. -1.
        -11    1    4    4    0    0 -0.14426256841E+02  0.90273792527E+02  0.32816868186E+02  0.97130949451E+02  0.00000000000E+00 0.  1.
         11    1    4    4    0    0 -0.36433089777E+02  0.17233147147E+02 -0.36756823184E+02  0.54547368789E+02  0.00000000000E+00 0. -1.
</event>
<event>
 8    1  0.6965441E-009  0.1154006E+03  0.7561462E-02  0.1250883E+00
          1   -1    0    0  501    0  0.00000000000E+00  0.00000000000E+00  0.24972266944E+03  0.24972266944E+03  0.00000000000E+00 0. -1.
         -1   -1    0    0    0  501 -0.00000000000E+00 -0.00000000000E+00 -0.71966459500E+02  0.71966459500E+02  0.00000000000E+00 0.  1.
         25    2    1    2    0    0  0.64830551770E+02  0.45221672288E+02  0.96830931880E+02  0.17685018529E+03  0.12510698854E+03 0.  0.
         23    2    1    2    0    0 -0.64830551770E+02 -0.45221672288E+02  0.80925278057E+02  0.14483894365E+03  0.90451196127E+02 0.  0.
          5    1    3    3  502    0  0.69807449143E+01 -0.33758444124E+02 -0.55125323567E+01  0.35159973865E+02  0.41800000000E+01 0.  1.
         -5    1    3    3    0  502  0.57849806855E+02  0.78980116411E+02  0.10234346424E+03  0.14169021142E+03  0.41800000000E+01 0.  1.
        -11    1    4    4    0    0 -0.40238781200E+02  0.65526505589E+01  0.77317551380E+02  0.87407668389E+02  0.00000000000E+00 0. -1.
         11    1    4    4    0    0 -0.24591770570E+02 -0.51774322847E+02  0.36077266772E+01  0.57431275258E+02  0.00000000000E+00 0.  1.
</event>
<event>
 8    1  0.6965441E-009  0.1408807E+03  0.7561462E-02  0.1212149E+00
          2   -1    0    0  501    0  0.00000000000E+00  0.00000000000E+00  0.16384942716E+04  0.16384942716E+04  0.00000000000E+00 0.  1.
         -2   -1    0    0    0  501 -0.00000000000E+00 -0.00000000000E+00 -0.35427817314E+02  0.35427817314E+02  0.00000000000E+00 0. -1.
         25    2    1    2    0    0  0.25980723027E+01  0.12006175093E+03  0.14383438049E+04  0.14487587580E+04  0.12508982255E+03 0.  0.
         23    2    1    2    0    0 -0.25980723027E+01 -0.12006175093E+03  0.16472264939E+03  0.22516333094E+03  0.95621129261E+02 0.  0.
          5    1    3    3  502    0  0.19167720602E+02 -0.15329828695E+02  0.49162345574E+03  0.49225349140E+03  0.41800000000E+01 0. -1.
         -5    1    3    3    0  502 -0.16569648299E+02  0.13539157963E+03  0.94672034920E+03  0.95650526662E+03  0.41800000000E+01 0. -1.
        -11    1    4    4    0    0  0.24241128136E+01 -0.78005782707E+02  0.29450346073E+02  0.83415234475E+02  0.00000000000E+00 0. -1.
         11    1    4    4    0    0 -0.50221851163E+01 -0.42055968225E+02  0.13527230332E+03  0.14174809646E+03  0.00000000000E+00 0.  1.
</event>
<event>
 8    1  0.6965441E-009  0.1348232E+03  0.7561462E-02  0.1220469E+00
         -2   -1    0    0    0  501 -0.00000000000E+00  0.00000000000E+00  0.82973751013E+02  0.82973751013E+02  0.00000000000E+00 0.  1.
          2   -1    0    0  501    0  0.00000000000E+00 -0.00000000000E+00 -0.27998134658E+03  0.27998134658E+03  0.00000000000E+00 0. -1.
         25    2    1    2    0    0 -0.28727856354E+02  0.10218793613E+03 -0.12139340446E+03  0.20408718084E+03  0.12509018633E+03 0.  0.
         23    2    1    2    0    0  0.28727856354E+02 -0.10218793613E+03 -0.75614191107E+02  0.15886791675E+03  0.90850674496E+02 0.  0.
          5    1    3    3  502    0 -0.29036899169E+02 -0.19590380967E+02 -0.50900360381E+01  0.35641344064E+02  0.41800000000E+01 0. -1.
         -5    1    3    3    0  502  0.30904281486E+00  0.12177831709E+03 -0.11630336842E+03  0.16844583678E+03  0.41800000000E+01 0. -1.
        -11    1    4    4    0    0  0.37783641328E+02 -0.77405232549E+02 -0.82597459879E+01  0.86529746225E+02  0.00000000000E+00 0.  1.
         11    1    4    4    0    0 -0.90557849733E+01 -0.24782703576E+02 -0.67354445119E+02  0.72338170528E+02  0.00000000000E+00 0. -1.
</event>
<event>
 8    1  0.6965441E-009  0.1526195E+03  0.7561462E-02  0.1197291E+00
          1   -1    0    0  501    0  0.00000000000E+00  0.00000000000E+00  0.75802960685E+03  0.75802960685E+03  0.00000000000E+00 0. -1.
         -1   -1    0    0    0  501 -0.00000000000E+00 -0.00000000000E+00 -0.47897348340E+02  0.47897348340E+02  0.00000000000E+00 0.  1.
         25    2    1    2    0    0 -0.37973712665E+02 -0.12293106826E+03  0.54457586293E+03  0.57338019299E+03  0.12509166570E+03 0.  0.
         23    2    1    2    0    0  0.37973712665E+02  0.12293106826E+03  0.16555639558E+03  0.23254676220E+03  0.10057348605E+03 0.  0.
          5    1    3    3  502    0  0.34972299617E+02 -0.73840012051E+02  0.17084130365E+03  0.18941919795E+03  0.41800000000E+01 0. -1.
         -5    1    3    3    0  502 -0.72946012282E+02 -0.49091056214E+02  0.37373455928E+03  0.38396099504E+03  0.41800000000E+01 0. -1.
        -11    1    4    4    0    0  0.31740204030E+02  0.34988882547E+02  0.12850790655E+03  0.13691582998E+03  0.00000000000E+00 0. -1.
         11    1    4    4    0    0  0.62335086341E+01  0.87942185717E+02  0.37048489035E+02  0.95630932226E+02  0.00000000000E+00 0.  1.
</event>
<event>
 8    1  0.6965441E-009  0.1765608E+03  0.7561462E-02  0.1171174E+00
          2   -1    0    0  501    0  0.00000000000E+00  0.00000000000E+00  0.90951463646E+03  0.90951463646E+03  0.00000000000E+00 0. -1.
         -2   -1    0    0    0  501 -0.00000000000E+00 -0.00000000000E+00 -0.43207612193E+02  0.43207612193E+02  0.00000000000E+00 0.  1.
         25    2    1    2    0    0  0.24154332302E+01  0.16389508073E+03  0.41678133627E+03  0.46499613271E+03  0.12508912571E+03 0.  0.
         23    2    1    2    0    0 -0.24154332302E+01 -0.16389508073E+03  0.44952568799E+03  0.48772611594E+03  0.94530355951E+02 0.  0.
          5    1    3    3  502    0 -0.13453529394E+02  0.16994880425E+03  0.41338516829E+03  0.44717822318E+03  0.41800000000E+01 0. -1.
         -5    1    3    3    0  502  0.15868962624E+02 -0.60537235254E+01  0.33961679781E+01  0.17817909536E+02  0.41800000000E+01 0. -1.
        -11    1    4    4    0    0  0.82333418061E+01 -0.46646107333E+02  0.26243120772E+03  0.26667168209E+03  0.00000000000E+00 0. -1.
         11    1    4    4    0    0 -0.10648775036E+02 -0.11724897339E+03  0.18709448027E+03  0.22105443384E+03  0.00000000000E+00 0.  1.
</event>
<event>
 8    1  0.6965441E-009  0.8686238E+02  0.7561462E-02  0.1310633E+00
          1   -1    0    0  501    0  0.00000000000E+00  0.00000000000E+00  0.17139191421E+03  0.17139191421E+03  0.00000000000E+00 0. -1.
         -1   -1    0    0    0  501 -0.00000000000E+00 -0.00000000000E+00 -0.84023988199E+02  0.84023988199E+02  0.00000000000E+00 0.  1.
         25    2    1    2    0    0 -0.30613913380E+02 -0.26333415166E+02  0.87519434060E+02  0.15792449058E+03  0.12509929232E+03 0.  0.
         23    2    1    2    0    0  0.30613913380E+02  0.26333415166E+02 -0.15150804822E+00  0.97491411832E+02  0.88734953539E+02 0.  0.
          5    1    3    3  502    0  0.46010398283E+02  0.74251137117E+01  0.39991237350E+02  0.61553720672E+02  0.41800000000E+01 0.  1.
         -5    1    3    3    0  502 -0.76624311663E+02 -0.33758528878E+02  0.47528196710E+02  0.96370769906E+02  0.41800000000E+01 0.  1.
        -11    1    4    4    0    0  0.27221923037E+02  0.14615169558E+02 -0.42994792005E+02  0.52945145335E+02  0.00000000000E+00 0.  1.
         11    1    4    4    0    0  0.33919903437E+01  0.11718245608E+02  0.42843283956E+02  0.44546266497E+02  0.00000000000E+00 0. -1.
</event>
<event>
 8    1  0.6965441E-009  0.1392249E+03  0.7561462E-02  0.1214376E+00
         -1   -1    0    0    0  501 -0.00000000000E+00  0.00000000000E+00  0.25178333352E+03  0.25178333352E+03  0.00000000000E+00 0.  1.
          1   -1    0    0  501    0  0.00000000000E+00 -0.00000000000E+00 -0.15000151384E+03  0.15000151384E+03  0.00000000000E+00 0. -1.
         25    2    1    2    0    0 -0.28932825477E+02  0.11261277360E+03 -0.61140699389E+02  0.18139383190E+03  0.12508713747E+03 0.  0.
         23    2    1    2    0    0  0.28932825477E+02 -0.11261277360E+03  0.16292251907E+03  0.22039101546E+03  0.92248074812E+02 0.  0.
          5    1    3    3  502    0  0.92755173167E+01 -0.12363453036E+01 -0.60365232310E+02  0.61229057180E+02  0.41800000000E+01 0.  1.
         -5    1    3    3    0  502 -0.38208342793E+02  0.11384911891E+03 -0.77546707899E+00  0.12016477472E+03  0.41800000000E+01 0.  1.
        -11    1    4    4    0    0  0.56762854255E+02 -0.37747350614E+02  0.67188365891E+02  0.95713952027E+02  0.00000000000E+00 0.  1.
         11    1    4    4    0    0 -0.27830028778E+02 -0.74865422990E+02  0.95734153182E+02  0.12467706343E+03  0.00000000000E+00 0. -1.
</event>
<event>
 8    1  0.6965441E-009  0.1411014E+03  0.7561462E-02  0.1211855E+00
          1   -1    0    0  501    0  0.00000000000E+00  0.00000000000E+00  0.53374875788E+03  0.53374875788E+03  0.00000000000E+00 0. -1.
         -1   -1    0    0    0  501 -0.00000000000E+00 -0.00000000000E+00 -0.52698530919E+02  0.52698530919E+02  0.00000000000E+00 0.  1.
         25    2    1    2    0    0 -0.86385875530E+02 -0.34086651273E+02  0.40932301679E+03  0.43796593214E+03  0.12507760135E+03 0.  0.
         23    2    1    2    0    0  0.86385875530E+02  0.34086651273E+02  0.71727210171E+02  0.14848135665E+03  0.90980774391E+02 0.  0.
          5    1    3    3  502    0 -0.92619808906E+02  0.23207033728E+02  0.29088886403E+03  0.30618752266E+03  0.41800000000E+01 0. -1.
         -5    1    3    3    0  502  0.62339333768E+01 -0.57293685002E+02  0.11843415276E+03  0.13177840948E+03  0.41800000000E+01 0. -1.
        -11    1    4    4    0    0  0.58465107573E+02 -0.24928927454E+02  0.45294947994E+02  0.78046476803E+02  0.00000000000E+00 0.  1.
         11    1    4    4    0    0  0.27920767957E+02  0.59015578728E+02  0.26432262177E+02  0.70434879851E+02  0.00000000000E+00 0. -1.
</event>
<event>
 8    1  0.6965441E-009  0.6824288E+02  0.7561462E-02  0.1366172E+00
         -2   -1    0    0    0  501 -0.00000000000E+00  0.00000000000E+00  0.10844393955E+03  0.10844393955E+03  0.00000000000E+00 0.  1.
          2   -1    0    0  501    0  0.00000000000E+00 -0.00000000000E+00 -0.22064947382E+03  0.22064947382E+03  0.00000000000E+00 0. -1.
         25    2    1    2    0    0  0.52093952110E+01  0.46688076199E+02 -0.16449104368E+03  0.21191889755E+03  0.12508157911E+03 0.  0.
         23    2    1    2    0    0 -0.52093952110E+01 -0.46688076199E+02  0.52285509408E+02  0.11717451582E+03  0.93750618161E+02 0.  0.
          5    1    3    3  502    0  0.26379390402E+02 -0.74987177492E+01  0.87777312212E+01  0.29096803455E+02  0.41800000000E+01 0. -1.
         -5    1    3    3    0  502 -0.21169995191E+02  0.54186793948E+02 -0.17326877490E+03  0.18282209410E+03  0.41800000000E+01 0. -1.
        -11    1    4    4    0    0  0.49068453426E+01 -0.33191088145E+02  0.78858964481E+02  0.85699835137E+02  0.00000000000E+00 0.  1.
         11    1    4    4    0    0 -0.10116240554E+02 -0.13496988054E+02 -0.26573455073E+02  0.31474680682E+02  0.00000000000E+00 0. -1.
</event>
<event>
 8    1  0.6965441E-009  0.8829851E+02  0.7561462E-02  0.1307025E+00
          1   -1    0    0  501    0  0.00000000000E+00  0.00000000000E+00  0.34605049899E+03  0.34605049899E+03  0.00000000000E+00 0. -1.
         -1   -1    0    0    0  501 -0.00000000000E+00 -0.00000000000E+00 -0.47981384291E+02  0.47981384291E+02  0.00000000000E+00 0.  1.
         25    2    1    2    0    0 -0.43737351123E+02  0.28595303021E+02  0.23383957133E+03  0.27029344704E+03  0.12508778977E+03 0.  0.
         23    2    1    2    0    0  0.43737351123E+02 -0.28595303021E+02  0.64229543364E+02  0.12373843624E+03  0.91951721708E+02 0.  0.
          5    1    3    3  502    0 -0.44805771022E+02 -0.91983353689E+00  0.12170098730E+02  0.46626032575E+02  0.41800000000E+01 0.  1.
         -5    1    3    3    0  502  0.10684198988E+01  0.29515136558E+02  0.22166947260E+03  0.22366741446E+03  0.41800000000E+01 0.  1.
        -11    1    4    4    0    0  0.57845418752E+02  0.11742039639E+02  0.20212691923E+02  0.62390070366E+02  0.00000000000E+00 0.  1.
         11    1    4    4    0    0 -0.14108067629E+02 -0.40337342660E+02  0.44016851441E+02  0.61348365878E+02  0.00000000000E+00 0. -1.
</event>
<event>
 8    1  0.6965441E-009  0.2371947E+03  0.7561462E-02  0.1121676E+00
          1   -1    0    0  501    0  0.00000000000E+00  0.00000000000E+00  0.69313510749E+02  0.69313510749E+02  0.00000000000E+00 0. -1.
         -1   -1    0    0    0  501 -0.00000000000E+00 -0.00000000000E+00 -0.10986868018E+04  0.10986868018E+04  0.00000000000E+00 0.  1.
         25    2    1    2    0    0  0.11616062900E+03 -0.17604834994E+03 -0.82398533624E+03  0.85970130679E+03  0.12509272286E+03 0.  0.
         23    2    1    2    0    0 -0.11616062900E+03  0.17604834994E+03 -0.20538795478E+03  0.30829900573E+03  0.91530059096E+02 0.  0.
          5    1    3    3  502    0  0.13250758651E+03 -0.97721725901E+02 -0.57695744551E+03  0.60000430209E+03  0.41800000000E+01 0.  1.
         -5    1    3    3    0  502 -0.16346957505E+02 -0.78326624036E+02 -0.24702789074E+03  0.25969700471E+03  0.41800000000E+01 0.  1.
        -11    1    4    4    0    0 -0.71538911597E+02  0.17012615387E+03 -0.17171443154E+03  0.25208445034E+03  0.00000000000E+00 0.  1.
         11    1    4    4    0    0 -0.44621717404E+02  0.59221960694E+01 -0.33673523240E+02  0.56214555391E+02  0.00000000000E+00 0. -1.
</event>
<event>
 8    1  0.6965441E-009  0.9908812E+02  0.7561462E-02  0.1282225E+00
          1   -1    0    0  501    0  0.00000000000E+00  0.00000000000E+00  0.11508098392E+04  0.11508098392E+04  0.00000000000E+00 0. -1.
         -1   -1    0    0    0  501 -0.00000000000E+00 -0.00000000000E+00 -0.17732879279E+02  0.17732879279E+02  0.00000000000E+00 0.  1.
         25    2    1    2    0    0  0.19617035502E+02 -0.30394624793E+02  0.97867645642E+03  0.98730143524E+03  0.12509139207E+03 0.  0.
         23    2    1    2    0    0 -0.19617035502E+02  0.30394624793E+02  0.15440050346E+03  0.18124128320E+03  0.87750931448E+02 0.  0.
          5    1    3    3  502    0  0.31466806074E+02 -0.61849576937E+02  0.88434027689E+03  0.88706861503E+03  0.41800000000E+01 0. -1.
         -5    1    3    3    0  502 -0.11849770572E+02  0.31454952144E+02  0.94336179534E+02  0.10023282020E+03  0.41800000000E+01 0. -1.
        -11    1    4    4    0    0  0.11336773827E+01  0.59239980790E+02  0.91862941046E+02  0.10931358784E+03  0.00000000000E+00 0.  1.
         11    1    4    4    0    0 -0.20750712885E+02 -0.28845355997E+02  0.62537562412E+02  0.71927695363E+02  0.00000000000E+00 0. -1.
</event>
<event>
 8    1  0.6965441E-009  0.1835026E+03  0.7561462E-02  0.1164456E+00
         -1   -1    0    0    0  501 -0.00000000000E+00  0.00000000000E+00  0.45291842944E+02  0.45291842944E+02  0.00000000000E+00 0.  1.
          1   -1    0    0  501    0  0.00000000000E+00 -0.00000000000E+00 -0.10258989212E+04  0.10258989212E+04  0.00000000000E+00 0. -1.
         25    2    1    2    0    0  0.14462255993E+03  0.33507401811E+02 -0.23249429644E+03  0.30288693283E+03  0.12509382632E+03 0.  0.
         23    2    1    2    0    0 -0.14462255993E+03 -0.33507401811E+02 -0.74811278179E+03  0.76830383129E+03  0.92626195447E+02 0.  0.
          5    1    3    3  502    0 -0.21825125741E+02  0.99757856930E+01 -0.43967053488E+02  0.50263571364E+02  0.41800000000E+01 0.  1.
         -5    1    3    3    0  502  0.16644768567E+03  0.23531616118E+02 -0.18852724295E+03  0.25262336147E+03  0.41800000000E+01 0.  1.
        -11    1    4    4    0    0 -0.30628564864E+02  0.30944358822E+02 -0.21254954896E+03  0.21696306849E+03  0.00000000000E+00 0.  1.
         11    1    4    4    0    0 -0.11399399506E+03 -0.64451760633E+02 -0.53556323283E+03  0.55134076279E+03  0.00000000000E+00 0. -1.
</event>
<event>
 8    1  0.6965441E-009  0.6846581E+02  0.7561462E-02  0.1365389E+00
          2   -1    0    0  501    0  0.00000000000E+00  0.00000000000E+00  0.39105375548E+02  0.39105375548E+02  0.00000000000E+00 0. -1.
         -2   -1    0    0    0  501 -0.00000000000E+00 -0.00000000000E+00 -0.31648069341E+03  0.31648069341E+03  0.00000000000E+00 0.  1.
         25    2    1    2    0    0  0.22522412455E+02  0.20171085867E+02 -0.17785759900E+03  0.21953436211E+03  0.12509148195E+03 0.  0.
         23    2    1    2    0    0 -0.22522412455E+02 -0.20171085867E+02 -0.99517718862E+02  0.13605170685E+03  0.87704953117E+02 0.  0.
          5    1    3    3  502    0  0.10449747073E+02 -0.76083590669E+01  0.17299704380E+02  0.21996284077E+02  0.41800000000E+01 0. -1.
         -5    1    3    3    0  502  0.12072665382E+02  0.27779444933E+02 -0.19515730338E+03  0.19753807803E+03  0.41800000000E+01 0. -1.
        -11    1    4    4    0    0 -0.10036578627E+02 -0.54928541689E+02 -0.59987098183E+02  0.81953215624E+02  0.00000000000E+00 0.  1.
         11    1    4    4    0    0 -0.12485833828E+02  0.34757455822E+02 -0.39530620678E+02  0.54098491225E+02  0.00000000000E+00 0. -1.
</event>
<event>
 8    1  0.6965441E-009  0.1621077E+03  0.7561462E-02  0.1186337E+00
          2   -1    0    0  501    0  0.00000000000E+00  0.00000000000E+00  0.33345952795E+03  0.33345952795E+03  0.00000000000E+00 0. -1.
         -2   -1    0    0    0  501 -0.00000000000E+00 -0.00000000000E+00 -0.92321963288E+02  0.92321963288E+02  0.00000000000E+00 0.  1.
         25    2    1    2    0    0 -0.12258043872E+03 -0.65492839262E+02  0.13812375381E+03  0.23246392244E+03  0.12508408339E+03 0.  0.
         23    2    1    2    0    0  0.12258043872E+03  0.65492839262E+02  0.10301381085E+03  0.19331756879E+03  0.86281870786E+02 0.  0.
          5    1    3    3  502    0 -0.60214611747E+02 -0.77126264876E+02  0.22463440455E+02  0.10048053920E+03  0.41800000000E+01 0.  1.
         -5    1    3    3    0  502 -0.62365826975E+02  0.11633425614E+02  0.11566031335E+03  0.13198338324E+03  0.41800000000E+01 0.  1.
        -11    1    4    4    0    0  0.11314062883E+03  0.18348479825E+02  0.63169454134E+02  0.13087340654E+03  0.00000000000E+00 0. -1.
         11    1    4    4    0    0  0.94398098942E+01  0.47144359437E+02  0.39844356714E+02  0.62444162253E+02  0.00000000000E+00 0.  1.
</event>
<event>
 8    1  0.6965441E-009  0.1071783E+03  0.7561462E-02  0.1265886E+00
         -4   -1    0    0    0  501 -0.00000000000E+00  0.00000000000E+00  0.24442447469E+03  0.24442447469E+03  0.00000000000E+00 0.  1.
          4   -1    0    0  501    0  0.00000000000E+00 -0.00000000000E+00 -0.74634684106E+02  0.74634684106E+02  0.00000000000E+00 0. -1.
         25    2    1    2    0    0  0.37934643909E+02 -0.25544941448E+02  0.14269596929E+02  0.13394928816E+03  0.12508880510E+03 0.  0.
         23    2    1    2    0    0 -0.37934643909E+02  0.25544941448E+02  0.15552019365E+03  0.18510987063E+03  0.89373107414E+02 0.  0.
          5    1    3    3  502    0  0.31109313557E+02  0.44849514277E+02  0.28453298893E+02  0.61695469354E+02  0.41800000000E+01 0.  1.
         -5    1    3    3    0  502  0.68253303520E+01 -0.70394455726E+02 -0.14183701963E+02  0.72253818811E+02  0.41800000000E+01 0.  1.
        -11    1    4    4    0    0 -0.24057758508E+02 -0.25978295595E+02  0.10800734299E+03  0.11366280713E+03  0.00000000000E+00 0.  1.
         11    1    4    4    0    0 -0.13876885401E+02  0.51523237044E+02  0.47512850666E+02  0.71447063497E+02  0.00000000000E+00 0. -1.
</event>
<event>
 8    1  0.6965441E-009  0.1103000E+03  0.7561462E-02  0.1260015E+00
         -1   -1    0    0    0  501 -0.00000000000E+00  0.00000000000E+00  0.25431687213E+02  0.25431687213E+02  0.00000000000E+00 0.  1.
          1   -1    0    0  501    0  0.00000000000E+00 -0.00000000000E+00 -0.92488629075E+03  0.92488629075E+03  0.00000000000E+00 0. -1.
         25    2    1    2    0    0  0.22952591097E+02 -0.10555654253E+03 -0.50395863067E+03  0.53036841140E+03  0.12508934916E+03 0.  0.
         23    2    1    2    0    0 -0.22952591097E+02  0.10555654253E+03 -0.39549597287E+03  0.41994956656E+03  0.90948165433E+02 0.  0.
          5    1    3    3  502    0  0.14519574296E+02 -0.14736910423E+02 -0.31923472925E+01  0.21346148313E+02  0.41800000000E+01 0. -1.
         -5    1    3    3    0  502  0.84330168015E+01 -0.90819632105E+02 -0.50076628338E+03  0.50902226309E+03  0.41800000000E+01 0. -1.
        -11    1    4    4    0    0 -0.17394296839E+02  0.66472907468E+02 -0.36113384353E+03  0.36761238000E+03  0.00000000000E+00 0. -1.
         11    1    4    4    0    0 -0.55582942587E+01  0.39083635060E+02 -0.34362129338E+02  0.52337186561E+02  0.00000000000E+00 0.  1.
</event>
<event>
 8    1  0.6965441E-009  0.9612297E+02  0.7561462E-02  0.1288667E+00
          1   -1    0    0  501    0  0.00000000000E+00  0.00000000000E+00  0.77302136667E+02  0.77302136667E+02  0.00000000000E+00 0. -1.
         -1   -1    0    0    0  501 -0.00000000000E+00 -0.00000000000E+00 -0.17721389489E+03  0.17721389489E+03  0.00000000000E+00 0.  1.
         25    2    1    2    0    0 -0.33270623493E+02  0.13208489421E+02 -0.94515476930E+02  0.16081797436E+03  0.12509135428E+03 0.  0.
         23    2    1    2    0    0  0.33270623493E+02 -0.13208489421E+02 -0.53962812918E+01  0.93698057199E+02  0.86422262703E+02 0.  0.
          5    1    3    3  502    0 -0.71147166064E+02  0.24068435252E+02 -0.22323388725E+02  0.78466648320E+02  0.41800000000E+01 0.  1.
         -5    1    3    3    0  502  0.37876542571E+02 -0.10859945831E+02 -0.72192088205E+02  0.82351326036E+02  0.41800000000E+01 0.  1.
        -11    1    4    4    0    0 -0.21460670774E+02 -0.22277076079E+01 -0.26364634862E+02  0.34067830026E+02  0.00000000000E+00 0.  1.
         11    1    4    4    0    0  0.54731294267E+02 -0.10980781813E+02  0.20968353570E+02  0.59630227174E+02  0.00000000000E+00 0. -1.
</event>
<event>
 8    1  0.6965441E-009  0.1174105E+03  0.7561462E-02  0.1247431E+00
         -1   -1    0    0    0  501 -0.00000000000E+00  0.00000000000E+00  0.73214620417E+02  0.73214620417E+02  0.00000000000E+00 0.  1.
          1   -1    0    0  501    0  0.00000000000E+00 -0.00000000000E+00 -0.28468571883E+03  0.28468571883E+03  0.00000000000E+00 0. -1.
         25    2    1    2    0    0 -0.76158943216E+02 -0.16796423527E+02 -0.18265440189E+03  0.23471811123E+03  0.12509059411E+03 0.  0.
         23    2    1    2    0    0  0.76158943216E+02  0.16796423527E+02 -0.28816696527E+02  0.12318222802E+03  0.90890895179E+02 0.  0.
          5    1    3    3  502    0  0.18775619640E+02  0.19513149886E+02 -0.99877256813E+02  0.10356749364E+03  0.41800000000E+01 0. -1.
         -5    1    3    3    0  502 -0.94934562856E+02 -0.36309573413E+02 -0.82777145076E+02  0.13115061759E+03  0.41800000000E+01 0. -1.
        -11    1    4    4    0    0  0.52157072246E+02  0.44839389807E+02  0.10128848444E+02  0.69523554529E+02  0.00000000000E+00 0.  1.
         11    1    4    4    0    0  0.24001870970E+02 -0.28042966280E+02 -0.38945544972E+02  0.53658673493E+02  0.00000000000E+00 0. -1.
</event>
<event>
 8    1  0.6965441E-009  0.1327864E+03  0.7561462E-02  0.1223379E+00
          1   -1    0    0  501    0  0.00000000000E+00  0.00000000000E+00  0.96199974974E+03  0.96199974974E+03  0.00000000000E+00 0. -1.
         -1   -1    0    0    0  501 -0.00000000000E+00 -0.00000000000E+00 -0.19551616121E+02  0.19551616121E+02  0.00000000000E+00 0.  1.
         25    2    1    2    0    0  0.48534593634E+02 -0.66586076779E+02  0.54723520965E+03  0.56736505011E+03  0.12508961987E+03 0.  0.
         23    2    1    2    0    0 -0.48534593634E+02  0.66586076779E+02  0.39521292396E+03  0.41418631575E+03  0.92562068295E+02 0.  0.
          5    1    3    3  502    0  0.49837379360E+02  0.23723958099E+02  0.14782997106E+03  0.15785361356E+03  0.41800000000E+01 0. -1.
         -5    1    3    3    0  502 -0.13027857266E+01 -0.90310034877E+02  0.39940523859E+03  0.40951143655E+03  0.41800000000E+01 0. -1.
        -11    1    4    4    0    0  0.20782449162E+02  0.40904231465E+02  0.10279237829E+03  0.11256704393E+03  0.00000000000E+00 0. -1.
         11    1    4    4    0    0 -0.69317042796E+02  0.25681845313E+02  0.29242054567E+03  0.30161927182E+03  0.00000000000E+00 0.  1.
</event>
<event>
 8    1  0.6965441E-009  0.7570843E+02  0.7561462E-02  0.1341691E+00
         -1   -1    0    0    0  501 -0.00000000000E+00  0.00000000000E+00  0.21288610771E+03  0.21288610771E+03  0.00000000000E+00 0.  1.
          1   -1    0    0  501    0  0.00000000000E+00 -0.00000000000E+00 -0.65806346671E+02  0.65806346671E+02  0.00000000000E+00 0. -1.
         25    2    1    2    0    0  0.56870365159E+01 -0.16530275956E+02  0.31905661468E+02  0.13027496619E+03  0.12509197885E+03 0.  0.
         23    2    1    2    0    0 -0.56870365159E+01  0.16530275956E+02  0.11517409957E+03  0.14841748820E+03  0.91962411793E+02 0.  0.
          5    1    3    3  502    0  0.43131798610E+02  0.11519040106E+02 -0.28970681602E+02  0.53383641022E+02  0.41800000000E+01 0.  1.
         -5    1    3    3    0  502 -0.37444762094E+02 -0.28049316063E+02  0.60876343070E+02  0.76891325163E+02  0.41800000000E+01 0.  1.
        -11    1    4    4    0    0  0.23170643842E+02  0.19912194866E+02  0.11538546041E+03  0.11936154621E+03  0.00000000000E+00 0. -1.
         11    1    4    4    0    0 -0.28857680358E+02 -0.33819189098E+01 -0.21136083765E+00  0.29055941983E+02  0.00000000000E+00 0.  1.
</event>
<event>
 8    1  0.6965441E-009  0.1027126E+03  0.7561462E-02  0.1274693E+00
         -2   -1    0    0    0  501 -0.00000000000E+00  0.00000000000E+00  0.21292459907E+03  0.21292459907E+03  0.00000000000E+00 0.  1.
          2   -1    0    0  501    0  0.00000000000E+00 -0.00000000000E+00 -0.10483848593E+03  0.10483848593E+03  0.00000000000E+00 0. -1.
         25    2    1    2    0    0  0.30436093167E+02  0.51571580009E+01 -0.45137684255E+02  0.13653308095E+03  0.12510363547E+03 0.  0.
         23    2    1    2    0    0 -0.30436093167E+02 -0.51571580009E+01  0.15322379740E+03  0.18123000405E+03  0.91726932986E+02 0.  0.
          5    1    3    3  502    0  0.13380971548E+02 -0.54299031563E+02 -0.48926273853E+02  0.74422361568E+02  0.41800000000E+01 0.  1.
         -5    1    3    3    0  502  0.17055121619E+02  0.59456189564E+02  0.37885895982E+01  0.62110719381E+02  0.41800000000E+01 0.  1.
        -11    1    4    4    0    0 -0.58784187092E+02 -0.50698260761E+01  0.61503985632E+02  0.85229244025E+02  0.00000000000E+00 0. -1.
         11    1    4    4    0    0  0.28348093924E+02 -0.87331924719E-01  0.91719811766E+02  0.96000760030E+02  0.00000000000E+00 0.  1.
</event>
<event>
 8    1  0.6965441E-009  0.2674630E+03  0.7561462E-02  0.1102740E+00
         -2   -1    0    0    0  501 -0.00000000000E+00  0.00000000000E+00  0.14884980173E+03  0.14884980173E+03  0.00000000000E+00 0.  1.
          2   -1    0    0  501    0  0.00000000000E+00 -0.00000000000E+00 -0.87240079006E+03  0.87240079006E+03  0.00000000000E+00 0. -1.
         25    2    1    2    0    0 -0.24927082309E+03  0.31907739307E+02 -0.35832400734E+02  0.28299361631E+03  0.12508948340E+03 0.  0.
         23    2    1    2    0    0  0.24927082309E+03 -0.31907739307E+02 -0.68771858759E+03  0.73825697549E+03  0.94405821114E+02 0.  0.
          5    1    3    3  502    0 -0.17025588603E+03 -0.33739005435E+02  0.14711506722E+01  0.17362322396E+03  0.41800000000E+01 0. -1.
         -5    1    3    3    0  502 -0.79014937060E+02  0.65646744742E+02 -0.37303551407E+02  0.10937039234E+03  0.41800000000E+01 0. -1.
        -11    1    4    4    0    0  0.16768226928E+03 -0.49896826493E+02 -0.55023318311E+03  0.57737647382E+03  0.00000000000E+00 0. -1.
         11    1    4    4    0    0  0.81588553806E+02  0.17989087185E+02 -0.13748540448E+03  0.16088050166E+03  0.00000000000E+00 0.  1.
</event>
<event>
 8    1  0.6965441E-009  0.1279797E+03  0.7561462E-02  0.1230485E+00
         -2   -1    0    0    0  501 -0.00000000000E+00  0.00000000000E+00  0.63487978300E+02  0.63487978300E+02  0.00000000000E+00 0.  1.
          2   -1    0    0  501    0  0.00000000000E+00 -0.00000000000E+00 -0.42196791909E+03  0.42196791909E+03  0.00000000000E+00 0. -1.
         25    2    1    2    0    0 -0.22323725056E+02 -0.11506954472E+03 -0.13878555740E+03  0.22056367404E+03  0.12509018562E+03 0.  0.
         23    2    1    2    0    0  0.22323725056E+02  0.11506954472E+03 -0.21969438340E+03  0.26489222336E+03  0.90348874245E+02 0.  0.
          5    1    3    3  502    0 -0.85932171896E+01 -0.64137654071E+02 -0.15265823510E+03  0.16585985408E+03  0.41800000000E+01 0.  1.
         -5    1    3    3    0  502 -0.13730507867E+02 -0.50931890648E+02  0.13872677701E+02  0.54703819957E+02  0.41800000000E+01 0.  1.
        -11    1    4    4    0    0 -0.19810393056E+02  0.82771634866E+02 -0.17830387785E+03  0.19757496822E+03  0.00000000000E+00 0. -1.
         11    1    4    4    0    0  0.42134118112E+02  0.32297909854E+02 -0.41390505552E+02  0.67317255142E+02  0.00000000000E+00 0.  1.
</event>
<event>
 8    1  0.6965441E-009  0.1480348E+03  0.7561462E-02  0.1202909E+00
          4   -1    0    0  501    0  0.00000000000E+00  0.00000000000E+00  0.98213535787E+02  0.98213535787E+02  0.00000000000E+00 0. -1.
         -4   -1    0    0    0  501 -0.00000000000E+00 -0.00000000000E+00 -0.28733472603E+03  0.28733472603E+03  0.00000000000E+00 0.  1.
         25    2    1    2    0    0 -0.50051446971E+02 -0.94184262130E+02 -0.19379670971E+02  0.16552442521E+03  0.12508773368E+03 0.  0.
         23    2    1    2    0    0  0.50051446971E+02  0.94184262130E+02 -0.16974151927E+03  0.22002383661E+03  0.90677906538E+02 0.  0.
          5    1    3    3  502    0 -0.66331161664E+01 -0.11549599164E+03 -0.11335647387E+02  0.11631548313E+03  0.41800000000E+01 0.  1.
         -5    1    3    3    0  502 -0.43418330805E+02  0.21311729511E+02 -0.80440235841E+01  0.49208942074E+02  0.41800000000E+01 0.  1.
        -11    1    4    4    0    0 -0.47553120479E+01  0.72760197094E+02 -0.12988176787E+03  0.14894943067E+03  0.00000000000E+00 0.  1.
         11    1    4    4    0    0  0.54806759019E+02  0.21424065036E+02 -0.39859751406E+02  0.71074405935E+02  0.00000000000E+00 0. -1.
</event>
<event>
 8    1  0.6965441E-009  0.9213167E+02  0.7561462E-02  0.1297770E+00
          1   -1    0    0  501    0  0.00000000000E+00  0.00000000000E+00  0.49127458784E+03  0.49127458784E+03  0.00000000000E+00 0. -1.
         -1   -1    0    0    0  501 -0.00000000000E+00 -0.00000000000E+00 -0.38684422951E+02  0.38684422951E+02  0.00000000000E+00 0.  1.
         25    2    1    2    0    0 -0.85065208083E+02  0.28637380697E+02  0.18428843374E+03  0.24013743249E+03  0.12509024930E+03 0.  0.
         23    2    1    2    0    0  0.85065208083E+02 -0.28637380697E+02  0.26830173115E+03  0.28982157831E+03  0.62885126349E+02 0.  0.
          5    1    3    3  502    0 -0.53316824425E+02  0.29847145622E+02  0.19651597619E+03  0.20583861923E+03  0.41800000000E+01 0.  1.
         -5    1    3    3    0  502 -0.31748383659E+02 -0.12097649249E+01 -0.12227542452E+02  0.34298813252E+02  0.41800000000E+01 0.  1.
        -11    1    4    4    0    0  0.50004671969E+02 -0.90674312186E+01  0.64567779862E+02  0.82168629805E+02  0.00000000000E+00 0.  1.
         11    1    4    4    0    0  0.35060536114E+02 -0.19569949478E+02  0.20373395128E+03  0.20765294850E+03  0.00000000000E+00 0. -1.
</event>
<event>
 8    1  0.6965441E-009  0.1340482E+03  0.7561462E-02  0.1221570E+00
         -2   -1    0    0    0  501 -0.00000000000E+00  0.00000000000E+00  0.17944461204E+02  0.17944461204E+02  0.00000000000E+00 0.  1.
          2   -1    0    0  501    0  0.00000000000E+00 -0.00000000000E+00 -0.10609956304E+04  0.10609956304E+04  0.00000000000E+00 0. -1.
         25    2    1    2    0    0  0.78490082846E+02 -0.26546568736E+02 -0.49798609692E+03  0.52009898567E+03  0.12508952296E+03 0.  0.
         23    2    1    2    0    0 -0.78490082846E+02  0.26546568736E+02 -0.54506507232E+03  0.55884110597E+03  0.91334742844E+02 0.  0.
          5    1    3    3  502    0 -0.30169128976E+02 -0.18738444882E+02 -0.72103740011E+02  0.80484330048E+02  0.41800000000E+01 0.  1.
         -5    1    3    3    0  502  0.10865921182E+03 -0.78081238543E+01 -0.42588235691E+03  0.43961465562E+03  0.41800000000E+01 0.  1.
        -11    1    4    4    0    0 -0.90280484077E+02  0.45421010043E+02 -0.44561279745E+03  0.45692931533E+03  0.00000000000E+00 0.  1.
         11    1    4    4    0    0  0.11790401230E+02 -0.18874441307E+02 -0.99452274871E+02  0.10191179065E+03  0.00000000000E+00 0. -1.
</event>
<event>
 8    1  0.6965441E-009  0.9344478E+02  0.7561462E-02  0.1294718E+00
          2   -1    0    0  501    0  0.00000000000E+00  0.00000000000E+00  0.46083126252E+02  0.46083126252E+02  0.00000000000E+00 0. -1.
         -2   -1    0    0    0  501 -0.00000000000E+00 -0.00000000000E+00 -0.30108479016E+03  0.30108479016E+03  0.00000000000E+00 0.  1.
         25    2    1    2    0    0 -0.38920237858E+02  0.27530558732E+02 -0.13877026233E+03  0.19281651193E+03  0.12509318521E+03 0.  0.
         23    2    1    2    0    0  0.38920237858E+02 -0.27530558732E+02 -0.11623140158E+03  0.15435140449E+03  0.89676645649E+02 0.  0.
          5    1    3    3  502    0 -0.96349903940E+01 -0.42548336504E+02 -0.96046662211E+02  0.10557285494E+03  0.41800000000E+01 0. -1.
         -5    1    3    3    0  502 -0.29285247464E+02  0.70078895236E+02 -0.42723600120E+02  0.87243656983E+02  0.41800000000E+01 0. -1.
        -11    1    4    4    0    0 -0.86488786294E+01 -0.15785814948E+02  0.88191719140E+01  0.20044272208E+02  0.00000000000E+00 0. -1.
         11    1    4    4    0    0  0.47569116487E+02 -0.11744743784E+02 -0.12505057349E+03  0.13430713228E+03  0.00000000000E+00 0.  1.
</event>
<event>
 8    1  0.6965441E-009  0.7354118E+02  0.7561462E-02  0.1348449E+00
          2   -1    0    0  501    0  0.00000000000E+00  0.00000000000E+00  0.50106940719E+02  0.50106940719E+02  0.00000000000E+00 0. -1.
         -2   -1    0    0    0  501 -0.00000000000E+00 -0.00000000000E+00 -0.24091283342E+03  0.24091283342E+03  0.00000000000E+00 0.  1.
         25    2    1    2    0    0  0.14702892595E+02  0.49072284030E+01 -0.11464015068E+03  0.17038223308E+03  0.12508990871E+03 0.  0.
         23    2    1    2    0    0 -0.14702892595E+02 -0.49072284030E+01 -0.76165742029E+02  0.12063754107E+03  0.92260176212E+02 0.  0.
          5    1    3    3  502    0 -0.63068156021E+01 -0.25340192193E+02 -0.12821196408E+03  0.13091096745E+03  0.41800000000E+01 0.  1.
         -5    1    3    3    0  502  0.21009708197E+02  0.30247420596E+02  0.13571813408E+02  0.39471265630E+02  0.41800000000E+01 0.  1.
        -11    1    4    4    0    0  0.26487910046E+02  0.21948484058E+02 -0.59480520567E+02  0.68711554035E+02  0.00000000000E+00 0.  1.
         11    1    4    4    0    0 -0.41190802641E+02 -0.26855712461E+02 -0.16685221462E+02  0.51925987032E+02  0.00000000000E+00 0. -1.
</event>
<event>
 8    1  0.6965441E-009  0.2022139E+03  0.7561462E-02  0.1147885E+00
          2   -1    0    0  501    0  0.00000000000E+00  0.00000000000E+00  0.70521766708E+03  0.70521766708E+03  0.00000000000E+00 0.  1.
         -2   -1    0    0    0  501 -0.00000000000E+00 -0.00000000000E+00 -0.72418470382E+02  0.72418470382E+02  0.00000000000E+00 0. -1.
         25    2    1    2    0    0 -0.34385434039E+02 -0.18784248143E+03  0.23428434927E+03  0.32711413706E+03  0.12508935387E+03 0.  0.
         23    2    1    2    0    0  0.34385434039E+02  0.18784248143E+03  0.39851484743E+03  0.45052200039E+03  0.87685992703E+02 0.  0.
          5    1    3    3  502    0  0.13830236708E+02 -0.71996831606E+02  0.17188526819E+03  0.18691398297E+03  0.41800000000E+01 0. -1.
         -5    1    3    3    0  502 -0.48215670747E+02 -0.11584564982E+03  0.62399081074E+02  0.14020015409E+03  0.41800000000E+01 0. -1.
        -11    1    4    4    0    0  0.14723882766E+02  0.18499527883E+03  0.32380053254E+03  0.37321150945E+03  0.00000000000E+00 0. -1.
         11    1    4    4    0    0  0.19661551273E+02  0.28472026005E+01  0.74714314887E+02  0.77310490945E+02  0.00000000000E+00 0.  1.
</event>
<event>
 8    1  0.6965441E-009  0.1155473E+03  0.7561462E-02  0.1250629E+00
          1   -1    0    0  501    0  0.00000000000E+00  0.00000000000E+00  0.26126227148E+03  0.26126227148E+03  0.00000000000E+00 0. -1.
         -1   -1    0    0    0  501 -0.00000000000E+00 -0.00000000000E+00 -0.58111031732E+02  0.58111031732E+02  0.00000000000E+00 0.  1.
         25    2    1    2    0    0 -0.65971912561E+01  0.45470515309E+02  0.63357601304E+02  0.14754891577E+03  0.12508159820E+03 0.  0.
         23    2    1    2    0    0  0.65971912561E+01 -0.45470515309E+02  0.13979363844E+03  0.17182438744E+03  0.88714531363E+02 0.  0.
          5    1    3    3  502    0 -0.45975805197E+02 -0.24487042952E+02  0.18141062760E+02  0.55316909658E+02  0.41800000000E+01 0.  1.
         -5    1    3    3    0  502  0.39378613941E+02  0.69957558260E+02  0.45216538544E+02  0.92232006113E+02  0.41800000000E+01 0.  1.
        -11    1    4    4    0    0 -0.29800761707E+02  0.10575082851E+02  0.31940804374E+02  0.44945887017E+02  0.00000000000E+00 0.  1.
         11    1    4    4    0    0  0.36397952963E+02 -0.56045598159E+02  0.10785283407E+03  0.12687850042E+03  0.00000000000E+00 0. -1.
</event>
<event>
 8    1  0.6965441E-009  0.1611788E+03  0.7561462E-02  0.1187372E+00
          1   -1    0    0  501    0  0.00000000000E+00  0.00000000000E+00  0.14435263885E+03  0.14435263885E+03  0.00000000000E+00 0. -1.
         -1   -1    0    0    0  501 -0.00000000000E+00 -0.00000000000E+00 -0.18773069240E+03  0.18773069240E+03  0.00000000000E+00 0.  1.
         25    2    1    2    0    0 -0.76469705339E+02  0.94076554479E+02  0.29676243906E+01  0.17422217171E+03  0.12508614785E+03 0.  0.
         23    2    1    2    0    0  0.76469705339E+02 -0.94076554479E+02 -0.46345677939E+02  0.15786115954E+03  0.89856607389E+02 0.  0.
          5    1    3    3  502    0 -0.71906006731E+02  0.12267534475E+03 -0.91503107506E+01  0.14255144545E+03  0.41800000000E+01 0.  1.
         -5    1    3    3    0  502 -0.45636986087E+01 -0.28598790271E+02  0.12117935141E+02  0.31670726263E+02  0.41800000000E+01 0.  1.
        -11    1    4    4    0    0  0.63377917661E+02 -0.81249955319E+01 -0.21928076080E+02  0.67554544777E+02  0.00000000000E+00 0.  1.
         11    1    4    4    0    0  0.13091787678E+02 -0.85951558947E+02 -0.24417601859E+02  0.90306614767E+02  0.00000000000E+00 0. -1.
</event>
<event>
 8    1  0.6965441E-009  0.2200196E+03  0.7561462E-02  0.1133868E+00
          2   -1    0    0  501    0  0.00000000000E+00  0.00000000000E+00  0.31453011106E+03  0.31453011106E+03  0.00000000000E+00 0.  1.
         -2   -1    0    0    0  501 -0.00000000000E+00 -0.00000000000E+00 -0.17151909006E+03  0.17151909006E+03  0.00000000000E+00 0. -1.
         25    2    1    2    0    0 -0.98420730840E+02 -0.16452519308E+03  0.15106224435E+03  0.27426856446E+03  0.12509302285E+03 0.  0.
         23    2    1    2    0    0  0.98420730840E+02  0.16452519308E+03 -0.80512233586E+01  0.21178063665E+03  0.89616050153E+02 0.  0.
          5    1    3    3  502    0 -0.12840166532E+03 -0.13587852850E+03  0.12833162175E+03  0.22679603106E+03  0.41800000000E+01 0.  1.
         -5    1    3    3    0  502  0.29980934477E+02 -0.28646664587E+02  0.22730622603E+02  0.47472533406E+02  0.41800000000E+01 0.  1.
        -11    1    4    4    0    0  0.26563882306E+02  0.12806090987E+03 -0.10087612615E+02  0.13117544133E+03  0.00000000000E+00 0. -1.
         11    1    4    4    0    0  0.71856848533E+02  0.36464283210E+02  0.20363892564E+01  0.80605195319E+02  0.00000000000E+00 0.  1.
</event>
<event>
 8    1  0.6965441E-009  0.1058606E+03  0.7561462E-02  0.1268433E+00
         -1   -1    0    0    0  501 -0.00000000000E+00  0.00000000000E+00  0.56597741491E+02  0.56597741491E+02  0.00000000000E+00 0.  1.
          1   -1    0    0  501    0  0.00000000000E+00 -0.00000000000E+00 -0.24112106232E+03  0.24112106232E+03  0.00000000000E+00 0. -1.
         25    2    1    2    0    0 -0.44442583338E+02 -0.27742291822E+01 -0.12134148717E+03  0.17987256851E+03  0.12509014683E+03 0.  0.
         23    2    1    2    0    0  0.44442583338E+02  0.27742291822E+01 -0.63181833658E+02  0.11784623530E+03  0.88954772260E+02 0.  0.
          5    1    3    3  502    0 -0.67258004309E+02 -0.41847132553E+02 -0.10497640074E+03  0.13157636094E+03  0.41800000000E+01 0.  1.
         -5    1    3    3    0  502  0.22815420971E+02  0.39072903371E+02 -0.16365086431E+02  0.48296207572E+02  0.41800000000E+01 0.  1.
        -11    1    4    4    0    0 -0.17790352742E+02 -0.13846620868E+02 -0.45925979555E+02  0.51160738445E+02  0.00000000000E+00 0. -1.
         11    1    4    4    0    0  0.62232936080E+02  0.16620850050E+02 -0.17255854103E+02  0.66685496851E+02  0.00000000000E+00 0.  1.
</event>
<event>
 8    1  0.6965441E-009  0.9452361E+02  0.7561462E-02  0.1292253E+00
          1   -1    0    0  501    0  0.00000000000E+00  0.00000000000E+00  0.45574053345E+03  0.45574053345E+03  0.00000000000E+00 0. -1.
         -1   -1    0    0    0  501 -0.00000000000E+00 -0.00000000000E+00 -0.42270371783E+02  0.42270371783E+02  0.00000000000E+00 0.  1.
         25    2    1    2    0    0  0.45503710329E+02 -0.66745869872E+02  0.16105889466E+03  0.21934946195E+03  0.12509444476E+03 0.  0.
         23    2    1    2    0    0 -0.45503710329E+02  0.66745869872E+02  0.25241126700E+03  0.27866144328E+03  0.86111285344E+02 0.  0.
          5    1    3    3  502    0  0.42917091115E+02 -0.58012940529E+02  0.16112639170E+02  0.74057190871E+02  0.41800000000E+01 0.  1.
         -5    1    3    3    0  502  0.25866192138E+01 -0.87329293427E+01  0.14494625549E+03  0.14529227108E+03  0.41800000000E+01 0.  1.
        -11    1    4    4    0    0 -0.90899403215E+01  0.69624526055E+02  0.21583623556E+03  0.22697022321E+03  0.00000000000E+00 0. -1.
         11    1    4    4    0    0 -0.36413770007E+02 -0.28786561834E+01  0.36575031447E+02  0.51691220076E+02  0.00000000000E+00 0.  1.
</event>
<event>
 8    1  0.6965441E-009  0.9819239E+02  0.7561462E-02  0.1284144E+00
         -2   -1    0    0    0  501 -0.00000000000E+00  0.00000000000E+00  0.54621025895E+03  0.54621025895E+03  0.00000000000E+00 0.  1.
          2   -1    0    0  501    0  0.00000000000E+00 -0.00000000000E+00 -0.25051567752E+02  0.25051567752E+02  0.00000000000E+00 0. -1.
         25    2    1    2    0    0 -0.26138914837E+01  0.43438355159E+02  0.28790668987E+03  0.31690805325E+03  0.12508688586E+03 0.  0.
         23    2    1    2    0    0  0.26138914837E+01 -0.43438355159E+02  0.23325200133E+03  0.25435377345E+03  0.91627631302E+02 0.  0.
          5    1    3    3  502    0 -0.37532433481E+02 -0.32076363996E+01  0.20290533284E+02  0.42990122531E+02  0.41800000000E+01 0. -1.
         -5    1    3    3    0  502  0.34918541997E+02  0.46645991559E+02  0.26761615658E+03  0.27391793071E+03  0.41800000000E+01 0. -1.
        -11    1    4    4    0    0  0.15732949346E+02  0.25460833003E+02  0.90145179045E+02  0.94983856615E+02  0.00000000000E+00 0.  1.
         11    1    4    4    0    0 -0.13119057862E+02 -0.68899188163E+02  0.14310682228E+03  0.15936991684E+03  0.00000000000E+00 0. -1.
</event>
<event>
 8    1  0.6965441E-009  0.9598875E+02  0.7561462E-02  0.1288965E+00
          1   -1    0    0  501    0  0.00000000000E+00  0.00000000000E+00  0.98620880539E+02  0.98620880539E+02  0.00000000000E+00 0. -1.
         -1   -1    0    0    0  501 -0.00000000000E+00 -0.00000000000E+00 -0.20618827475E+03  0.20618827475E+03  0.00000000000E+00 0.  1.
         25    2    1    2    0    0 -0.68848058896E+02  0.24439722764E+02 -0.12322849006E+03  0.19018486331E+03  0.12509063197E+03 0.  0.
         23    2    1    2    0    0  0.68848058896E+02 -0.24439722764E+02  0.15661095852E+02  0.11462429198E+03  0.86925848438E+02 0.  0.
          5    1    3    3  502    0 -0.62448180261E+02  0.11775330166E+02 -0.14811922645E+03  0.16123030504E+03  0.41800000000E+01 0.  1.
         -5    1    3    3    0  502 -0.63998786352E+01  0.12664392598E+02  0.24890736390E+02  0.28954558267E+02  0.41800000000E+01 0.  1.
        -11    1    4    4    0    0 -0.17071575438E+01 -0.40992559845E+02  0.40233664576E+01  0.41224893295E+02  0.00000000000E+00 0.  1.
         11    1    4    4    0    0  0.70555216440E+02  0.16552837080E+02  0.11637729394E+02  0.73399398688E+02  0.00000000000E+00 0. -1.
</event>
<event>
 8    1  0.6965441E-009  0.9338243E+02  0.7561462E-02  0.1294861E+00
          1   -1    0    0  501    0  0.00000000000E+00  0.00000000000E+00  0.47119579592E+02  0.47119579592E+02  0.00000000000E+00 0. -1.
         -1   -1    0    0    0  501 -0.00000000000E+00 -0.00000000000E+00 -0.30214994107E+03  0.30214994107E+03  0.00000000000E+00 0.  1.
         25    2    1    2    0    0  0.38450823985E+02 -0.18279889784E+02 -0.18123406855E+03  0.22428983235E+03  0.12509005178E+03 0.  0.
         23    2    1    2    0    0 -0.38450823985E+02  0.18279889784E+02 -0.73796292923E+02  0.12497968831E+03  0.91440742594E+02 0.  0.
          5    1    3    3  502    0 -0.19530726152E+02 -0.57967923467E+02 -0.93499822680E+02  0.11180974312E+03  0.41800000000E+01 0.  1.
         -5    1    3    3    0  502  0.57981550137E+02  0.39688033682E+02 -0.87734245874E+02  0.11248008923E+03  0.41800000000E+01 0.  1.
        -11    1    4    4    0    0 -0.28986403570E+02  0.28836050119E+02 -0.92719624312E+02  0.10133438760E+03  0.00000000000E+00 0.  1.
         11    1    4    4    0    0 -0.94644204147E+01 -0.10556160334E+02  0.18923331389E+02  0.23645300710E+02  0.00000000000E+00 0. -1.
</event>
<event>
 8    1  0.6965441E-009  0.6440882E+02  0.7561462E-02  0.1380209E+00
         -2   -1    0    0    0  501 -0.00000000000E+00  0.00000000000E+00  0.58443299506E+02  0.58443299506E+02  0.00000000000E+00 0.  1.
          2   -1    0    0  501    0  0.00000000000E+00 -0.00000000000E+00 -0.22130178933E+03  0.22130178933E+03  0.00000000000E+00 0. -1.
         25    2    1    2    0    0  0.25675188824E+02  0.63470100475E+01 -0.11761317791E+03  0.17371257838E+03  0.12507477928E+03 0.  0.
         23    2    1    2    0    0 -0.25675188824E+02 -0.63470100475E+01 -0.45245311920E+02  0.10603251046E+03  0.92175133121E+02 0.  0.
          5    1    3    3  502    0 -0.18249821263E+01  0.17653860858E+02 -0.13684560861E+03  0.13805499758E+03  0.41800000000E+01 0. -1.
         -5    1    3    3    0  502  0.27500170951E+02 -0.11306850810E+02  0.19232430700E+02  0.35657580796E+02  0.41800000000E+01 0. -1.
        -11    1    4    4    0    0 -0.34072075330E+02 -0.36101657840E+02  0.18733020548E+01  0.49676405634E+02  0.00000000000E+00 0.  1.
         11    1    4    4    0    0  0.83968865054E+01  0.29754647793E+02 -0.47118613975E+02  0.56356104826E+02  0.00000000000E+00 0. -1.
</event>
<event>
 8    1  0.6965441E-009  0.2344272E+03  0.7561462E-02  0.1123562E+00
          1   -1    0    0  501    0  0.00000000000E+00  0.00000000000E+00  0.88712472833E+03  0.88712472833E+03  0.00000000000E+00 0. -1.
         -1   -1    0    0    0  501 -0.00000000000E+00 -0.00000000000E+00 -0.72918652831E+02  0.72918652831E+02  0.00000000000E+00 0.  1.
         25    2    1    2    0    0  0.38176770373E+02  0.22629677067E+03  0.44063460839E+03  0.51232165881E+03  0.12508768829E+03 0.  0.
         23    2    1    2    0    0 -0.38176770373E+02 -0.22629677067E+03  0.37357146711E+03  0.44772172235E+03  0.90727093071E+02 0.  0.
          5    1    3    3  502    0  0.50341958822E+02  0.97973377259E+02  0.10287325108E+03  0.15077623704E+03  0.41800000000E+01 0.  1.
         -5    1    3    3    0  502 -0.12165188449E+02  0.12832339341E+03  0.33776135731E+03  0.36154542176E+03  0.41800000000E+01 0.  1.
        -11    1    4    4    0    0 -0.22065637950E+02 -0.10478929370E+03  0.94115566946E+02  0.14256727673E+03  0.00000000000E+00 0.  1.
         11    1    4    4    0    0 -0.16111132423E+02 -0.12150747697E+03  0.27945590017E+03  0.30515444562E+03  0.00000000000E+00 0. -1.
</event>
<event>
 8    1  0.6965441E-009  0.1321493E+03  0.7561462E-02  0.1224301E+00
          1   -1    0    0  501    0  0.00000000000E+00  0.00000000000E+00  0.89106411787E+03  0.89106411787E+03  0.00000000000E+00 0. -1.
         -1   -1    0    0    0  501 -0.00000000000E+00 -0.00000000000E+00 -0.25804863743E+02  0.25804863743E+02  0.00000000000E+00 0.  1.
         25    2    1    2    0    0 -0.53479720075E+02  0.85761558989E+02  0.37835382681E+03  0.41110447902E+03  0.12506058112E+03 0.  0.
         23    2    1    2    0    0  0.53479720075E+02 -0.85761558989E+02  0.48690542732E+03  0.50576450259E+03  0.92226414181E+02 0.  0.
          5    1    3    3  502    0 -0.32419485307E+02  0.98147445608E+02  0.37114199705E+03  0.38528924003E+03  0.41800000000E+01 0.  1.
         -5    1    3    3    0  502 -0.21060234768E+02 -0.12385886618E+02  0.72118297612E+01  0.25815238994E+02  0.41800000000E+01 0.  1.
        -11    1    4    4    0    0  0.78193027806E+02 -0.77272946630E+02  0.41278309595E+03  0.42717109239E+03  0.00000000000E+00 0.  1.
         11    1    4    4    0    0 -0.24713307731E+02 -0.84886123595E+01  0.74122331370E+02  0.78593410198E+02  0.00000000000E+00 0. -1.
</event>
<event>
 8    1  0.6965441E-009  0.1836210E+03  0.7561462E-02  0.1164344E+00
         -2   -1    0    0    0  501 -0.00000000000E+00  0.00000000000E+00  0.93908416589E+02  0.93908416589E+02  0.00000000000E+00 0.  1.
          2   -1    0    0  501    0  0.00000000000E+00 -0.00000000000E+00 -0.47088945573E+03  0.47088945573E+03  0.00000000000E+00 0. -1.
         25    2    1    2    0    0  0.15699139269E+03  0.84645150136E+02 -0.20388927207E+03  0.29837835493E+03  0.12509080144E+03 0.  0.
         23    2    1    2    0    0 -0.15699139269E+03 -0.84645150136E+02 -0.17309176708E+03  0.26641951739E+03  0.95955722069E+02 0.  0.
          5    1    3    3  502    0  0.12185221787E+02  0.26518362943E+02  0.12117723204E+02  0.31874987354E+02  0.41800000000E+01 0.  1.
         -5    1    3    3    0  502  0.14480617091E+03  0.58126787193E+02 -0.21600699527E+03  0.26650336757E+03  0.41800000000E+01 0.  1.
        -11    1    4    4    0    0 -0.87837109101E+02 -0.27750486783E+02 -0.28647693590E+02  0.96468324335E+02  0.00000000000E+00 0.  1.
         11    1    4    4    0    0 -0.69154283592E+02 -0.56894663353E+02 -0.14444407349E+03  0.16995119306E+03  0.00000000000E+00 0. -1.
</event>
<event>
 8    1  0.6965441E-009  0.1098195E+03  0.7561462E-02  0.1260904E+00
         -1   -1    0    0    0  501 -0.00000000000E+00  0.00000000000E+00  0.19409579350E+02  0.19409579350E+02  0.00000000000E+00 0.  1.
          1   -1    0    0  501    0  0.00000000000E+00 -0.00000000000E+00 -0.77872941095E+03  0.77872941095E+03  0.00000000000E+00 0. -1.
         25    2    1    2    0    0  0.34162053217E+02 -0.45043722413E+02 -0.40304497014E+03  0.42578016884E+03  0.12509005324E+03 0.  0.
         23    2    1    2    0    0 -0.34162053217E+02  0.45043722413E+02 -0.35627486146E+03  0.37235882145E+03  0.92321894449E+02 0.  0.
          5    1    3    3  502    0  0.42573554081E+01 -0.71729293631E+02 -0.35874301367E+03  0.36589238704E+03  0.41800000000E+01 0. -1.
         -5    1    3    3    0  502  0.29904697809E+02  0.26685571218E+02 -0.44301956466E+02  0.59887781800E+02  0.41800000000E+01 0. -1.
        -11    1    4    4    0    0  0.77191694351E+01 -0.24773977222E+02 -0.67143223231E+02  0.71982969861E+02  0.00000000000E+00 0.  1.
         11    1    4    4    0    0 -0.41881222652E+02  0.69817699635E+02 -0.28913163823E+03  0.30037585159E+03  0.00000000000E+00 0. -1.
</event>
<event>
 8    1  0.6965441E-009  0.1206210E+03  0.7561462E-02  0.1242076E+00
         -2   -1    0    0    0  501 -0.00000000000E+00  0.00000000000E+00  0.60121528159E+02  0.60121528159E+02  0.00000000000E+00 0.  1.
          2   -1    0    0  501    0  0.00000000000E+00 -0.00000000000E+00 -0.30554377115E+03  0.30554377115E+03  0.00000000000E+00 0. -1.
         25    2    1    2    0    0  0.46674884682E+02 -0.64948208539E+02 -0.11780483268E+03  0.18953286591E+03  0.12509162245E+03 0.  0.
         23    2    1    2    0    0 -0.46674884682E+02  0.64948208539E+02 -0.12761741032E+03  0.17613243340E+03  0.91321498156E+02 0.  0.
          5    1    3    3  502    0  0.76570068934E+02 -0.24820591611E+02 -0.25647040048E+02  0.84582978712E+02  0.41800000000E+01 0. -1.
         -5    1    3    3    0  502 -0.29895184252E+02 -0.40127616928E+02 -0.92157792628E+02  0.10494988720E+03  0.41800000000E+01 0. -1.
        -11    1    4    4    0    0 -0.52525209649E+02  0.79426439000E+01 -0.25252388445E+02  0.58818928611E+02  0.00000000000E+00 0.  1.
         11    1    4    4    0    0  0.58503249665E+01  0.57005564639E+02 -0.10236502187E+03  0.11731350479E+03  0.00000000000E+00 0. -1.
</event>
<event>
 8    1  0.6965441E-009  0.2946669E+03  0.7561462E-02  0.1087937E+00
          1   -1    0    0  501    0  0.00000000000E+00  0.00000000000E+00  0.12475514627E+04  0.12475514627E+04  0.00000000000E+00 0. -1.
         -1   -1    0    0    0  501 -0.00000000000E+00 -0.00000000000E+00 -0.17504252336E+03  0.17504252336E+03  0.00000000000E+00 0.  1.
         25    2    1    2    0    0  0.84225080143E+02 -0.27052532220E+03  0.32819979191E+00  0.30971812422E+03  0.12508954663E+03 0.  0.
         23    2    1    2    0    0 -0.84225080143E+02  0.27052532220E+03  0.10721807396E+04  0.11128758619E+04  0.92969519385E+02 0.  0.
          5    1    3    3  502    0 -0.25343697374E+02 -0.99627337459E+02 -0.22723449861E+02  0.10536478036E+03  0.41800000000E+01 0. -1.
         -5    1    3    3    0  502  0.10956877752E+03 -0.17089798474E+03  0.23051649653E+02  0.20435334386E+03  0.41800000000E+01 0. -1.
        -11    1    4    4    0    0 -0.42081374181E+02  0.12489209108E+03  0.32950790580E+03  0.35488637118E+03  0.00000000000E+00 0. -1.
         11    1    4    4    0    0 -0.42143705961E+02  0.14563323112E+03  0.74267283377E+03  0.75798949068E+03  0.00000000000E+00 0.  1.
</event>
<event>
 8    1  0.6965441E-009  0.2092423E+03  0.7561462E-02  0.1142167E+00
          1   -1    0    0  501    0  0.00000000000E+00  0.00000000000E+00  0.28986696517E+03  0.28986696517E+03  0.00000000000E+00 0. -1.
         -1   -1    0    0    0  501 -0.00000000000E+00 -0.00000000000E+00 -0.22032872209E+03  0.22032872209E+03  0.00000000000E+00 0.  1.
         25    2    1    2    0    0  0.12373193595E+02 -0.20011398508E+03 -0.72653038052E+02  0.24723497725E+03  0.12509183465E+03 0.  0.
         23    2    1    2    0    0 -0.12373193595E+02  0.20011398508E+03  0.14219128113E+03  0.26296071000E+03  0.93441273707E+02 0.  0.
          5    1    3    3  502    0 -0.10115735283E+02 -0.65267535770E+02  0.33430970235E+02  0.74143654460E+02  0.41800000000E+01 0.  1.
         -5    1    3    3    0  502  0.22488928878E+02 -0.13484644931E+03 -0.10608400829E+03  0.17309132279E+03  0.41800000000E+01 0.  1.
        -11    1    4    4    0    0  0.29522306991E+02  0.38154198786E+02  0.58738451123E+02  0.76009967343E+02  0.00000000000E+00 0. -1.
         11    1    4    4    0    0 -0.41895500585E+02  0.16195978629E+03  0.83452830009E+02  0.18695074266E+03  0.00000000000E+00 0.  1.
</event>
<event>
 8    1  0.6965441E-009  0.2863256E+03  0.7561462E-02  0.1092283E+00
         -1   -1    0    0    0  501 -0.00000000000E+00  0.00000000000E+00  0.20859124652E+04  0.20859124652E+04  0.00000000000E+00 0.  1.
          1   -1    0    0  501    0  0.00000000000E+00 -0.00000000000E+00 -0.46212847964E+02  0.46212847964E+02  0.00000000000E+00 0. -1.
         25    2    1    2    0    0 -0.17515534071E+03  0.21257112123E+03  0.72304072203E+03  0.78377185664E+03  0.12507822587E+03 0.  0.
         23    2    1    2    0    0  0.17515534071E+03 -0.21257112123E+03  0.13166588952E+04  0.13483534565E+04  0.92739001667E+02 0.  0.
          5    1    3    3  502    0 -0.28775070332E+02  0.77661475395E+02  0.36290208226E+03  0.37225623318E+03  0.41800000000E+01 0. -1.
         -5    1    3    3    0  502 -0.14638027038E+03  0.13490964584E+03  0.36013863978E+03  0.41151562347E+03  0.41800000000E+01 0. -1.
        -11    1    4    4    0    0  0.95483132861E+02 -0.18152577417E+03  0.92248832626E+03  0.94501499852E+03  0.00000000000E+00 0.  1.
         11    1    4    4    0    0  0.79672207850E+02 -0.31045347064E+02  0.39417056891E+03  0.40333845796E+03  0.00000000000E+00 0. -1.
</event>
<event>
 8    1  0.6965441E-009  0.1250185E+03  0.7561462E-02  0.1235040E+00
          2   -1    0    0  501    0  0.00000000000E+00  0.00000000000E+00  0.12652012737E+03  0.12652012737E+03  0.00000000000E+00 0. -1.
         -2   -1    0    0    0  501 -0.00000000000E+00 -0.00000000000E+00 -0.19381388268E+03  0.19381388268E+03  0.00000000000E+00 0.  1.
         25    2    1    2    0    0 -0.17863749614E+01 -0.11264273210E+03 -0.25701431020E+02  0.17029425311E+03  0.12509193761E+03 0.  0.
         23    2    1    2    0    0  0.17863749614E+01  0.11264273210E+03 -0.41592324285E+02  0.15003975693E+03  0.89946823125E+02 0.  0.
          5    1    3    3  502    0 -0.14091115277E+02 -0.20108092686E+01 -0.53472424976E+02  0.55492121210E+02  0.41800000000E+01 0. -1.
         -5    1    3    3    0  502  0.12304740316E+02 -0.11063192283E+03  0.27770993956E+02  0.11480213190E+03  0.41800000000E+01 0. -1.
        -11    1    4    4    0    0 -0.24026331119E+02  0.39362292365E+02 -0.54379597964E+02  0.71300738579E+02  0.00000000000E+00 0.  1.
         11    1    4    4    0    0  0.25812706080E+02  0.73280439736E+02  0.12787273678E+02  0.78739018354E+02  0.00000000000E+00 0. -1.
</event>
<event>
 8    1  0.6965441E-009  0.1012337E+03  0.7561462E-02  0.1277723E+00
         -1   -1    0    0    0  501 -0.00000000000E+00  0.00000000000E+00  0.32475264067E+02  0.32475264067E+02  0.00000000000E+00 0.  1.
          1   -1    0    0  501    0  0.00000000000E+00 -0.00000000000E+00 -0.39718859412E+03  0.39718859412E+03  0.00000000000E+00 0. -1.
         25    2    1    2    0    0 -0.26880994848E+02 -0.14586879432E+02 -0.19646747427E+03  0.23490385635E+03  0.12507992784E+03 0.  0.
         23    2    1    2    0    0  0.26880994848E+02  0.14586879432E+02 -0.16824585579E+03  0.19476000184E+03  0.93217087437E+02 0.  0.
          5    1    3    3  502    0  0.35304191598E+02 -0.22935044808E+02 -0.15228293664E+03  0.15805052172E+03  0.41800000000E+01 0.  1.
         -5    1    3    3    0  502 -0.62185186445E+02  0.83481653759E+01 -0.44184537626E+02  0.76853334629E+02  0.41800000000E+01 0.  1.
        -11    1    4    4    0    0  0.10980193611E+02  0.53828812580E+02 -0.10735081312E+03  0.12059147065E+03  0.00000000000E+00 0.  1.
         11    1    4    4    0    0  0.15900801237E+02 -0.39241933148E+02 -0.60895042667E+02  0.74168531188E+02  0.00000000000E+00 0. -1.
</event>
<event>
 8    1  0.6965441E-009  0.9723655E+02  0.7561462E-02  0.1286217E+00
          1   -1    0    0  501    0  0.00000000000E+00  0.00000000000E+00  0.13875073699E+03  0.13875073699E+03  0.00000000000E+00 0. -1.
         -1   -1    0    0    0  501 -0.00000000000E+00 -0.00000000000E+00 -0.99131971897E+02  0.99131971897E+02  0.00000000000E+00 0.  1.
         25    2    1    2    0    0 -0.62441990920E+01  0.33118675469E+02 -0.10092151180E+02  0.12994275785E+03  0.12508969628E+03 0.  0.
         23    2    1    2    0    0  0.62441990920E+01 -0.33118675469E+02  0.49710916272E+02  0.10793995103E+03  0.89688467179E+02 0.  0.
          5    1    3    3  502    0  0.54272255252E+02  0.40540160855E+02  0.75263480967E+00  0.67875041005E+02  0.41800000000E+01 0.  1.
         -5    1    3    3    0  502 -0.60516454344E+02 -0.74214853854E+01 -0.10844785990E+02  0.62067716849E+02  0.41800000000E+01 0.  1.
        -11    1    4    4    0    0 -0.16846364555E+02 -0.38285263183E+02  0.66756414984E+02  0.78778044639E+02  0.00000000000E+00 0. -1.
         11    1    4    4    0    0  0.23090563647E+02  0.51665877133E+01 -0.17045498711E+02  0.29161906392E+02  0.00000000000E+00 0.  1.
</event>
<event>
 8    1  0.6965441E-009  0.1192847E+03  0.7561462E-02  0.1244282E+00
          1   -1    0    0  501    0  0.00000000000E+00  0.00000000000E+00  0.85749017424E+02  0.85749017424E+02  0.00000000000E+00 0. -1.
         -1   -1    0    0    0  501 -0.00000000000E+00 -0.00000000000E+00 -0.17750799549E+03  0.17750799549E+03  0.00000000000E+00 0.  1.
         25    2    1    2    0    0  0.32910718308E+02  0.38260601341E+02 -0.80539434865E+02  0.15708302190E+03  0.12506592744E+03 0.  0.
         23    2    1    2    0    0 -0.32910718308E+02 -0.38260601341E+02 -0.11219543205E+02  0.10617399101E+03  0.92736450351E+02 0.  0.
          5    1    3    3  502    0 -0.47441736207E+02  0.12205992612E+02 -0.20014540697E+02  0.53082566152E+02  0.41800000000E+01 0. -1.
         -5    1    3    3    0  502  0.80352454515E+02  0.26054608729E+02 -0.60524894168E+02  0.10400045575E+03  0.41800000000E+01 0. -1.
        -11    1    4    4    0    0  0.27903082697E+02  0.73006191486E+01 -0.87720347512E+01  0.30146801781E+02  0.00000000000E+00 0.  1.
         11    1    4    4    0    0 -0.60813801005E+02 -0.45561220490E+02 -0.24475084539E+01  0.76027189234E+02  0.00000000000E+00 0. -1.
</event>
<event>
 8    1  0.6965441E-009  0.1885229E+03  0.7561462E-02  0.1159800E+00
          1   -1    0    0  501    0  0.00000000000E+00  0.00000000000E+00  0.87189278899E+03  0.87189278899E+03  0.00000000000E+00 0. -1.
         -1   -1    0    0    0  501 -0.00000000000E+00 -0.00000000000E+00 -0.59842085333E+02  0.59842085333E+02  0.00000000000E+00 0.  1.
         25    2    1    2    0    0 -0.11816137883E+03 -0.12680249982E+03  0.22926054919E+03  0.31344928281E+03  0.12509623525E+03 0.  0.
         23    2    1    2    0    0  0.11816137883E+03  0.12680249982E+03  0.58279015447E+03  0.61828559151E+03  0.11221284737E+03 0.  0.
          5    1    3    3  502    0 -0.11183765056E+03 -0.13165083964E+03  0.24230331249E+03  0.29760371521E+03  0.41800000000E+01 0.  1.
         -5    1    3    3    0  502 -0.63237282694E+01  0.48483398264E+01 -0.13042763299E+02  0.15845567606E+02  0.41800000000E+01 0.  1.
        -11    1    4    4    0    0  0.89028706647E+02  0.29661094688E+02  0.18082570934E+03  0.20372488386E+03  0.00000000000E+00 0.  1.
         11    1    4    4    0    0  0.29132672186E+02  0.97141405129E+02  0.40196444514E+03  0.41456070766E+03  0.00000000000E+00 0. -1.
</event>
<event>
 8    1  0.6965441E-009  0.1400171E+03  0.7561462E-02  0.1213306E+00
          1   -1    0    0  501    0  0.00000000000E+00  0.00000000000E+00  0.13969572839E+04  0.13969572839E+04  0.00000000000E+00 0. -1.
         -1   -1    0    0    0  501 -0.00000000000E+00 -0.00000000000E+00 -0.17097528644E+02  0.17097528644E+02  0.00000000000E+00 0.  1.
         25    2    1    2    0    0 -0.65925348478E+02 -0.72408008283E+02  0.95504606331E+03  0.96816874911E+03  0.12509465407E+03 0.  0.
         23    2    1    2    0    0  0.65925348478E+02  0.72408008283E+02  0.42481369197E+03  0.44588606345E+03  0.93587592463E+02 0.  0.
          5    1    3    3  502    0 -0.85224908567E+01 -0.96094023780E+02  0.56723451477E+03  0.57539478743E+03  0.41800000000E+01 0. -1.
         -5    1    3    3    0  502 -0.57402857622E+02  0.23686015497E+02  0.38781154854E+03  0.39277396168E+03  0.41800000000E+01 0. -1.
        -11    1    4    4    0    0  0.61988087570E+02  0.15112448168E+02  0.12202496970E+03  0.13769895540E+03  0.00000000000E+00 0.  1.
         11    1    4    4    0    0  0.39372609081E+01  0.57295560115E+02  0.30278872227E+03  0.30818710805E+03  0.00000000000E+00 0. -1.
</event>
<event>
 8    1  0.6965441E-009  0.2217196E+03  0.7561462E-02  0.1132608E+00
         -1   -1    0    0    0  501 -0.00000000000E+00  0.00000000000E+00  0.22580370895E+03  0.22580370895E+03  0.00000000000E+00 0.  1.
          1   -1    0    0  501    0  0.00000000000E+00 -0.00000000000E+00 -0.25130399069E+03  0.25130399069E+03  0.00000000000E+00 0. -1.
         25    2    1    2    0    0  0.18158781207E+03  0.11124214225E+03 -0.28691451979E+02  0.24863455523E+03  0.12508794879E+03 0.  0.
         23    2    1    2    0    0 -0.18158781207E+03 -0.11124214225E+03  0.31911702446E+01  0.22847314441E+03  0.82709409633E+02 0.  0.
          5    1    3    3  502    0  0.68301270832E+02  0.88511240181E+02  0.34235610362E+02  0.11699937031E+03  0.41800000000E+01 0. -1.
         -5    1    3    3    0  502  0.11328654124E+03  0.22730902067E+02 -0.62927062341E+02  0.13163518492E+03  0.41800000000E+01 0. -1.
        -11    1    4    4    0    0 -0.56098550582E+02 -0.54520856734E+02  0.37201167584E+02  0.86622734117E+02  0.00000000000E+00 0.  1.
         11    1    4    4    0    0 -0.12548926149E+03 -0.56721285514E+02 -0.34009997340E+02  0.14185041029E+03  0.00000000000E+00 0. -1.
</event>
<event>
 7    1  0.6965441E-009  0.2796770E+03  0.7561462E-02  0.1095865E+00
          1   -1    0    0  501    0  0.00000000000E+00  0.00000000000E+00  0.41980850971E+03  0.41980850971E+03  0.00000000000E+00 0. -1.
         -1   -1    0    0    0  501 -0.00000000000E+00 -0.00000000000E+00 -0.34836889994E+03  0.34836889994E+03  0.00000000000E+00 0.  1.
         23    2    1    2    0    0  0.17488352325E+03 -0.20507028652E+03  0.28443571660E+03  0.40263140946E+03  0.92575946597E+02 0.  0.
          5    1    1    2  502    0 -0.12974531719E+03  0.11041316863E+03 -0.61351568903E+02  0.18112537797E+03  0.41800000000E+01 0.  1.
         -5    1    1    2    0  502 -0.45138206070E+02  0.94657117889E+02 -0.15164453793E+03  0.18442062222E+03  0.41800000000E+01 0.  1.
        -11    1    3    3    0    0  0.12886342006E+03 -0.19967770133E+03  0.24977195804E+03  0.34476513232E+03  0.00000000000E+00 0.  1.
         11    1    3    3    0    0  0.46020103195E+02 -0.53925851872E+01  0.34663758561E+02  0.57866277145E+02  0.00000000000E+00 0. -1.
</event>
<event>
 8    1  0.6965441E-009  0.1383869E+03  0.7561462E-02  0.1215516E+00
         -1   -1    0    0    0  501 -0.00000000000E+00  0.00000000000E+00  0.93311505928E+02  0.93311505928E+02  0.00000000000E+00 0.  1.
          1   -1    0    0  501    0  0.00000000000E+00 -0.00000000000E+00 -0.22425113378E+03  0.22425113378E+03  0.00000000000E+00 0. -1.
         25    2    1    2    0    0 -0.27308450686E+02  0.94183592467E+02 -0.72749546904E+02  0.17480380406E+03  0.12509025850E+03 0.  0.
         23    2    1    2    0    0  0.27308450686E+02 -0.94183592467E+02 -0.58190080943E+02  0.14275883564E+03  0.85893533309E+02 0.  0.
          5    1    3    3  502    0 -0.48750085111E+02  0.10999126277E+03 -0.29677382235E+02  0.12398737073E+03  0.41800000000E+01 0. -1.
         -5    1    3    3    0  502  0.21441634425E+02 -0.15807670306E+02 -0.43072164669E+02  0.50816433332E+02  0.41800000000E+01 0. -1.
        -11    1    4    4    0    0  0.43208521424E+02 -0.10267788104E+03 -0.43828958243E+02  0.11971090660E+03  0.00000000000E+00 0.  1.
         11    1    4    4    0    0 -0.15900070738E+02  0.84942885723E+01 -0.14361122700E+02  0.23047929040E+02  0.00000000000E+00 0. -1.
</event>
<event>
 8    1  0.6965441E-009  0.3405666E+03  0.7561462E-02  0.1066555E+00
          2   -1    0    0  501    0  0.00000000000E+00  0.00000000000E+00  0.54484064947E+03  0.54484064947E+03  0.00000000000E+00 0. -1.
         -2   -1    0    0    0  501 -0.00000000000E+00 -0.00000000000E+00 -0.22589746479E+03  0.22589746479E+03  0.00000000000E+00 0.  1.
         25    2    1    2    0    0  0.18666725989E+03 -0.27583117507E+03  0.17456198989E+03  0.39629108818E+03  0.12508890919E+03 0.  0.
         23    2    1    2    0    0 -0.18666725989E+03  0.27583117507E+03  0.14438119478E+03  0.37444702608E+03  0.91853921429E+02 0.  0.
          5    1    3    3  502    0  0.50564229164E+02 -0.14543127113E+03  0.13237091333E+03  0.20309240998E+03  0.41800000000E+01 0. -1.
         -5    1    3    3    0  502  0.13610303072E+03 -0.13039990394E+03  0.42191076564E+02  0.19319867820E+03  0.41800000000E+01 0. -1.
        -11    1    4    4    0    0 -0.11112566174E+03  0.21327543731E+03  0.13532468600E+03  0.27594944373E+03  0.00000000000E+00 0.  1.
         11    1    4    4    0    0 -0.75541598148E+02  0.62555737763E+02  0.90565087858E+01  0.98497582352E+02  0.00000000000E+00 0. -1.
</event>
<event>
 8    1  0.6965441E-009  0.1056701E+03  0.7561462E-02  0.1268805E+00
          3   -1    0    0  501    0  0.00000000000E+00  0.00000000000E+00  0.16702605353E+03  0.16702605353E+03  0.00000000000E+00 0. -1.
         -3   -1    0    0    0  501 -0.00000000000E+00 -0.00000000000E+00 -0.12268813099E+03  0.12268813099E+03  0.00000000000E+00 0.  1.
         25    2    1    2    0    0  0.56603291276E+02 -0.22372819250E+01 -0.51328378684E+02  0.14659719679E+03  0.12508875903E+03 0.  0.
         23    2    1    2    0    0 -0.56603291276E+02  0.22372819250E+01  0.95666301226E+02  0.14311698773E+03  0.90119326295E+02 0.  0.
          5    1    3    3  502    0  0.60833211975E+02 -0.55432035164E+02 -0.20856094919E+02  0.85004936897E+02  0.41800000000E+01 0.  1.
         -5    1    3    3    0  502 -0.42299206989E+01  0.53194753239E+02 -0.30472283766E+02  0.61592259897E+02  0.41800000000E+01 0.  1.
        -11    1    4    4    0    0 -0.20449032589E+02  0.25294571918E+02 -0.57288860069E+01  0.33027237809E+02  0.00000000000E+00 0.  1.
         11    1    4    4    0    0 -0.36154258687E+02 -0.23057289993E+02  0.10139518723E+03  0.11008974992E+03  0.00000000000E+00 0. -1.
</event>
<event>
 8    1  0.6965441E-009  0.1843852E+03  0.7561462E-02  0.1163625E+00
         -3   -1    0    0    0  501 -0.00000000000E+00  0.00000000000E+00  0.13427756339E+04  0.13427756339E+04  0.00000000000E+00 0.  1.
          3   -1    0    0  501    0  0.00000000000E+00 -0.00000000000E+00 -0.27544630261E+02  0.27544630261E+02  0.00000000000E+00 0. -1.
         25    2    1    2    0    0  0.13247145714E+03 -0.84673540253E+02  0.66678439737E+03  0.69639618452E+03  0.12509163783E+03 0.  0.
         23    2    1    2    0    0 -0.13247145714E+03  0.84673540253E+02  0.64844660629E+03  0.67392407967E+03  0.94722587417E+02 0.  0.
          5    1    3    3  502    0 -0.17444185260E+02 -0.75616631122E+01  0.19688415384E+02  0.27687261488E+02  0.41800000000E+01 0.  1.
         -5    1    3    3    0  502  0.14991564240E+03 -0.77111877141E+02  0.64709598199E+03  0.66870892303E+03  0.41800000000E+01 0.  1.
        -11    1    4    4    0    0 -0.46322067976E+02 -0.15217918211E+02  0.23268786013E+03  0.23774137054E+03  0.00000000000E+00 0.  1.
         11    1    4    4    0    0 -0.86149389168E+02  0.99891458463E+02  0.41575874616E+03  0.43618270912E+03  0.00000000000E+00 0. -1.
</event>
<event>
 8    1  0.6965441E-009  0.1092279E+03  0.7561462E-02  0.1262006E+00
          2   -1    0    0  501    0  0.00000000000E+00  0.00000000000E+00  0.56913525552E+02  0.56913525552E+02  0.00000000000E+00 0. -1.
         -2   -1    0    0    0  501 -0.00000000000E+00 -0.00000000000E+00 -0.28779790851E+03  0.28779790851E+03  0.00000000000E+00 0.  1.
         25    2    1    2    0    0  0.32314016212E+02 -0.46409058005E+01 -0.48649743479E+02  0.13812869312E+03  0.12508798772E+03 0.  0.
         23    2    1    2    0    0 -0.32314016212E+02  0.46409058005E+01 -0.18223463948E+03  0.20658274095E+03  0.91658231379E+02 0.  0.
          5    1    3    3  502    0  0.77339097008E+02 -0.28816433175E+01 -0.91170705878E+01  0.78039945992E+02  0.41800000000E+01 0. -1.
         -5    1    3    3    0  502 -0.45025080797E+02 -0.17592624830E+01 -0.39532672891E+02  0.60088747126E+02  0.41800000000E+01 0. -1.
        -11    1    4    4    0    0  0.16962732117E+02 -0.30688433270E+02 -0.85571336718E+02  0.92476850537E+02  0.00000000000E+00 0.  1.
         11    1    4    4    0    0 -0.49276748329E+02  0.35329339071E+02 -0.96663302763E+02  0.11410589041E+03  0.00000000000E+00 0. -1.
</event>
<event>
 8    1  0.6965441E-009  0.2374691E+03  0.7561462E-02  0.1121490E+00
          2   -1    0    0  501    0  0.00000000000E+00  0.00000000000E+00  0.22968071286E+03  0.22968071286E+03  0.00000000000E+00 0. -1.
         -2   -1    0    0    0  501 -0.00000000000E+00 -0.00000000000E+00 -0.34361776582E+03  0.34361776582E+03  0.00000000000E+00 0.  1.
         25    2    1    2    0    0 -0.10543532001E+03  0.20675162021E+03  0.57698967785E+02  0.26988758340E+03  0.12508915870E+03 0.  0.
         23    2    1    2    0    0  0.10543532001E+03 -0.20675162021E+03 -0.17163602074E+03  0.30341089528E+03  0.93468757317E+02 0.  0.
          5    1    3    3  502    0 -0.21314799910E+02  0.18431483166E+02  0.56851591662E+02  0.63589434196E+02  0.41800000000E+01 0. -1.
         -5    1    3    3    0  502 -0.84120520096E+02  0.18832013705E+03  0.84737612307E+00  0.20629814920E+03  0.41800000000E+01 0. -1.
        -11    1    4    4    0    0  0.87471239913E+02 -0.10422574054E+03 -0.54143829615E+02  0.14644376766E+03  0.00000000000E+00 0.  1.
         11    1    4    4    0    0  0.17964080093E+02 -0.10252587968E+03 -0.11749219112E+03  0.15696712762E+03  0.00000000000E+00 0. -1.
</event>
<event>
 8    1  0.6965441E-009  0.3302744E+03  0.7561462E-02  0.1071016E+00
          1   -1    0    0  501    0  0.00000000000E+00  0.00000000000E+00  0.13032011782E+04  0.13032011782E+04  0.00000000000E+00 0. -1.
         -1   -1    0    0    0  501 -0.00000000000E+00 -0.00000000000E+00 -0.11136948856E+03  0.11136948856E+03  0.00000000000E+00 0.  1.
         25    2    1    2    0    0  0.21168011945E+03 -0.24437072764E+03  0.91781502826E+03  0.98109952905E+03  0.12508530807E+03 0.  0.
         23    2    1    2    0    0 -0.21168011945E+03  0.24437072764E+03  0.27401666141E+03  0.43347113774E+03  0.91030604914E+02 0.  0.
          5    1    3    3  502    0  0.45179017368E+02 -0.11544681702E+03  0.22439356215E+03  0.25639628372E+03  0.41800000000E+01 0.  1.
         -5    1    3    3    0  502  0.16650110208E+03 -0.12892391062E+03  0.69342146611E+03  0.72470324533E+03  0.41800000000E+01 0.  1.
        -11    1    4    4    0    0 -0.19751397467E+03  0.24047732558E+03  0.22970837403E+03  0.38679070750E+03  0.00000000000E+00 0.  1.
         11    1    4    4    0    0 -0.14166144774E+02  0.38934020626E+01  0.44308287380E+02  0.46680430246E+02  0.00000000000E+00 0. -1.
</event>
<event>
 8    1  0.6965441E-009  0.1395605E+03  0.7561462E-02  0.1213922E+00
         -3   -1    0    0    0  501 -0.00000000000E+00  0.00000000000E+00  0.35757947780E+03  0.35757947780E+03  0.00000000000E+00 0.  1.
          3   -1    0    0  501    0  0.00000000000E+00 -0.00000000000E+00 -0.60917300750E+02  0.60917300750E+02  0.00000000000E+00 0. -1.
         25    2    1    2    0    0  0.70441978799E+02 -0.67996749413E+02  0.18672676581E+03  0.24515330873E+03  0.12509048486E+03 0.  0.
         23    2    1    2    0    0 -0.70441978799E+02  0.67996749413E+02  0.10993541124E+03  0.17334346982E+03  0.91523404527E+02 0.  0.
          5    1    3    3  502    0  0.79333800175E+00 -0.77941781216E+02  0.54131705215E+02  0.94990865634E+02  0.41800000000E+01 0.  1.
         -5    1    3    3    0  502  0.69648640798E+02  0.99450318030E+01  0.13259506059E+03  0.15016244309E+03  0.41800000000E+01 0.  1.
        -11    1    4    4    0    0  0.18009341789E+02  0.28503482814E+02  0.12524832751E+02  0.35967434711E+02  0.00000000000E+00 0. -1.
         11    1    4    4    0    0 -0.88451320588E+02  0.39493266599E+02  0.97410578487E+02  0.13737603511E+03  0.00000000000E+00 0.  1.
</event>
<event>
 8    1  0.6965441E-009  0.1263353E+03  0.7561462E-02  0.1232997E+00
         -2   -1    0    0    0  501 -0.00000000000E+00  0.00000000000E+00  0.27461420826E+02  0.27461420826E+02  0.00000000000E+00 0.  1.
          2   -1    0    0  501    0  0.00000000000E+00 -0.00000000000E+00 -0.66227113495E+03  0.66227113495E+03  0.00000000000E+00 0. -1.
         25    2    1    2    0    0  0.24652109723E+02  0.79508009772E+02 -0.31047827752E+03  0.34492676196E+03  0.12509380552E+03 0.  0.
         23    2    1    2    0    0 -0.24652109723E+02 -0.79508009772E+02 -0.32433143661E+03  0.34480579382E+03  0.82285506272E+02 0.  0.
          5    1    3    3  502    0  0.54690605517E+02  0.96760743055E+02 -0.26656498746E+03  0.28883917440E+03  0.41800000000E+01 0. -1.
         -5    1    3    3    0  502 -0.30038495794E+02 -0.17252733283E+02 -0.43913290059E+02  0.56087587567E+02  0.41800000000E+01 0. -1.
        -11    1    4    4    0    0 -0.33897405276E+02 -0.85018016191E+01 -0.48168648546E+02  0.59510784048E+02  0.00000000000E+00 0.  1.
         11    1    4    4    0    0  0.92452955530E+01 -0.71006208153E+02 -0.27616278807E+03  0.28529500977E+03  0.00000000000E+00 0. -1.
</event>
<event>
 8    1  0.6965441E-009  0.9102157E+02  0.7561462E-02  0.1300397E+00
         -1   -1    0    0    0  501 -0.00000000000E+00  0.00000000000E+00  0.56989496994E+03  0.56989496994E+03  0.00000000000E+00 0.  1.
          1   -1    0    0  501    0  0.00000000000E+00 -0.00000000000E+00 -0.29882394976E+02  0.29882394976E+02  0.00000000000E+00 0. -1.
         25    2    1    2    0    0 -0.54778623283E+02 -0.25406322100E+02  0.40277690061E+03  0.42605577186E+03  0.12509240704E+03 0.  0.
         23    2    1    2    0    0  0.54778623283E+02  0.25406322100E+02  0.13723567436E+03  0.17372159306E+03  0.87746127023E+02 0.  0.
          5    1    3    3  502    0 -0.19939955681E+02 -0.58928892776E+02  0.34506327430E+03  0.35065132526E+03  0.41800000000E+01 0.  1.
         -5    1    3    3    0  502 -0.34838667602E+02  0.33522570676E+02  0.57713626306E+02  0.75404446596E+02  0.41800000000E+01 0.  1.
        -11    1    4    4    0    0  0.35174593586E+02  0.34751645590E+02  0.14295389891E+03  0.15126382952E+03  0.00000000000E+00 0.  1.
         11    1    4    4    0    0  0.19604029697E+02 -0.93453234898E+01 -0.57182245530E+01  0.22457763547E+02  0.00000000000E+00 0. -1.
</event>
<event>
 8    1  0.6965441E-009  0.9185311E+02  0.7561462E-02  0.1298425E+00
         -1   -1    0    0    0  501 -0.00000000000E+00  0.00000000000E+00  0.44966980967E+02  0.44966980967E+02  0.00000000000E+00 0.  1.
          1   -1    0    0  501    0  0.00000000000E+00 -0.00000000000E+00 -0.30170836293E+03  0.30170836293E+03  0.00000000000E+00 0. -1.
         25    2    1    2    0    0  0.28431429824E+02 -0.30598386737E+02 -0.15505440513E+03  0.20355163127E+03  0.12508713191E+03 0.  0.
         23    2    1    2    0    0 -0.28431429824E+02  0.30598386737E+02 -0.10168697683E+03  0.14312371263E+03  0.91649050115E+02 0.  0.
          5    1    3    3  502    0  0.15361400254E+02 -0.65744690202E+02 -0.31979211255E+02  0.74822986174E+02  0.41800000000E+01 0. -1.
         -5    1    3    3    0  502  0.13070029571E+02  0.35146303465E+02 -0.12307519387E+03  0.12872864509E+03  0.41800000000E+01 0. -1.
        -11    1    4    4    0    0 -0.38012547513E+02 -0.77582752228E+01 -0.95535977338E+02  0.10311288750E+03  0.00000000000E+00 0. -1.
         11    1    4    4    0    0  0.95811176884E+01  0.38356661960E+02 -0.61509994964E+01  0.40010825131E+02  0.00000000000E+00 0.  1.
</event>
<event>
 8    1  0.6965441E-009  0.1140667E+03  0.7561462E-02  0.1253219E+00
          3   -1    0    0  501    0  0.00000000000E+00  0.00000000000E+00  0.35320926343E+02  0.35320926343E+02  0.00000000000E+00 0. -1.
         -3   -1    0    0    0  501 -0.00000000000E+00 -0.00000000000E+00 -0.42515459400E+03  0.42515459400E+03  0.00000000000E+00 0.  1.
         25    2    1    2    0    0  0.46249624214E+02 -0.19581527802E+02 -0.26289798693E+03  0.29543483090E+03  0.12507567233E+03 0.  0.
         23    2    1    2    0    0 -0.46249624214E+02  0.19581527802E+02 -0.12693568073E+03  0.16504068944E+03  0.92753965725E+02 0.  0.
          5    1    3    3  502    0 -0.30030450342E+02  0.28393170567E+02 -0.55984570940E+02  0.69711868903E+02  0.41800000000E+01 0.  1.
         -5    1    3    3    0  502  0.76280074556E+02 -0.47974698369E+02 -0.20691341599E+03  0.22572296200E+03  0.41800000000E+01 0.  1.
        -11    1    4    4    0    0 -0.62680867475E+02 -0.90927831566E+01 -0.48014618022E+02  0.79479389761E+02  0.00000000000E+00 0. -1.
         11    1    4    4    0    0  0.16431243261E+02  0.28674310959E+02 -0.78921062707E+02  0.85561299680E+02  0.00000000000E+00 0.  1.
</event>
<event>
 8    1  0.6965441E-009  0.9608912E+02  0.7561462E-02  0.1288742E+00
          1   -1    0    0  501    0  0.00000000000E+00  0.00000000000E+00  0.60999468444E+03  0.60999468444E+03  0.00000000000E+00 0. -1.
         -1   -1    0    0    0  501 -0.00000000000E+00 -0.00000000000E+00 -0.29045282613E+02  0.29045282613E+02  0.00000000000E+00 0.  1.
         25    2    1    2    0    0  0.67006523421E+02  0.38880071189E+02  0.34331851128E+03  0.37351864916E+03  0.12508815676E+03 0.  0.
         23    2    1    2    0    0 -0.67006523421E+02 -0.38880071189E+02  0.23763089054E+03  0.26552131790E+03  0.89619172062E+02 0.  0.
          5    1    3    3  502    0  0.73849537695E+01 -0.20488987635E+02  0.23621632298E+03  0.23725505221E+03  0.41800000000E+01 0.  1.
         -5    1    3    3    0  502  0.59621569651E+02  0.59369058824E+02  0.10710218830E+03  0.13626359694E+03  0.41800000000E+01 0.  1.
        -11    1    4    4    0    0 -0.49229963954E+02 -0.76462770183E+01  0.37938837037E+02  0.62621164624E+02  0.00000000000E+00 0.  1.
         11    1    4    4    0    0 -0.17776559466E+02 -0.31233794171E+02  0.19969205350E+03  0.20290015327E+03  0.00000000000E+00 0. -1.
</event>
<event>
 8    1  0.6965441E-009  0.9186304E+02  0.7561462E-02  0.1298402E+00
          1   -1    0    0  501    0  0.00000000000E+00  0.00000000000E+00  0.10716236196E+03  0.10716236196E+03  0.00000000000E+00 0. -1.
         -1   -1    0    0    0  501 -0.00000000000E+00 -0.00000000000E+00 -0.19514712984E+03  0.19514712984E+03  0.00000000000E+00 0.  1.
         25    2    1    2    0    0  0.72943399891E+02 -0.13033511408E+02  0.13859874080E+02  0.14608030531E+03  0.12512692549E+03 0.  0.
         23    2    1    2    0    0 -0.72943399891E+02  0.13033511408E+02 -0.10184464196E+03  0.15622918649E+03  0.92437090006E+02 0.  0.
          5    1    3    3  502    0  0.30729163464E+02  0.98990726051E+01  0.66897437982E+02  0.74397666188E+02  0.41800000000E+01 0.  1.
         -5    1    3    3    0  502  0.42214236427E+02 -0.22932584013E+02 -0.53037563902E+02  0.71682639120E+02  0.41800000000E+01 0.  1.
        -11    1    4    4    0    0 -0.85739806730E+02  0.20469926587E+02 -0.10867346228E+03  0.13992945993E+03  0.00000000000E+00 0.  1.
         11    1    4    4    0    0  0.12796406839E+02 -0.74364151795E+01  0.68288203284E+01  0.16299726556E+02  0.00000000000E+00 0. -1.
</event>
<event>
 8    1  0.6965441E-009  0.9862426E+02  0.7561462E-02  0.1283216E+00
         -2   -1    0    0    0  501 -0.00000000000E+00  0.00000000000E+00  0.20076808250E+02  0.20076808250E+02  0.00000000000E+00 0.  1.
          2   -1    0    0  501    0  0.00000000000E+00 -0.00000000000E+00 -0.88327671994E+03  0.88327671994E+03  0.00000000000E+00 0. -1.
         25    2    1    2    0    0 -0.74214095670E+01 -0.11040864560E+02 -0.73166598099E+03  0.74240131111E+03  0.12509045127E+03 0.  0.
         23    2    1    2    0    0  0.74214095670E+01  0.11040864560E+02 -0.13153393070E+03  0.16095221708E+03  0.91801215928E+02 0.  0.
          5    1    3    3  502    0 -0.50700767867E+02  0.34616159728E+02 -0.41291171079E+03  0.41747143577E+03  0.41800000000E+01 0. -1.
         -5    1    3    3    0  502  0.43279358300E+02 -0.45657024287E+02 -0.31875427020E+03  0.32492987534E+03  0.41800000000E+01 0. -1.
        -11    1    4    4    0    0 -0.31964591597E+02  0.90922171614E+01 -0.11222958218E+03  0.11704649779E+03  0.00000000000E+00 0. -1.
         11    1    4    4    0    0  0.39386001164E+02  0.19486473981E+01 -0.19304348527E+02  0.43905719290E+02  0.00000000000E+00 0.  1.
</event>
<event>
 8    1  0.6965441E-009  0.9468441E+02  0.7561462E-02  0.1291888E+00
         -1   -1    0    0    0  501 -0.00000000000E+00  0.00000000000E+00  0.20104316015E+02  0.20104316015E+02  0.00000000000E+00 0.  1.
          1   -1    0    0  501    0  0.00000000000E+00 -0.00000000000E+00 -0.85072225653E+03  0.85072225653E+03  0.00000000000E+00 0. -1.
         25    2    1    2    0    0  0.65112192263E+02  0.21344006414E+02 -0.41099623781E+03  0.43503977372E+03  0.12508610249E+03 0.  0.
         23    2    1    2    0    0 -0.65112192263E+02 -0.21344006414E+02 -0.41962170271E+03  0.43578679883E+03  0.95564619258E+02 0.  0.
          5    1    3    3  502    0  0.52992303625E+02 -0.44920334473E+01 -0.50715347421E+02  0.73606259734E+02  0.41800000000E+01 0.  1.
         -5    1    3    3    0  502  0.12119888638E+02  0.25836039861E+02 -0.36028089038E+03  0.36143351399E+03  0.41800000000E+01 0.  1.
        -11    1    4    4    0    0 -0.57663977802E+02  0.23098371955E+02 -0.14885920111E+03  0.16130012671E+03  0.00000000000E+00 0.  1.
         11    1    4    4    0    0 -0.74482144612E+01 -0.44442378369E+02 -0.27076250160E+03  0.27448667211E+03  0.00000000000E+00 0. -1.
</event>
<event>
 8    1  0.6965441E-009  0.1155022E+03  0.7561462E-02  0.1250707E+00
          1   -1    0    0  501    0  0.00000000000E+00  0.00000000000E+00  0.20648262872E+03  0.20648262872E+03  0.00000000000E+00 0. -1.
         -1   -1    0    0    0  501 -0.00000000000E+00 -0.00000000000E+00 -0.87168545609E+02  0.87168545609E+02  0.00000000000E+00 0.  1.
         25    2    1    2    0    0  0.64315616948E+02 -0.33361683709E+02  0.33415455361E+02  0.14836788754E+03  0.12508771671E+03 0.  0.
         23    2    1    2    0    0 -0.64315616948E+02  0.33361683709E+02  0.85898627747E+02  0.14528328679E+03  0.92082347098E+02 0.  0.
          5    1    3    3  502    0  0.90233522257E+02 -0.18967125117E+02  0.58526223315E+02  0.10929149825E+03  0.41800000000E+01 0.  1.
         -5    1    3    3    0  502 -0.25917905309E+02 -0.14394558593E+02 -0.25110767955E+02  0.39076389290E+02  0.41800000000E+01 0.  1.
        -11    1    4    4    0    0  0.12237110459E+02  0.29701946538E+02  0.52793195988E+02  0.61798657292E+02  0.00000000000E+00 0. -1.
         11    1    4    4    0    0 -0.76552727407E+02  0.36597371716E+01  0.33105431760E+02  0.83484629493E+02  0.00000000000E+00 0.  1.
</event>
<event>
 8    1  0.6965441E-009  0.3057899E+03  0.7561462E-02  0.1082382E+00
          2   -1    0    0  501    0  0.00000000000E+00  0.00000000000E+00  0.56483966242E+03  0.56483966242E+03  0.00000000000E+00 0. -1.
         -2   -1    0    0    0  501 -0.00000000000E+00 -0.00000000000E+00 -0.20189125094E+03  0.20189125094E+03  0.00000000000E+00 0.  1.
         25    2    1    2    0    0  0.24713395210E+03  0.17340411256E+03  0.30287321659E+03  0.44556075267E+03  0.12509205597E+03 0.  0.
         23    2    1    2    0    0 -0.24713395210E+03 -0.17340411256E+03  0.60075194898E+02  0.32117016068E+03  0.91635509155E+02 0.  0.
          5    1    3    3  502    0  0.19065660246E+03  0.14954143075E+03  0.29772964077E+03  0.38389190010E+03  0.41800000000E+01 0.  1.
         -5    1    3    3    0  502  0.56477349639E+02  0.23862681808E+02  0.51435758179E+01  0.61668852572E+02  0.41800000000E+01 0.  1.
        -11    1    4    4    0    0 -0.23071682796E+03 -0.13820595111E+03  0.27256093851E+02  0.27032209358E+03  0.00000000000E+00 0.  1.
         11    1    4    4    0    0 -0.16417124138E+02 -0.35198161448E+02  0.32819101047E+02  0.50848067100E+02  0.00000000000E+00 0. -1.
</event>
<event>
 7    1  0.6965441E-009  0.1065108E+03  0.7561462E-02  0.1267171E+00
          1   -1    0    0  501    0  0.00000000000E+00  0.00000000000E+00  0.42618886011E+03  0.42618886011E+03  0.00000000000E+00 0. -1.
         -1   -1    0    0    0  501 -0.00000000000E+00 -0.00000000000E+00 -0.40135651907E+02  0.40135651907E+02  0.00000000000E+00 0.  1.
         23    2    1    2    0    0  0.65471402363E+02 -0.13200835149E+02  0.11186299903E+03  0.15772048132E+03  0.88891243102E+02 0.  0.
          5    1    1    2  502    0 -0.33151335889E+02 -0.31947868864E+02  0.23605341493E+02  0.51907243649E+02  0.41800000000E+01 0. -1.
         -5    1    1    2    0  502 -0.32320066473E+02  0.45148704013E+02  0.25058486767E+03  0.25669678704E+03  0.41800000000E+01 0. -1.
        -11    1    3    3    0    0  0.77767635331E+02  0.16026439350E+02  0.77272534086E+02  0.11079574174E+03  0.00000000000E+00 0.  1.
         11    1    3    3    0    0 -0.12296232969E+02 -0.29227274499E+02  0.34590464949E+02  0.46924739587E+02  0.00000000000E+00 0. -1.
</event>
<event>
 8    1  0.6965441E-009  0.2564902E+03  0.7561462E-02  0.1109271E+00
         -1   -1    0    0    0  501 -0.00000000000E+00  0.00000000000E+00  0.66088897938E+02  0.66088897938E+02  0.00000000000E+00 0.  1.
          1   -1    0    0  501    0  0.00000000000E+00 -0.00000000000E+00 -0.16947551695E+04  0.16947551695E+04  0.00000000000E+00 0. -1.
         25    2    1    2    0    0  0.22607601815E+03 -0.72373822732E+02 -0.13806497576E+04  0.14064813579E+04  0.12509085011E+03 0.  0.
         23    2    1    2    0    0 -0.22607601815E+03  0.72373822732E+02 -0.24801651396E+03  0.35436270953E+03  0.87820285296E+02 0.  0.
          5    1    3    3  502    0  0.10122975245E+02  0.22220185947E+02 -0.59454206964E+02  0.64408744881E+02  0.41800000000E+01 0.  1.
         -5    1    3    3    0  502  0.21595304290E+03 -0.94594008680E+02 -0.13211955506E+04  0.13420726130E+04  0.41800000000E+01 0.  1.
        -11    1    4    4    0    0 -0.13148034192E+03 -0.29090568028E+01 -0.14229280566E+03  0.19375960741E+03  0.00000000000E+00 0. -1.
         11    1    4    4    0    0 -0.94595676227E+02  0.75282879535E+02 -0.10572370830E+03  0.16060310211E+03  0.00000000000E+00 0.  1.
</event>
<event>
 8    1  0.6965441E-009  0.1258425E+03  0.7561462E-02  0.1233759E+00
         -1   -1    0    0    0  501 -0.00000000000E+00  0.00000000000E+00  0.34865688171E+03  0.34865688171E+03  0.00000000000E+00 0.  1.
          1   -1    0    0  501    0  0.00000000000E+00 -0.00000000000E+00 -0.46071456765E+02  0.46071456765E+02  0.00000000000E+00 0. -1.
         25    2    1    2    0    0 -0.45295288597E+02 -0.45442148190E+02  0.14895235282E+03  0.20482210891E+03  0.12509452780E+03 0.  0.
         23    2    1    2    0    0  0.45295288597E+02  0.45442148190E+02  0.15363307213E+03  0.18990622957E+03  0.91348799532E+02 0.  0.
          5    1    3    3  502    0  0.23232947433E+02 -0.65015814519E+02  0.71213716218E+02  0.99275836746E+02  0.41800000000E+01 0. -1.
         -5    1    3    3    0  502 -0.68528236030E+02  0.19573666329E+02  0.77738636602E+02  0.10554627216E+03  0.41800000000E+01 0. -1.
        -11    1    4    4    0    0 -0.16817267894E+02 -0.16389705767E+02  0.25483174201E+02  0.34653068002E+02  0.00000000000E+00 0.  1.
         11    1    4    4    0    0  0.62112556491E+02  0.61831853957E+02  0.12814989793E+03  0.15525316157E+03  0.00000000000E+00 0. -1.
</event>
<event>
 8    1  0.6965441E-009  0.1444621E+03  0.7561462E-02  0.1207448E+00
         -1   -1    0    0    0  501 -0.00000000000E+00  0.00000000000E+00  0.54427736991E+03  0.54427736991E+03  0.00000000000E+00 0.  1.
          1   -1    0    0  501    0  0.00000000000E+00 -0.00000000000E+00 -0.52563747709E+02  0.52563747709E+02  0.00000000000E+00 0. -1.
         25    2    1    2    0    0  0.28092672596E+02 -0.12252139237E+03  0.30577874497E+03  0.35348106747E+03  0.12509010491E+03 0.  0.
         23    2    1    2    0    0 -0.28092672596E+02  0.12252139237E+03  0.18593487724E+03  0.24336005015E+03  0.94083184449E+02 0.  0.
          5    1    3    3  502    0  0.33109564774E+02  0.50347694145E+00  0.15606774568E+03  0.15959671177E+03  0.41800000000E+01 0. -1.
         -5    1    3    3    0  502 -0.50168921786E+01 -0.12302486931E+03  0.14971099929E+03  0.19388435570E+03  0.41800000000E+01 0. -1.
        -11    1    4    4    0    0  0.78238225114E+01  0.57830661019E+02  0.15030394130E+03  0.16123545616E+03  0.00000000000E+00 0.  1.
         11    1    4    4    0    0 -0.35916495107E+02  0.64690731346E+02  0.35630935939E+02  0.82124593994E+02  0.00000000000E+00 0. -1.
</event>
<event>
 8    1  0.6965441E-009  0.1474289E+03  0.7561462E-02  0.1203668E+00
          1   -1    0    0  501    0  0.00000000000E+00  0.00000000000E+00  0.32660470358E+03  0.32660470358E+03  0.00000000000E+00 0. -1.
         -1   -1    0    0    0  501 -0.00000000000E+00 -0.00000000000E+00 -0.11727036033E+03  0.11727036033E+03  0.00000000000E+00 0.  1.
         25    2    1    2    0    0 -0.81514212436E+02  0.88736854807E+02  0.23218780918E+03  0.28995466976E+03  0.12507491976E+03 0.  0.
         23    2    1    2    0    0  0.81514212436E+02 -0.88736854807E+02 -0.22853465937E+02  0.15392039415E+03  0.93007583560E+02 0.  0.
          5    1    3    3  502    0 -0.10889347885E+03  0.39692963040E+02  0.13857407005E+03  0.18070297822E+03  0.41800000000E+01 0. -1.
         -5    1    3    3    0  502  0.27379266410E+02  0.49043891767E+02  0.93613739135E+02  0.10925169154E+03  0.41800000000E+01 0. -1.
        -11    1    4    4    0    0  0.34435607163E+02 -0.21922797316E+02 -0.52916555852E+02  0.66832491844E+02  0.00000000000E+00 0.  1.
         11    1    4    4    0    0  0.47078605273E+02 -0.66814057491E+02  0.30063089914E+02  0.87087902306E+02  0.00000000000E+00 0. -1.
</event>
<event>
 8    1  0.6965441E-009  0.1149738E+03  0.7561462E-02  0.1251627E+00
          2   -1    0    0  501    0  0.00000000000E+00  0.00000000000E+00  0.42448701383E+03  0.42448701383E+03  0.00000000000E+00 0. -1.
         -2   -1    0    0    0  501 -0.00000000000E+00 -0.00000000000E+00 -0.44546148070E+02  0.44546148070E+02  0.00000000000E+00 0.  1.
         25    2    1    2    0    0 -0.69600730560E+02  0.19340886635E+02  0.13948056012E+03  0.20079863042E+03  0.12508769618E+03 0.  0.
         23    2    1    2    0    0  0.69600730560E+02 -0.19340886635E+02  0.24046030564E+03  0.26823453148E+03  0.94394246112E+02 0.  0.
          5    1    3    3  502    0  0.15866329367E+02 -0.28152716693E+02  0.79737046332E+02  0.86138172853E+02  0.41800000000E+01 0.  1.
         -5    1    3    3    0  502 -0.85467059927E+02  0.47493603328E+02  0.59743513785E+02  0.11466045756E+03  0.41800000000E+01 0.  1.
        -11    1    4    4    0    0  0.61382979759E+02  0.15819426460E+02  0.21474599589E+03  0.22390615714E+03  0.00000000000E+00 0. -1.
         11    1    4    4    0    0  0.82177508008E+01 -0.35160313094E+02  0.25714309754E+02  0.44328374335E+02  0.00000000000E+00 0.  1.
</event>
<event>
 8    1  0.6965441E-009  0.1169321E+03  0.7561462E-02  0.1248246E+00
         -1   -1    0    0    0  501 -0.00000000000E+00  0.00000000000E+00  0.50162559142E+03  0.50162559142E+03  0.00000000000E+00 0.  1.
          1   -1    0    0  501    0  0.00000000000E+00 -0.00000000000E+00 -0.42330699298E+02  0.42330699298E+02  0.00000000000E+00 0. -1.
         25    2    1    2    0    0 -0.84552155554E+02 -0.56468597608E+02  0.24191046250E+03  0.29069790966E+03  0.12508730267E+03 0.  0.
         23    2    1    2    0    0  0.84552155554E+02  0.56468597608E+02  0.21738442962E+03  0.25325838105E+03  0.80907649881E+02 0.  0.
          5    1    3    3  502    0 -0.92711590458E+01 -0.25999154359E+02  0.19464900646E+03  0.19664083638E+03  0.41800000000E+01 0. -1.
         -5    1    3    3    0  502 -0.75280996509E+02 -0.30469443249E+02  0.47261456047E+02  0.94057073285E+02  0.41800000000E+01 0. -1.
        -11    1    4    4    0    0  0.49838098479E+02 -0.88858458846E+01  0.54684938176E+02  0.74520042810E+02  0.00000000000E+00 0. -1.
         11    1    4    4    0    0  0.34714057075E+02  0.65354443493E+02  0.16269949144E+03  0.17873833824E+03  0.00000000000E+00 0.  1.
</event>
<event>
 8    1  0.6965441E-009  0.1463742E+03  0.7561462E-02  0.1205000E+00
          1   -1    0    0  501    0  0.00000000000E+00  0.00000000000E+00  0.28273045893E+03  0.28273045893E+03  0.00000000000E+00 0. -1.
         -1   -1    0    0    0  501 -0.00000000000E+00 -0.00000000000E+00 -0.87156384954E+02  0.87156384954E+02  0.00000000000E+00 0.  1.
         25    2    1    2    0    0  0.69791663863E+02 -0.88781245591E+02  0.11226642289E+03  0.20249625628E+03  0.12509195891E+03 0.  0.
         23    2    1    2    0    0 -0.69791663863E+02  0.88781245591E+02  0.83307651084E+02  0.16739058761E+03  0.91249428366E+02 0.  0.
          5    1    3    3  502    0  0.76376318547E+02 -0.11664674652E+03  0.95568852348E+02  0.16908779804E+03  0.41800000000E+01 0. -1.
         -5    1    3    3    0  502 -0.65846546836E+01  0.27865500929E+02  0.16697570542E+02  0.33408458231E+02  0.41800000000E+01 0. -1.
        -11    1    4    4    0    0 -0.24589037379E+02 -0.12014926537E+00 -0.13794558209E+02  0.28194414895E+02  0.00000000000E+00 0.  1.
         11    1    4    4    0    0 -0.45202626484E+02  0.88901394856E+02  0.97102209292E+02  0.13919617271E+03  0.00000000000E+00 0. -1.
</event>
<event>
 8    1  0.6965441E-009  0.1279496E+03  0.7561462E-02  0.1230530E+00
         -2   -1    0    0    0  501 -0.00000000000E+00  0.00000000000E+00  0.54572679227E+03  0.54572679227E+03  0.00000000000E+00 0.  1.
          2   -1    0    0  501    0  0.00000000000E+00 -0.00000000000E+00 -0.34771767935E+02  0.34771767935E+02  0.00000000000E+00 0. -1.
         25    2    1    2    0    0  0.24678786480E+02  0.80122864234E+02  0.25135305582E+03  0.29300849858E+03  0.12508759209E+03 0.  0.
         23    2    1    2    0    0 -0.24678786480E+02 -0.80122864234E+02  0.25960196852E+03  0.28749006162E+03  0.90711838259E+02 0.  0.
          5    1    3    3  502    0 -0.37398591509E+02 -0.11628843854E+02  0.57511630369E+02  0.69706130892E+02  0.41800000000E+01 0. -1.
         -5    1    3    3    0  502  0.62077377989E+02  0.91751708088E+02  0.19384142545E+03  0.22330236769E+03  0.41800000000E+01 0. -1.
        -11    1    4    4    0    0  0.93405687413E+01 -0.69340762539E+02  0.89072754799E+02  0.11326669070E+03  0.00000000000E+00 0. -1.
         11    1    4    4    0    0 -0.34019355221E+02 -0.10782101696E+02  0.17052921372E+03  0.17422337093E+03  0.00000000000E+00 0.  1.
</event>
<event>
 8    1  0.6965441E-009  0.1049825E+03  0.7561462E-02  0.1270154E+00
         -2   -1    0    0    0  501 -0.00000000000E+00  0.00000000000E+00  0.12872271227E+02  0.12872271227E+02  0.00000000000E+00 0.  1.
          2   -1    0    0  501    0  0.00000000000E+00 -0.00000000000E+00 -0.10868576062E+04  0.10868576062E+04  0.00000000000E+00 0. -1.
         25    2    1    2    0    0 -0.37052305781E+02  0.19352556753E+02 -0.70396735046E+03  0.71621576970E+03  0.12509038110E+03 0.  0.
         23    2    1    2    0    0  0.37052305781E+02 -0.19352556753E+02 -0.37001798455E+03  0.38351410775E+03  0.91773455541E+02 0.  0.
          5    1    3    3  502    0 -0.69256668146E+02 -0.25065529970E+02 -0.47718871084E+03  0.48285743758E+03  0.41800000000E+01 0.  1.
         -5    1    3    3    0  502  0.32204362365E+02  0.44418086723E+02 -0.22677863962E+03  0.23335833212E+03  0.41800000000E+01 0.  1.
        -11    1    4    4    0    0  0.53683502147E+02 -0.29927304114E+02 -0.35024371915E+03  0.35559559157E+03  0.00000000000E+00 0. -1.
         11    1    4    4    0    0 -0.16631196366E+02  0.10574747360E+02 -0.19774265392E+02  0.27918516187E+02  0.00000000000E+00 0.  1.
</event>
<event>
 8    1  0.6965441E-009  0.1055155E+03  0.7561462E-02  0.1269107E+00
          2   -1    0    0  501    0  0.00000000000E+00  0.00000000000E+00  0.10818057223E+03  0.10818057223E+03  0.00000000000E+00 0. -1.
         -2   -1    0    0    0  501 -0.00000000000E+00 -0.00000000000E+00 -0.16929240200E+03  0.16929240200E+03  0.00000000000E+00 0.  1.
         25    2    1    2    0    0 -0.76152137769E+02 -0.35181819459E+02 -0.33156813001E+02  0.15422015542E+03  0.12509026174E+03 0.  0.
         23    2    1    2    0    0  0.76152137769E+02  0.35181819459E+02 -0.27955016768E+02  0.12325281880E+03  0.85865393917E+02 0.  0.
          5    1    3    3  502    0 -0.68891674963E+02 -0.41798624380E+02 -0.75529605639E+02  0.11052321750E+03  0.41800000000E+01 0. -1.
         -5    1    3    3    0  502 -0.72604628056E+01  0.66168049206E+01  0.42372792637E+02  0.43696937918E+02  0.41800000000E+01 0. -1.
        -11    1    4    4    0    0 -0.11304204920E+02 -0.15041223716E+02 -0.90638674911E+00  0.18837329872E+02  0.00000000000E+00 0. -1.
         11    1    4    4    0    0  0.87456342689E+02  0.50223043175E+02 -0.27048630019E+02  0.10441548893E+03  0.00000000000E+00 0.  1.
</event>
<event>
 7    1  0.6965441E-009  0.1316634E+03  0.7561462E-02  0.1225008E+00
          2   -1    0    0  501    0  0.00000000000E+00  0.00000000000E+00  0.52074148415E+03  0.52074148415E+03  0.00000000000E+00 0.  1.
         -2   -1    0    0    0  501 -0.00000000000E+00 -0.00000000000E+00 -0.34879333200E+02  0.34879333200E+02  0.00000000000E+00 0. -1.
         23    2    1    2    0    0 -0.64532630585E+02 -0.46314539162E+02  0.23222380869E+03  0.26167021013E+03  0.90740865099E+02 0.  0.
          5    1    1    2  502    0 -0.28719719298E+01  0.74704543740E+02  0.13949586092E+03  0.15832114417E+03  0.41800000000E+01 0. -1.
         -5    1    1    2    0  502  0.67404602515E+02 -0.28390004579E+02  0.11414248133E+03  0.13562946304E+03  0.41800000000E+01 0. -1.
        -11    1    3    3    0    0 -0.32607197383E+02  0.22306706054E+02  0.45896092800E+02  0.60557987008E+02  0.00000000000E+00 0.  1.
         11    1    3    3    0    0 -0.31925433203E+02 -0.68621245216E+02  0.18632771589E+03  0.20111222312E+03  0.00000000000E+00 0. -1.
</event>
<event>
 8    1  0.6965441E-009  0.6654192E+02  0.7561462E-02  0.1372264E+00
          2   -1    0    0  501    0  0.00000000000E+00  0.00000000000E+00  0.98463387554E+03  0.98463387554E+03  0.00000000000E+00 0. -1.
         -2   -1    0    0    0  501 -0.00000000000E+00 -0.00000000000E+00 -0.13341354352E+02  0.13341354352E+02  0.00000000000E+00 0.  1.
         25    2    1    2    0    0 -0.14024771397E+02  0.13706662319E+02  0.68049835538E+03  0.69217712098E+03  0.12508632354E+03 0.  0.
         23    2    1    2    0    0  0.14024771397E+02 -0.13706662319E+02  0.29079416581E+03  0.30579810891E+03  0.92556305775E+02 0.  0.
          5    1    3    3  502    0 -0.40884535584E+01 -0.10686730357E+02  0.65553302385E+03  0.65564619988E+03  0.41800000000E+01 0.  1.
         -5    1    3    3    0  502 -0.99363178388E+01  0.24393392677E+02  0.24965331531E+02  0.36530921107E+02  0.41800000000E+01 0.  1.
        -11    1    4    4    0    0 -0.13858387748E+02 -0.48042630334E+02  0.16785640358E+03  0.17514542946E+03  0.00000000000E+00 0.  1.
         11    1    4    4    0    0  0.27883159145E+02  0.34335968014E+02  0.12293776224E+03  0.13065267945E+03  0.00000000000E+00 0. -1.
</event>
<event>
 8    1  0.6965441E-009  0.1048936E+03  0.7561462E-02  0.1270329E+00
          1   -1    0    0  501    0  0.00000000000E+00  0.00000000000E+00  0.52171904619E+03  0.52171904619E+03  0.00000000000E+00 0. -1.
         -1   -1    0    0    0  501 -0.00000000000E+00 -0.00000000000E+00 -0.33976599891E+02  0.33976599891E+02  0.00000000000E+00 0.  1.
         25    2    1    2    0    0 -0.25605291419E+02 -0.67561631247E+02  0.32494077582E+03  0.35560413943E+03  0.12509033223E+03 0.  0.
         23    2    1    2    0    0  0.25605291419E+02  0.67561631247E+02  0.16280167047E+03  0.20009150665E+03  0.91170292094E+02 0.  0.
          5    1    3    3  502    0  0.12198365855E+02 -0.81715924392E+02  0.11434058446E+03  0.14112949403E+03  0.41800000000E+01 0. -1.
         -5    1    3    3    0  502 -0.37803657275E+02  0.14154293145E+02  0.21060019136E+03  0.21447464540E+03  0.41800000000E+01 0. -1.
        -11    1    4    4    0    0 -0.14152030356E+02  0.19720765359E+02 -0.15893484005E+01  0.24325184026E+02  0.00000000000E+00 0.  1.
         11    1    4    4    0    0  0.39757321775E+02  0.47840865888E+02  0.16439101887E+03  0.17576632263E+03  0.00000000000E+00 0. -1.
</event>
<event>
 8    1  0.6965441E-009  0.9248036E+02  0.7561462E-02  0.1296954E+00
          1   -1    0    0  501    0  0.00000000000E+00  0.00000000000E+00  0.28421762744E+03  0.28421762744E+03  0.00000000000E+00 0. -1.
         -1   -1    0    0    0  501 -0.00000000000E+00 -0.00000000000E+00 -0.72584242373E+02  0.72584242373E+02  0.00000000000E+00 0.  1.
         25    2    1    2    0    0 -0.26864951570E+02 -0.20914573869E+01  0.30797279341E+01  0.12799736929E+03  0.12509093494E+03 0.  0.
         23    2    1    2    0    0  0.26864951570E+02  0.20914573869E+01  0.20855365714E+03  0.22880450053E+03  0.90170792051E+02 0.  0.
          5    1    3    3  502    0 -0.75464805578E+01  0.53937710088E+02  0.30500260943E+02  0.62561683609E+02  0.41800000000E+01 0.  1.
         -5    1    3    3    0  502 -0.19318471012E+02 -0.56029167475E+02 -0.27420533009E+02  0.65435685682E+02  0.41800000000E+01 0.  1.
        -11    1    4    4    0    0  0.46864360496E+02  0.12325891421E+02  0.19825361768E+03  0.20408991353E+03  0.00000000000E+00 0. -1.
         11    1    4    4    0    0 -0.19999408926E+02 -0.10234434034E+02  0.10300039462E+02  0.24714586995E+02  0.00000000000E+00 0.  1.
</event>
<event>
 8    1  0.6965441E-009  0.1031968E+03  0.7561462E-02  0.1273714E+00
         -2   -1    0    0    0  501 -0.00000000000E+00  0.00000000000E+00  0.88586494869E+02  0.88586494869E+02  0.00000000000E+00 0.  1.
          2   -1    0    0  501    0  0.00000000000E+00 -0.00000000000E+00 -0.16669762871E+03  0.16669762871E+03  0.00000000000E+00 0. -1.
         25    2    1    2    0    0 -0.17167903987E+02 -0.27714623113E+02 -0.21453801211E+02  0.13103373004E+03  0.12508691203E+03 0.  0.
         23    2    1    2    0    0  0.17167903987E+02  0.27714623113E+02 -0.56657332632E+02  0.12425039354E+03  0.10566583976E+03 0.  0.
          5    1    3    3  502    0  0.38634348413E+02 -0.35868509618E+02 -0.45328091057E+02  0.69651066743E+02  0.41800000000E+01 0.  1.
         -5    1    3    3    0  502 -0.55802252400E+02  0.81538865051E+01  0.23874289846E+02  0.61382663300E+02  0.41800000000E+01 0.  1.
        -11    1    4    4    0    0  0.19624531268E+02  0.60746482737E+02 -0.63922226970E+02  0.90339960666E+02  0.00000000000E+00 0. -1.
         11    1    4    4    0    0 -0.24566272812E+01 -0.33031859624E+02  0.72648943374E+01  0.33910432872E+02  0.00000000000E+00 0.  1.
</event>
<event>
 8    1  0.6965441E-009  0.9213116E+02  0.7561462E-02  0.1297771E+00
          1   -1    0    0  501    0  0.00000000000E+00  0.00000000000E+00  0.51652827641E+03  0.51652827641E+03  0.00000000000E+00 0. -1.
         -1   -1    0    0    0  501 -0.00000000000E+00 -0.00000000000E+00 -0.25962859894E+02  0.25962859894E+02  0.00000000000E+00 0.  1.
         25    2    1    2    0    0 -0.19943522693E+02 -0.28101116470E+02  0.23023901809E+03  0.26428331659E+03  0.12509296195E+03 0.  0.
         23    2    1    2    0    0  0.19943522693E+02  0.28101116470E+02  0.26032639843E+03  0.27820781972E+03  0.91882209333E+02 0.  0.
          5    1    3    3  502    0  0.25343066966E+02  0.29831399671E+02  0.15123053342E+03  0.15627005500E+03  0.41800000000E+01 0. -1.
         -5    1    3    3    0  502 -0.45286589658E+02 -0.57932516140E+02  0.79008484668E+02  0.10801326159E+03  0.41800000000E+01 0. -1.
        -11    1    4    4    0    0 -0.35457452437E+01 -0.18618505400E+02  0.80891594136E+01  0.20607172360E+02  0.00000000000E+00 0.  1.
         11    1    4    4    0    0  0.23489267936E+02  0.46719621870E+02  0.25223723901E+03  0.25760064736E+03  0.00000000000E+00 0. -1.
</event>
<event>
 8    1  0.6965441E-009  0.1458216E+03  0.7561462E-02  0.1205703E+00
          1   -1    0    0  501    0  0.00000000000E+00  0.00000000000E+00  0.30424101409E+03  0.30424101409E+03  0.00000000000E+00 0. -1.
         -1   -1    0    0    0  501 -0.00000000000E+00 -0.00000000000E+00 -0.86779890938E+02  0.86779890938E+02  0.00000000000E+00 0.  1.
         25    2    1    2    0    0  0.10591730334E+01  0.91752968643E+02  0.19820062960E+03  0.25169604668E+03  0.12509069205E+03 0.  0.
         23    2    1    2    0    0 -0.10591730334E+01 -0.91752968643E+02  0.19260493553E+02  0.13932485835E+03  0.10305687964E+03 0.  0.
          5    1    3    3  502    0  0.38495446516E+02 -0.14525750529E+02  0.40979872810E+02  0.58221295128E+02  0.41800000000E+01 0.  1.
         -5    1    3    3    0  502 -0.37436273483E+02  0.10627871917E+03  0.15722075679E+03  0.19347475155E+03  0.41800000000E+01 0.  1.
        -11    1    4    4    0    0 -0.32239434505E+02 -0.10017252064E+03  0.98924036492E+01  0.10569661621E+03  0.00000000000E+00 0. -1.
         11    1    4    4    0    0  0.31180261471E+02  0.84195519937E+01  0.93680899037E+01  0.33628242143E+02  0.00000000000E+00 0.  1.
</event>
<event>
 8    1  0.6965441E-009  0.1077378E+03  0.7561462E-02  0.1264817E+00
          1   -1    0    0  501    0  0.00000000000E+00  0.00000000000E+00  0.17808072567E+02  0.17808072567E+02  0.00000000000E+00 0. -1.
         -1   -1    0    0    0  501 -0.00000000000E+00 -0.00000000000E+00 -0.70977963761E+03  0.70977963761E+03  0.00000000000E+00 0.  1.
         25    2    1    2    0    0  0.38414574802E+02 -0.25173589817E+02 -0.35576021128E+03  0.37989611603E+03  0.12508533834E+03 0.  0.
         23    2    1    2    0    0 -0.38414574802E+02  0.25173589817E+02 -0.33621135377E+03  0.34769159415E+03  0.75775860642E+02 0.  0.
          5    1    3    3  502    0  0.14005129293E+01 -0.70317535574E+02 -0.14579860658E+03  0.16192968637E+03  0.41800000000E+01 0.  1.
         -5    1    3    3    0  502  0.37014061872E+02  0.45143945757E+02 -0.20996160470E+03  0.21796642967E+03  0.41800000000E+01 0.  1.
        -11    1    4    4    0    0  0.21947045578E+02  0.28332580896E+01 -0.56696550485E+02  0.60862131066E+02  0.00000000000E+00 0. -1.
         11    1    4    4    0    0 -0.60361620380E+02  0.22340331727E+02 -0.27951480329E+03  0.28682946308E+03  0.00000000000E+00 0.  1.
</event>
<event>
 8    1  0.6965441E-009  0.2122545E+03  0.7561462E-02  0.1139793E+00
          1   -1    0    0  501    0  0.00000000000E+00  0.00000000000E+00  0.16111080975E+04  0.16111080975E+04  0.00000000000E+00 0. -1.
         -1   -1    0    0    0  501 -0.00000000000E+00 -0.00000000000E+00 -0.35147316802E+02  0.35147316802E+02  0.00000000000E+00 0.  1.
         25    2    1    2    0    0 -0.11852259295E+03 -0.17036056748E+03  0.10443399539E+04  0.10720836319E+04  0.12508815497E+03 0.  0.
         23    2    1    2    0    0  0.11852259295E+03  0.17036056748E+03  0.53162082676E+03  0.57417178235E+03  0.63104708285E+02 0.  0.
          5    1    3    3  502    0 -0.12409589258E+03 -0.16906205546E+03  0.78187918486E+03  0.80952720848E+03  0.41800000000E+01 0.  1.
         -5    1    3    3    0  502  0.55732996258E+01 -0.12985120248E+01  0.26246076903E+03  0.26255642343E+03  0.41800000000E+01 0.  1.
        -11    1    4    4    0    0  0.48348795474E+02  0.75830259592E+02  0.15092681700E+03  0.17568932347E+03  0.00000000000E+00 0.  1.
         11    1    4    4    0    0  0.70173797477E+02  0.94530307891E+02  0.38069400976E+03  0.39848245888E+03  0.00000000000E+00 0. -1.
</event>
<event>
 8    1  0.6965441E-009  0.1152584E+03  0.7561462E-02  0.1251131E+00
         -2   -1    0    0    0  501 -0.00000000000E+00  0.00000000000E+00  0.47362296189E+02  0.47362296189E+02  0.00000000000E+00 0. -1.
          2   -1    0    0  501    0  0.00000000000E+00 -0.00000000000E+00 -0.12331451881E+04  0.12331451881E+04  0.00000000000E+00 0.  1.
         25    2    1    2    0    0 -0.41829545556E+02  0.79329249357E+02 -0.11300747221E+04  0.11405083998E+04  0.12509073369E+03 0.  0.
         23    2    1    2    0    0  0.41829545556E+02 -0.79329249357E+02 -0.55708169755E+02  0.13999908450E+03  0.91942932287E+02 0.  0.
          5    1    3    3  502    0 -0.77157369020E+02  0.38523749328E+02 -0.90083926520E+03  0.90496750936E+03  0.41800000000E+01 0. -1.
         -5    1    3    3    0  502  0.35327823464E+02  0.40805500029E+02 -0.22923545692E+03  0.23554089040E+03  0.41800000000E+01 0. -1.
        -11    1    4    4    0    0  0.17353843203E+02 -0.41515231327E+02 -0.77765008548E+02  0.89844681871E+02  0.00000000000E+00 0.  1.
         11    1    4    4    0    0  0.24475702353E+02 -0.37814018031E+02  0.22056838792E+02  0.50154402626E+02  0.00000000000E+00 0. -1.
</event>
<event>
 8    1  0.6965441E-009  0.1219800E+03  0.7561462E-02  0.1239866E+00
          1   -1    0    0  501    0  0.00000000000E+00  0.00000000000E+00  0.59864957018E+03  0.59864957018E+03  0.00000000000E+00 0. -1.
         -1   -1    0    0    0  501 -0.00000000000E+00 -0.00000000000E+00 -0.29586728079E+02  0.29586728079E+02  0.00000000000E+00 0.  1.
         25    2    1    2    0    0  0.10896246646E+02 -0.72407043468E+02  0.36010520337E+03  0.38818134027E+03  0.12508991690E+03 0.  0.
         23    2    1    2    0    0 -0.10896246646E+02  0.72407043468E+02  0.20895763874E+03  0.24005495799E+03  0.92744702994E+02 0.  0.
          5    1    3    3  502    0  0.57659337165E+02 -0.35659839434E+02  0.97076203952E+02  0.11847989317E+03  0.41800000000E+01 0. -1.
         -5    1    3    3    0  502 -0.46763090519E+02 -0.36747204034E+02  0.26302899941E+03  0.26970144711E+03  0.41800000000E+01 0. -1.
        -11    1    4    4    0    0  0.25960089278E+02  0.75100255704E+02  0.12229976699E+03  0.14584652086E+03  0.00000000000E+00 0.  1.
         11    1    4    4    0    0 -0.36856335923E+02 -0.26932122360E+01  0.86657871746E+02  0.94208437124E+02  0.00000000000E+00 0. -1.
</event>
<event>
 8    1  0.6965441E-009  0.1666202E+03  0.7561462E-02  0.1181419E+00
         -2   -1    0    0    0  501 -0.00000000000E+00  0.00000000000E+00  0.23966339007E+03  0.23966339007E+03  0.00000000000E+00 0. -1.
          2   -1    0    0  501    0  0.00000000000E+00 -0.00000000000E+00 -0.17641660817E+03  0.17641660817E+03  0.00000000000E+00 0.  1.
         25    2    1    2    0    0 -0.89318193657E+02 -0.98284129512E+02 -0.80978404477E+02  0.19960053344E+03  0.12508141798E+03 0.  0.
         23    2    1    2    0    0  0.89318193657E+02  0.98284129512E+02  0.14422518638E+03  0.21647946480E+03  0.91787496211E+02 0.  0.
          5    1    3    3  502    0 -0.11253584328E+03 -0.39954563007E+02 -0.51467431139E+02  0.13010400453E+03  0.41800000000E+01 0. -1.
         -5    1    3    3    0  502  0.23217649620E+02 -0.58329566505E+02 -0.29510973338E+02  0.69496528906E+02  0.41800000000E+01 0. -1.
        -11    1    4    4    0    0 -0.12396745956E+02  0.14283859046E+02 -0.26074220768E+01  0.19092055662E+02  0.00000000000E+00 0.  1.
         11    1    4    4    0    0  0.10171493961E+03  0.84000270467E+02  0.14683260846E+03  0.19738740914E+03  0.00000000000E+00 0. -1.
</event>
<event>
 8    1  0.6965441E-009  0.6301096E+02  0.7561462E-02  0.1385614E+00
          1   -1    0    0  501    0  0.00000000000E+00  0.00000000000E+00  0.19733239170E+03  0.19733239170E+03  0.00000000000E+00 0. -1.
         -1   -1    0    0    0  501 -0.00000000000E+00 -0.00000000000E+00 -0.69383511488E+02  0.69383511488E+02  0.00000000000E+00 0.  1.
         25    2    1    2    0    0 -0.39960743145E+02 -0.30539573380E+01  0.97233973873E+02  0.16341942572E+03  0.12508107522E+03 0.  0.
         23    2    1    2    0    0  0.39960743145E+02  0.30539573380E+01  0.30714906334E+02  0.10329647746E+03  0.90114200530E+02 0.  0.
          5    1    3    3  502    0 -0.18879278007E+02  0.21042562505E+02 -0.24397268750E+02  0.37575466694E+02  0.41800000000E+01 0. -1.
         -5    1    3    3    0  502 -0.21081465138E+02 -0.24096519843E+02  0.12163124262E+03  0.12584395902E+03  0.41800000000E+01 0. -1.
        -11    1    4    4    0    0  0.29818791095E+02  0.26321338607E+02 -0.21519120809E+02  0.45222181823E+02  0.00000000000E+00 0.  1.
         11    1    4    4    0    0  0.10141952050E+02 -0.23267381269E+02  0.52234027144E+02  0.58074295640E+02  0.00000000000E+00 0. -1.
</event>
<event>
 8    1  0.6965441E-009  0.3316780E+03  0.7561462E-02  0.1070397E+00
         -1   -1    0    0    0  501 -0.00000000000E+00  0.00000000000E+00  0.41167753185E+03  0.41167753185E+03  0.00000000000E+00 0.  1.
          1   -1    0    0  501    0  0.00000000000E+00 -0.00000000000E+00 -0.26923526138E+03  0.26923526138E+03  0.00000000000E+00 0. -1.
         25    2    1    2    0    0 -0.19353580014E+03 -0.24634020387E+03  0.51814396647E+02  0.34127996071E+03  0.12509067874E+03 0.  0.
         23    2    1    2    0    0  0.19353580014E+03  0.24634020387E+03  0.90627873825E+02  0.33963283251E+03  0.94854875634E+02 0.  0.
          5    1    3    3  502    0 -0.21139048811E+03 -0.23248574924E+03  0.46272338962E+02  0.31763841678E+03  0.41800000000E+01 0. -1.
         -5    1    3    3    0  502  0.17854687979E+02 -0.13854454632E+02  0.55420576858E+01  0.23641543930E+02  0.41800000000E+01 0. -1.
        -11    1    4    4    0    0  0.83072666624E+02  0.17746697542E+03  0.68586160561E+02  0.20760456817E+03  0.00000000000E+00 0. -1.
         11    1    4    4    0    0  0.11046313351E+03  0.68873228449E+02  0.22041713265E+02  0.13202826434E+03  0.00000000000E+00 0.  1.
</event>
<event>
 8    1  0.6965441E-009  0.1322649E+03  0.7561462E-02  0.1224133E+00
         -1   -1    0    0    0  501 -0.00000000000E+00  0.00000000000E+00  0.59251211559E+03  0.59251211559E+03  0.00000000000E+00 0.  1.
          1   -1    0    0  501    0  0.00000000000E+00 -0.00000000000E+00 -0.43607986569E+02  0.43607986569E+02  0.00000000000E+00 0. -1.
         25    2    1    2    0    0  0.46381463090E+02 -0.10031751883E+03  0.37766711171E+03  0.41291099265E+03  0.12509274912E+03 0.  0.
         23    2    1    2    0    0 -0.46381463090E+02  0.10031751883E+03  0.17123701731E+03  0.22320910951E+03  0.91023874713E+02 0.  0.
          5    1    3    3  502    0  0.61734151251E+02 -0.10324264884E+03  0.19246145101E+03  0.22700007157E+03  0.41800000000E+01 0.  1.
         -5    1    3    3    0  502 -0.15352688161E+02  0.29251300140E+01  0.18520566070E+03  0.18591092108E+03  0.41800000000E+01 0.  1.
        -11    1    4    4    0    0  0.47781205927E+01  0.66475727715E+02  0.13845060963E+03  0.15365683883E+03  0.00000000000E+00 0.  1.
         11    1    4    4    0    0 -0.51159583683E+02  0.33841791114E+02  0.32786407683E+02  0.69552270683E+02  0.00000000000E+00 0. -1.
</event>
<event>
 8    1  0.6965441E-009  0.6930240E+02  0.7561462E-02  0.1362481E+00
         -2   -1    0    0    0  501 -0.00000000000E+00  0.00000000000E+00  0.22946622956E+02  0.22946622956E+02  0.00000000000E+00 0.  1.
          2   -1    0    0  501    0  0.00000000000E+00 -0.00000000000E+00 -0.61584382511E+03  0.61584382511E+03  0.00000000000E+00 0. -1.
         25    2    1    2    0    0  0.25104874397E+02  0.37878697026E+02 -0.38167016319E+03  0.40421007258E+03  0.12509443990E+03 0.  0.
         23    2    1    2    0    0 -0.25104874397E+02 -0.37878697026E+02 -0.21122703896E+03  0.23458037549E+03  0.91356664615E+02 0.  0.
          5    1    3    3  502    0  0.22947463763E+02  0.97665046098E+01 -0.41620330274E+01  0.25627438896E+02  0.41800000000E+01 0.  1.
         -5    1    3    3    0  502  0.21574106338E+01  0.28112192416E+02 -0.37750813017E+03  0.37858263368E+03  0.41800000000E+01 0.  1.
        -11    1    4    4    0    0 -0.49482974824E+02 -0.15854083833E+02 -0.58001657688E+02  0.77872389627E+02  0.00000000000E+00 0.  1.
         11    1    4    4    0    0  0.24378100428E+02 -0.22024613193E+02 -0.15322538127E+03  0.15670798586E+03  0.00000000000E+00 0. -1.
</event>
<event>
 8    1  0.6965441E-009  0.2317743E+03  0.7561462E-02  0.1125397E+00
          1   -1    0    0  501    0  0.00000000000E+00  0.00000000000E+00  0.99724617716E+03  0.99724617716E+03  0.00000000000E+00 0. -1.
         -1   -1    0    0    0  501 -0.00000000000E+00 -0.00000000000E+00 -0.61509271042E+02  0.61509271042E+02  0.00000000000E+00 0.  1.
         25    2    1    2    0    0  0.91195714133E+02 -0.19458680868E+03  0.36199054244E+03  0.43916448152E+03  0.12509038580E+03 0.  0.
         23    2    1    2    0    0 -0.91195714133E+02  0.19458680868E+03  0.57374636367E+03  0.61959096668E+03  0.92343877850E+02 0.  0.
          5    1    3    3  502    0  0.10727749829E+03 -0.11877894747E+03  0.29916735254E+03  0.33931619064E+03  0.41800000000E+01 0. -1.
         -5    1    3    3    0  502 -0.16081784154E+02 -0.75807861210E+02  0.62823189900E+02  0.99848290882E+02  0.41800000000E+01 0. -1.
        -11    1    4    4    0    0 -0.10982501982E+02  0.10504550775E+03  0.18909966005E+03  0.21659606524E+03  0.00000000000E+00 0.  1.
         11    1    4    4    0    0 -0.80213212151E+02  0.89541300931E+02  0.38464670363E+03  0.40299490144E+03  0.00000000000E+00 0. -1.
</event>
<event>
 8    1  0.6965441E-009  0.7648028E+02  0.7561462E-02  0.1339347E+00
         -2   -1    0    0    0  501 -0.00000000000E+00  0.00000000000E+00  0.40997019904E+02  0.40997019904E+02  0.00000000000E+00 0.  1.
          2   -1    0    0  501    0  0.00000000000E+00 -0.00000000000E+00 -0.39219011203E+03  0.39219011203E+03  0.00000000000E+00 0. -1.
         25    2    1    2    0    0 -0.65466303123E+02  0.66222817980E+01 -0.21870716385E+03  0.26040222381E+03  0.12508718233E+03 0.  0.
         23    2    1    2    0    0  0.65466303123E+02 -0.66222817980E+01 -0.13248592828E+03  0.17278490813E+03  0.89288363317E+02 0.  0.
          5    1    3    3  502    0  0.34505521853E+01  0.62630624526E+01 -0.18203446630E+03  0.18222280753E+03  0.41800000000E+01 0.  1.
         -5    1    3    3    0  502 -0.68916855308E+02  0.35921934532E+00 -0.36672697544E+02  0.78179416276E+02  0.41800000000E+01 0.  1.
        -11    1    4    4    0    0  0.57589397217E+01 -0.14317318962E+02  0.98044925681E+01  0.18283300673E+02  0.00000000000E+00 0.  1.
         11    1    4    4    0    0  0.59707363401E+02  0.76950371640E+01 -0.14229042085E+03  0.15450160745E+03  0.00000000000E+00 0. -1.
</event>
<event>
 8    1  0.6965441E-009  0.1447273E+03  0.7561462E-02  0.1207106E+00
         -1   -1    0    0    0  501 -0.00000000000E+00  0.00000000000E+00  0.17820550682E+03  0.17820550682E+03  0.00000000000E+00 0.  1.
          1   -1    0    0  501    0  0.00000000000E+00 -0.00000000000E+00 -0.19068001710E+03  0.19068001710E+03  0.00000000000E+00 0. -1.
         25    2    1    2    0    0 -0.49502977100E+02  0.84050580770E+02  0.10589446487E+03  0.19072576909E+03  0.12509051297E+03 0.  0.
         23    2    1    2    0    0  0.49502977100E+02 -0.84050580770E+02 -0.11836897515E+03  0.17815975483E+03  0.90634646219E+02 0.  0.
          5    1    3    3  502    0  0.14575212381E+02  0.92352650471E+02  0.56892745383E+02  0.10952490923E+03  0.41800000000E+01 0.  1.
         -5    1    3    3    0  502 -0.64078189482E+02 -0.83020697014E+01  0.49001719485E+02  0.81200859855E+02  0.41800000000E+01 0.  1.
        -11    1    4    4    0    0  0.74889494594E+02 -0.67430182985E+02 -0.76840364776E+02  0.12672690179E+03  0.00000000000E+00 0.  1.
         11    1    4    4    0    0 -0.25386517493E+02 -0.16620397785E+02 -0.41528610371E+02  0.51432853045E+02  0.00000000000E+00 0. -1.
</event>
<event>
 8    1  0.6965441E-009  0.1113846E+03  0.7561462E-02  0.1258027E+00
         -2   -1    0    0    0  501 -0.00000000000E+00  0.00000000000E+00  0.54364153157E+02  0.54364153157E+02  0.00000000000E+00 0. -1.
          2   -1    0    0  501    0  0.00000000000E+00 -0.00000000000E+00 -0.43007201415E+03  0.43007201415E+03  0.00000000000E+00 0.  1.
         25    2    1    2    0    0 -0.28502796582E+01 -0.74173539690E+02 -0.32528938261E+03  0.35632857714E+03  0.12508810640E+03 0.  0.
         23    2    1    2    0    0  0.28502796582E+01  0.74173539690E+02 -0.50418478385E+02  0.12810759017E+03  0.91431360115E+02 0.  0.
          5    1    3    3  502    0 -0.56712795640E+02 -0.21084216542E+02 -0.85252892881E+02  0.10462510942E+03  0.41800000000E+01 0. -1.
         -5    1    3    3    0  502  0.53862515982E+02 -0.53089323147E+02 -0.24003648973E+03  0.25170346772E+03  0.41800000000E+01 0. -1.
        -11    1    4    4    0    0 -0.19321629217E+02  0.49850023210E+02 -0.71308770221E+02  0.89125141683E+02  0.00000000000E+00 0.  1.
         11    1    4    4    0    0  0.22171908875E+02  0.24323516479E+02  0.20890291835E+02  0.38982448487E+02  0.00000000000E+00 0. -1.
</event>
<event>
 8    1  0.6965441E-009  0.1540956E+03  0.7561462E-02  0.1195529E+00
          2   -1    0    0  501    0  0.00000000000E+00  0.00000000000E+00  0.62915069928E+03  0.62915069928E+03  0.00000000000E+00 0. -1.
         -2   -1    0    0    0  501 -0.00000000000E+00 -0.00000000000E+00 -0.46637136465E+02  0.46637136465E+02  0.00000000000E+00 0.  1.
         25    2    1    2    0    0  0.12356533020E+03 -0.36199993819E+02  0.36213932154E+03  0.40419279555E+03  0.12509235544E+03 0.  0.
         23    2    1    2    0    0 -0.12356533020E+03  0.36199993819E+02  0.22037424127E+03  0.27159504019E+03  0.92845189750E+02 0.  0.
          5    1    3    3  502    0  0.11521210592E+03 -0.30809982927E+01  0.34865452732E+03  0.36723394958E+03  0.41800000000E+01 0. -1.
         -5    1    3    3    0  502  0.83532242783E+01 -0.33118995527E+02  0.13484794218E+02  0.36958845973E+02  0.41800000000E+01 0. -1.
        -11    1    4    4    0    0 -0.17115257981E+02  0.48368935137E+02  0.63807677119E+02  0.81877381501E+02  0.00000000000E+00 0.  1.
         11    1    4    4    0    0 -0.10645007222E+03 -0.12168941317E+02  0.15656656415E+03  0.18971765869E+03  0.00000000000E+00 0. -1.
</event>
<event>
 8    1  0.6965441E-009  0.1089310E+03  0.7561462E-02  0.1262562E+00
          1   -1    0    0  501    0  0.00000000000E+00  0.00000000000E+00  0.52241629772E+03  0.52241629772E+03  0.00000000000E+00 0. -1.
         -1   -1    0    0    0  501 -0.00000000000E+00 -0.00000000000E+00 -0.24371480064E+02  0.24371480064E+02  0.00000000000E+00 0.  1.
         25    2    1    2    0    0  0.18039545052E+02 -0.25054543314E+02  0.26525411978E+03  0.29489067596E+03  0.12509039685E+03 0.  0.
         23    2    1    2    0    0 -0.18039545052E+02  0.25054543314E+02  0.23279069787E+03  0.25189710182E+03  0.91145408887E+02 0.  0.
          5    1    3    3  502    0 -0.27562041303E+02 -0.58607715274E+02  0.92111967864E+02  0.11267926799E+03  0.41800000000E+01 0.  1.
         -5    1    3    3    0  502  0.45601586355E+02  0.33553171960E+02  0.17314215191E+03  0.18221140797E+03  0.41800000000E+01 0.  1.
        -11    1    4    4    0    0 -0.54449342047E+02  0.24677822931E+02  0.14113403772E+03  0.15327277122E+03  0.00000000000E+00 0. -1.
         11    1    4    4    0    0  0.36409796995E+02  0.37672038311E+00  0.91656660151E+02  0.98624330596E+02  0.00000000000E+00 0.  1.
</event>
<event>
 8    1  0.6965441E-009  0.1579922E+03  0.7561462E-02  0.1190982E+00
          1   -1    0    0  501    0  0.00000000000E+00  0.00000000000E+00  0.49031420792E+03  0.49031420792E+03  0.00000000000E+00 0. -1.
         -1   -1    0    0    0  501 -0.00000000000E+00 -0.00000000000E+00 -0.54624664835E+02  0.54624664835E+02  0.00000000000E+00 0.  1.
         25    2    1    2    0    0  0.16127625218E+02  0.11867004562E+03  0.19026717351E+03  0.25727772793E+03  0.12509017528E+03 0.  0.
         23    2    1    2    0    0 -0.16127625218E+02 -0.11867004562E+03  0.24542236958E+03  0.28766114483E+03  0.90410810914E+02 0.  0.
          5    1    3    3  502    0 -0.11325587518E+02  0.13530635177E+03  0.17486123358E+03  0.22142719158E+03  0.41800000000E+01 0.  1.
         -5    1    3    3    0  502  0.27453212736E+02 -0.16636306145E+02  0.15405939933E+02  0.35850536354E+02  0.41800000000E+01 0.  1.
        -11    1    4    4    0    0 -0.48221595031E+02 -0.39476767572E+02  0.79368287444E+02  0.10091116121E+03  0.00000000000E+00 0.  1.
         11    1    4    4    0    0  0.32093969813E+02 -0.79193278052E+02  0.16605408213E+03  0.18674998362E+03  0.00000000000E+00 0. -1.
</event>
<event>
 8    1  0.6965441E-009  0.1213191E+03  0.7561462E-02  0.1240937E+00
         -1   -1    0    0    0  501 -0.00000000000E+00  0.00000000000E+00  0.13116599506E+03  0.13116599506E+03  0.00000000000E+00 0.  1.
          1   -1    0    0  501    0  0.00000000000E+00 -0.00000000000E+00 -0.19334675009E+03  0.19334675009E+03  0.00000000000E+00 0. -1.
         25    2    1    2    0    0 -0.58158825734E+02  0.38401871584E+02 -0.12709459455E+03  0.19146402716E+03  0.12509310525E+03 0.  0.
         23    2    1    2    0    0  0.58158825734E+02 -0.38401871584E+02  0.64913839511E+02  0.13304871799E+03  0.92903186419E+02 0.  0.
          5    1    3    3  502    0  0.31147207306E+02  0.21244715225E+02 -0.80959760075E+02  0.89406049009E+02  0.41800000000E+01 0.  1.
         -5    1    3    3    0  502 -0.89306033041E+02  0.17157156358E+02 -0.46134834471E+02  0.10205797815E+03  0.41800000000E+01 0.  1.
        -11    1    4    4    0    0  0.18131774410E+02 -0.63758547687E+02  0.51090249268E+02  0.83690663855E+02  0.00000000000E+00 0.  1.
         11    1    4    4    0    0  0.40027051325E+02  0.25356676103E+02  0.13823590244E+02  0.49358054135E+02  0.00000000000E+00 0. -1.
</event>
<event>
 8    1  0.6965441E-009  0.1093238E+03  0.7561462E-02  0.1261827E+00
         -2   -1    0    0    0  501 -0.00000000000E+00  0.00000000000E+00  0.17931854601E+02  0.17931854601E+02  0.00000000000E+00 0. -1.
          2   -1    0    0  501    0  0.00000000000E+00 -0.00000000000E+00 -0.76599545268E+03  0.76599545268E+03  0.00000000000E+00 0.  1.
         25    2    1    2    0    0  0.17277956503E+02  0.76934927297E+01 -0.28662980089E+03  0.31330767117E+03  0.12508931387E+03 0.  0.
         23    2    1    2    0    0 -0.17277956503E+02 -0.76934927297E+01 -0.46143379719E+03  0.47061963612E+03  0.90575797512E+02 0.  0.
          5    1    3    3  502    0  0.10642336944E+02 -0.58625206237E+02 -0.13488102680E+03  0.14751453465E+03  0.41800000000E+01 0.  1.
         -5    1    3    3    0  502  0.66356195597E+01  0.66318698967E+02 -0.15174877409E+03  0.16579313652E+03  0.41800000000E+01 0.  1.
        -11    1    4    4    0    0  0.36727622974E+02 -0.10057387962E+02 -0.21236828379E+03  0.21575531813E+03  0.00000000000E+00 0. -1.
         11    1    4    4    0    0 -0.54005579477E+02  0.23638952326E+01 -0.24906551340E+03  0.25486431799E+03  0.00000000000E+00 0.  1.
</event>
<event>
 8    1  0.6965441E-009  0.1441629E+03  0.7561462E-02  0.1207835E+00
          2   -1    0    0  501    0  0.00000000000E+00  0.00000000000E+00  0.12871185507E+03  0.12871185507E+03  0.00000000000E+00 0. -1.
         -2   -1    0    0    0  501 -0.00000000000E+00 -0.00000000000E+00 -0.19850111394E+03  0.19850111394E+03  0.00000000000E+00 0.  1.
         25    2    1    2    0    0 -0.10956311537E+03 -0.36920557227E+02 -0.57801850274E+02  0.17987443342E+03  0.12508618671E+03 0.  0.
         23    2    1    2    0    0  0.10956311537E+03  0.36920557227E+02 -0.11987408592E+02  0.14733853559E+03  0.90541384501E+02 0.  0.
          5    1    3    3  502    0 -0.36460851004E+02 -0.72259406479E+02 -0.56074394404E+02  0.98552653888E+02  0.41800000000E+01 0.  1.
         -5    1    3    3    0  502 -0.73102264371E+02  0.35338849251E+02 -0.17274558698E+01  0.81321779532E+02  0.41800000000E+01 0.  1.
        -11    1    4    4    0    0  0.77079251977E+02  0.48982555869E+02  0.26945817071E+02  0.95218584963E+02  0.00000000000E+00 0. -1.
         11    1    4    4    0    0  0.32483863398E+02 -0.12061998642E+02 -0.38933225662E+02  0.52119950623E+02  0.00000000000E+00 0.  1.
</event>
<event>
 8    1  0.6965441E-009  0.1023317E+03  0.7561462E-02  0.1275468E+00
          3   -1    0    0  501    0  0.00000000000E+00  0.00000000000E+00  0.25278130390E+03  0.25278130390E+03  0.00000000000E+00 0. -1.
         -3   -1    0    0    0  501 -0.00000000000E+00 -0.00000000000E+00 -0.68118550789E+02  0.68118550789E+02  0.00000000000E+00 0.  1.
         25    2    1    2    0    0  0.12836861846E+02  0.72195253356E+02  0.94273844537E+02  0.17293174485E+03  0.12506354778E+03 0.  0.
         23    2    1    2    0    0 -0.12836861846E+02 -0.72195253356E+02  0.90388908576E+02  0.14796810984E+03  0.91364473985E+02 0.  0.
          5    1    3    3  502    0 -0.14806875174E+02 -0.20034469650E+02 -0.13261588738E+02  0.28530083463E+02  0.41800000000E+01 0. -1.
         -5    1    3    3    0  502  0.27643737019E+02  0.92229723006E+02  0.10753543328E+03  0.14440166139E+03  0.41800000000E+01 0. -1.
        -11    1    4    4    0    0 -0.26686483998E+02 -0.41305778166E+02  0.10113000777E+03  0.11245271989E+03  0.00000000000E+00 0.  1.
         11    1    4    4    0    0  0.13849622152E+02 -0.30889475190E+02 -0.10741099199E+02  0.35515389949E+02  0.00000000000E+00 0. -1.
</event>
<event>
 8    1  0.6965441E-009  0.1170461E+03  0.7561462E-02  0.1248051E+00
          4   -1    0    0  501    0  0.00000000000E+00  0.00000000000E+00  0.23299542087E+03  0.23299542087E+03  0.00000000000E+00 0. -1.
         -4   -1    0    0    0  501 -0.00000000000E+00 -0.00000000000E+00 -0.33985539950E+03  0.33985539950E+03  0.00000000000E+00 0.  1.
         25    2    1    2    0    0 -0.63432964204E+02 -0.47958197140E+02  0.19656341268E+03  0.24618577152E+03  0.12508608745E+03 0.  0.
         23    2    1    2    0    0  0.63432964204E+02  0.47958197140E+02 -0.30342339131E+03  0.32666504885E+03  0.91217159156E+02 0.  0.
          5    1    3    3  502    0 -0.50630585038E+02 -0.75962788358E+02  0.67970302683E+02  0.11389133331E+03  0.41800000000E+01 0. -1.
         -5    1    3    3    0  502 -0.12802379166E+02  0.28004591218E+02  0.12859311000E+03  0.13229443821E+03  0.41800000000E+01 0. -1.
        -11    1    4    4    0    0  0.93290495894E+01  0.56143019958E+02 -0.21729259318E+03  0.22462221819E+03  0.00000000000E+00 0.  1.
         11    1    4    4    0    0  0.54103914615E+02 -0.81848228183E+01 -0.86130798134E+02  0.10204283066E+03  0.00000000000E+00 0. -1.
</event>
<event>
 8    1  0.6965441E-009  0.8931903E+02  0.7561462E-02  0.1304509E+00
          2   -1    0    0  501    0  0.00000000000E+00  0.00000000000E+00  0.15420845200E+03  0.15420845200E+03  0.00000000000E+00 0. -1.
         -2   -1    0    0    0  501 -0.00000000000E+00 -0.00000000000E+00 -0.88402271885E+02  0.88402271885E+02  0.00000000000E+00 0.  1.
         25    2    1    2    0    0  0.25015350984E+02  0.12235359394E+01 -0.12835141671E+02  0.12821927205E+03  0.12509266981E+03 0.  0.
         23    2    1    2    0    0 -0.25015350984E+02 -0.12235359394E+01  0.78641321787E+02  0.11439145183E+03  0.79206577598E+02 0.  0.
          5    1    3    3  502    0 -0.46681368416E+02 -0.15816417256E+02  0.10963254231E+02  0.50665319059E+02  0.41800000000E+01 0. -1.
         -5    1    3    3    0  502  0.71696719400E+02  0.17039953195E+02 -0.23798395902E+02  0.77553952995E+02  0.41800000000E+01 0. -1.
        -11    1    4    4    0    0  0.13257568706E+02 -0.93648949611E+01 -0.88939774952E+01  0.18508571563E+02  0.00000000000E+00 0.  1.
         11    1    4    4    0    0 -0.38272919690E+02  0.81413590217E+01  0.87535299283E+02  0.95882880270E+02  0.00000000000E+00 0. -1.
</event>
<event>
 8    1  0.6965441E-009  0.7452509E+02  0.7561462E-02  0.1345348E+00
          1   -1    0    0  501    0  0.00000000000E+00  0.00000000000E+00  0.86288908284E+02  0.86288908284E+02  0.00000000000E+00 0. -1.
         -1   -1    0    0    0  501 -0.00000000000E+00 -0.00000000000E+00 -0.20189314116E+03  0.20189314116E+03  0.00000000000E+00 0.  1.
         25    2    1    2    0    0  0.62887047006E+02  0.17474943060E+02 -0.10479474917E+03  0.17575463462E+03  0.12509035862E+03 0.  0.
         23    2    1    2    0    0 -0.62887047006E+02 -0.17474943060E+02 -0.10809483710E+02  0.11242741483E+03  0.90900628992E+02 0.  0.
          5    1    3    3  502    0  0.20629390267E+02  0.13175760728E+02 -0.12577002608E+03  0.12819806658E+03  0.41800000000E+01 0. -1.
         -5    1    3    3    0  502  0.42257656740E+02  0.42991823324E+01  0.20975276914E+02  0.47556568037E+02  0.41800000000E+01 0. -1.
        -11    1    4    4    0    0 -0.39261624602E+02  0.14436543500E+02 -0.43974664538E+02  0.60693163337E+02  0.00000000000E+00 0.  1.
         11    1    4    4    0    0 -0.23625422404E+02 -0.31911486560E+02  0.33165180828E+02  0.51734251494E+02  0.00000000000E+00 0. -1.
</event>
<event>
 8    1  0.6965441E-009  0.1080709E+03  0.7561462E-02  0.1264184E+00
         -2   -1    0    0    0  501 -0.00000000000E+00  0.00000000000E+00  0.79777769512E+02  0.79777769512E+02  0.00000000000E+00 0.  1.
          2   -1    0    0  501    0  0.00000000000E+00 -0.00000000000E+00 -0.20268625644E+03  0.20268625644E+03  0.00000000000E+00 0. -1.
         25    2    1    2    0    0 -0.52240772455E+02 -0.25839234239E+02 -0.89666372348E+02  0.16457030819E+03  0.12508622496E+03 0.  0.
         23    2    1    2    0    0  0.52240772455E+02  0.25839234239E+02 -0.33242114579E+02  0.11789371776E+03  0.96938775384E+02 0.  0.
          5    1    3    3  502    0 -0.36090427132E+02  0.33402578011E+02 -0.90428600014E+02  0.10301968379E+03  0.41800000000E+01 0. -1.
         -5    1    3    3    0  502 -0.16150345323E+02 -0.59241812250E+02  0.76222766589E+00  0.61550624397E+02  0.41800000000E+01 0. -1.
        -11    1    4    4    0    0  0.57301183712E+02 -0.18808692326E+02  0.26759579271E+01  0.60368479463E+02  0.00000000000E+00 0.  1.
         11    1    4    4    0    0 -0.50604112565E+01  0.44647926565E+02 -0.35918072506E+02  0.57525238298E+02  0.00000000000E+00 0. -1.
</event>
<event>
 8    1  0.6965441E-009  0.7920917E+02  0.7561462E-02  0.1331311E+00
          1   -1    0    0  501    0  0.00000000000E+00  0.00000000000E+00  0.59650836246E+03  0.59650836246E+03  0.00000000000E+00 0. -1.
         -1   -1    0    0    0  501 -0.00000000000E+00 -0.00000000000E+00 -0.36366289893E+02  0.36366289893E+02  0.00000000000E+00 0.  1.
         25    2    1    2    0    0 -0.58391027918E+02 -0.23888711709E+02  0.47242943871E+03  0.49276473454E+03  0.12508927357E+03 0.  0.
         23    2    1    2    0    0  0.58391027918E+02  0.23888711709E+02  0.87712633857E+02  0.14010991781E+03  0.89202579796E+02 0.  0.
          5    1    3    3  502    0 -0.59538747946E+02 -0.34034618343E+02  0.10694510848E+03  0.12711391104E+03  0.41800000000E+01 0.  1.
         -5    1    3    3    0  502  0.11477200284E+01  0.10145906634E+02  0.36548433023E+03  0.36565082350E+03  0.41800000000E+01 0.  1.
        -11    1    4    4    0    0  0.30366032690E+02 -0.12423251122E+02 -0.81783350531E+01  0.33812989723E+02  0.00000000000E+00 0.  1.
         11    1    4    4    0    0  0.28024995228E+02  0.36311962832E+02  0.95890968910E+02  0.10629692809E+03  0.00000000000E+00 0. -1.
</event>
