<event>
 8    1  0.8504141E-006  0.1301606E+03  0.7546771E-02  0.1242387E+00
         -1   -1    0    0    0  501 -0.00000000000E+00  0.00000000000E+00  0.34036238598E+03  0.34036238598E+03  0.00000000000E+00 0.  1.
          1   -1    0    0  501    0  0.00000000000E+00 -0.00000000000E+00 -0.37381473093E+02  0.37381473093E+02  0.00000000000E+00 0. -1.
         23    2    1    2    0    0 -0.87158330261E+01  0.35225179441E+02  0.17835488786E+03  0.22079914049E+03  0.12500006162E+03 0.  0.
         23    2    1    2    0    0  0.87158330261E+01 -0.35225179441E+02  0.12462602503E+03  0.15694471859E+03  0.88222557013E+02 0.  0.
          5    1    3    3  502    0 -0.49281365842E+02  0.13842920856E+02  0.16497873866E+03  0.17280148635E+03  0.47000000000E+01 0.  1.
         -5    1    3    3    0  502  0.40565532816E+02  0.21382258585E+02  0.13376149201E+02  0.47997654133E+02  0.47000000000E+01 0.  1.
        -11    1    4    4    0    0  0.19261439524E+02  0.25212647089E+02  0.27100005630E+02  0.41726381714E+02  0.00000000000E+00 0. -1.
         11    1    4    4    0    0 -0.10545606498E+02 -0.60437826529E+02  0.97526019402E+02  0.11521833688E+03  0.00000000000E+00 0.  1.
<mgrwt>
<rscale>  0 0.12043146E+03</rscale>
<asrwt>0</asrwt>
<pdfrwt beam="2">  1        1 0.57509961E-02 0.13016065E+03</pdfrwt>
<pdfrwt beam="1">  1       -1 0.52363442E-01 0.13016065E+03</pdfrwt>
<totfact> 0.49141005E+03</totfact>
</mgrwt>
</event>
<event>
 8    1  0.8504141E-006  0.1461468E+03  0.7546771E-02  0.1215478E+00
         -1   -1    0    0    0  501 -0.00000000000E+00  0.00000000000E+00  0.41794314932E+03  0.41794314932E+03  0.00000000000E+00 0.  1.
          1   -1    0    0  501    0  0.00000000000E+00 -0.00000000000E+00 -0.50521328455E+02  0.50521328455E+02  0.00000000000E+00 0. -1.
         23    2    1    2    0    0  0.39508028128E+02 -0.64589139172E+02  0.29801471523E+03  0.33192114591E+03  0.12500494159E+03 0.  0.
         23    2    1    2    0    0 -0.39508028128E+02  0.64589139172E+02  0.69407105637E+02  0.13654333187E+03  0.89967182789E+02 0.  0.
          5    1    3    3  502    0 -0.41180740039E+02 -0.14383161093E+02  0.51344067066E+02  0.67535412163E+02  0.47000000000E+01 0.  1.
         -5    1    3    3    0  502  0.80688768167E+02 -0.50205978079E+02  0.24667064816E+03  0.26438573375E+03  0.47000000000E+01 0.  1.
        -11    1    4    4    0    0 -0.81298087332E+01  0.29361888948E+02 -0.19304691106E+02  0.36067789111E+02  0.00000000000E+00 0.  1.
         11    1    4    4    0    0 -0.31378219395E+02  0.35227250224E+02  0.88711796743E+02  0.10047554276E+03  0.00000000000E+00 0. -1.
<mgrwt>
<rscale>  0 0.13841459E+03</rscale>
<asrwt>0</asrwt>
<pdfrwt beam="2">  1        1 0.77725123E-02 0.14614676E+03</pdfrwt>
<pdfrwt beam="1">  1       -1 0.64298944E-01 0.14614676E+03</pdfrwt>
<totfact> 0.22345401E+03</totfact>
</mgrwt>
</event>
<event>
 8    1  0.8504141E-006  0.1483864E+03  0.7546771E-02  0.1211631E+00
          3   -1    0    0  501    0  0.00000000000E+00  0.00000000000E+00  0.24639197458E+03  0.24639197458E+03  0.00000000000E+00 0. -1.
         -3   -1    0    0    0  501 -0.00000000000E+00 -0.00000000000E+00 -0.75386389652E+02  0.75386389652E+02  0.00000000000E+00 0.  1.
         23    2    1    2    0    0  0.33162495935E+02  0.72759087689E+02  0.73037299582E+02  0.16538729410E+03  0.12499949577E+03 0.  0.
         23    2    1    2    0    0 -0.33162495935E+02 -0.72759087689E+02  0.97968285345E+02  0.15639107013E+03  0.92014922182E+02 0.  0.
          5    1    3    3  502    0 -0.28590387025E+01  0.26642012889E+02 -0.33857555059E+02  0.43432648867E+02  0.47000000000E+01 0. -1.
         -5    1    3    3    0  502  0.36021534638E+02  0.46117074800E+02  0.10689485464E+03  0.12195464524E+03  0.47000000000E+01 0. -1.
        -11    1    4    4    0    0  0.21011420347E+02 -0.63547922582E+02  0.52377185848E+02  0.84989339607E+02  0.00000000000E+00 0. -1.
         11    1    4    4    0    0 -0.54173916282E+02 -0.92111651070E+01  0.45591099496E+02  0.71401730520E+02  0.00000000000E+00 0.  1.
<mgrwt>
<rscale>  0 0.14126976E+03</rscale>
<asrwt>0</asrwt>
<pdfrwt beam="1">  1        3 0.37906457E-01 0.14838635E+03</pdfrwt>
<pdfrwt beam="2">  1       -3 0.11597906E-01 0.14838635E+03</pdfrwt>
<totfact> 0.92797334E+02</totfact>
</mgrwt>
</event>
<event>
 8    1  0.8504141E-006  0.1444433E+03  0.7546771E-02  0.1217666E+00
         -1   -1    0    0    0  501 -0.00000000000E+00  0.00000000000E+00  0.21610039098E+03  0.21610039098E+03  0.00000000000E+00 0.  1.
          1   -1    0    0  501    0  0.00000000000E+00 -0.00000000000E+00 -0.13295222540E+03  0.13295222540E+03  0.00000000000E+00 0. -1.
         23    2    1    2    0    0 -0.35089779016E+02 -0.63320957203E+02  0.15538051351E+03  0.21214848293E+03  0.12499215423E+03 0.  0.
         23    2    1    2    0    0  0.35089779016E+02  0.63320957203E+02 -0.72232347935E+02  0.13690413345E+03  0.91018643446E+02 0.  0.
          5    1    3    3  502    0 -0.36166183367E+02 -0.77366360766E+02  0.37592769665E+02  0.93428330439E+02  0.47000000000E+01 0.  1.
         -5    1    3    3    0  502  0.10764043506E+01  0.14045403563E+02  0.11778774385E+03  0.11872015249E+03  0.47000000000E+01 0.  1.
        -11    1    4    4    0    0  0.63845634859E+02  0.45943812095E+02 -0.33131929506E+02  0.85351178745E+02  0.00000000000E+00 0.  1.
         11    1    4    4    0    0 -0.28755855844E+02  0.17377145108E+02 -0.39100418429E+02  0.51552954704E+02  0.00000000000E+00 0. -1.
<mgrwt>
<rscale>  0 0.13682523E+03</rscale>
<asrwt>0</asrwt>
<pdfrwt beam="2">  1        1 0.20454189E-01 0.14444333E+03</pdfrwt>
<pdfrwt beam="1">  1       -1 0.33246214E-01 0.14444333E+03</pdfrwt>
<totfact> 0.20711982E+03</totfact>
</mgrwt>
</event>
<event>
 7    1  0.8504141E-006  0.1910464E+03  0.7546771E-02  0.1165164E+00
          2   -1    0    0  501    0  0.00000000000E+00  0.00000000000E+00  0.52400074516E+03  0.52400074516E+03  0.00000000000E+00 0. -1.
         -2   -1    0    0    0  501 -0.00000000000E+00 -0.00000000000E+00 -0.58854297387E+02  0.58854297387E+02  0.00000000000E+00 0.  1.
         23    2    1    2    0    0 -0.13020860026E+03  0.18590070387E+02  0.20215994756E+03  0.25780026140E+03  0.91062945699E+02 0.  0.
          5    1    1    2  502    0  0.71155042839E+01  0.14582044048E+02 -0.12798515874E+02  0.21193357884E+02  0.47000000000E+01 0. -1.
         -5    1    1    2    0  502  0.12309309597E+03 -0.33172114434E+02  0.27578501609E+03  0.30386142327E+03  0.47000000000E+01 0.  1.
        -11    1    3    3    0    0 -0.11498575265E+03  0.30436464146E+02  0.10473795844E+03  0.15848703922E+03  0.00000000000E+00 0.  1.
         11    1    3    3    0    0 -0.15222847605E+02 -0.11846393760E+02  0.97421989120E+02  0.99313222173E+02  0.00000000000E+00 0. -1.
<mgrwt>
<rscale>  0 0.18275438E+03</rscale>
<asrwt>0</asrwt>
<pdfrwt beam="1">  1        2 0.80615496E-01 0.19104636E+03</pdfrwt>
<pdfrwt beam="2">  1       -2 0.90545076E-02 0.19104636E+03</pdfrwt>
<totfact> 0.45058367E+03</totfact>
</mgrwt>
</event>
<event>
 8    1  0.8504141E-006  0.1267376E+03  0.7546771E-02  0.1246788E+00
         -1   -1    0    0    0  501 -0.00000000000E+00  0.00000000000E+00  0.18989086500E+03  0.18989086500E+03  0.00000000000E+00 0.  1.
          1   -1    0    0  501    0  0.00000000000E+00 -0.00000000000E+00 -0.88959046630E+02  0.88959046630E+02  0.00000000000E+00 0. -1.
         23    2    1    2    0    0  0.18561302343E+02  0.99022325125E+01  0.12836461471E+03  0.18038819571E+03  0.12497940106E+03 0.  0.
         23    2    1    2    0    0 -0.18561302343E+02 -0.99022325125E+01 -0.27432796344E+02  0.98461715916E+02  0.92193139834E+02 0.  0.
          5    1    3    3  502    0  0.69675733275E+02 -0.45254882881E+01  0.51706984191E+02  0.87010861769E+02  0.47000000000E+01 0.  1.
         -5    1    3    3    0  502 -0.51114430932E+02  0.14427720801E+02  0.76657630518E+02  0.93377333940E+02  0.47000000000E+01 0.  1.
        -11    1    4    4    0    0 -0.17043086811E+02  0.18410720129E+02 -0.54039499481E+02  0.59579265923E+02  0.00000000000E+00 0. -1.
         11    1    4    4    0    0 -0.15182155316E+01 -0.28312952641E+02  0.26606703137E+02  0.38882449993E+02  0.00000000000E+00 0.  1.
<mgrwt>
<rscale>  0 0.11779028E+03</rscale>
<asrwt>0</asrwt>
<pdfrwt beam="2">  1        1 0.13686007E-01 0.12673763E+03</pdfrwt>
<pdfrwt beam="1">  1       -1 0.29213979E-01 0.12673763E+03</pdfrwt>
<totfact> 0.42902190E+03</totfact>
</mgrwt>
</event>
<event>
 8    1  0.8504141E-006  0.1324363E+03  0.7546771E-02  0.1233622E+00
         -1   -1    0    0    0  501 -0.00000000000E+00  0.00000000000E+00  0.93248281418E+02  0.93248281418E+02  0.00000000000E+00 0.  1.
          1   -1    0    0  501    0  0.00000000000E+00 -0.00000000000E+00 -0.15675475199E+03  0.15675475199E+03  0.00000000000E+00 0. -1.
         23    2    1    2    0    0 -0.22349468770E+02  0.37616629207E+02 -0.23079533345E+02  0.13443224723E+03  0.12499941875E+03 0.  0.
         23    2    1    2    0    0  0.22349468770E+02 -0.37616629207E+02 -0.40426937231E+02  0.11557078618E+03  0.99034134609E+02 0.  0.
          5    1    3    3  502    0  0.49996140314E+02  0.28654663140E+01  0.16282498281E+01  0.50324607709E+02  0.47000000000E+01 0.  1.
         -5    1    3    3    0  502 -0.72345609085E+02  0.34751162893E+02 -0.24707783173E+02  0.84107639520E+02  0.47000000000E+01 0.  1.
        -11    1    4    4    0    0 -0.35131352153E+02 -0.33474279328E+02 -0.72242337394E+01  0.49060461002E+02  0.00000000000E+00 0. -1.
         11    1    4    4    0    0  0.57480820923E+02 -0.41423498784E+01 -0.33202703491E+02  0.66510325181E+02  0.00000000000E+00 0.  1.
<mgrwt>
<rscale>  0 0.12593071E+03</rscale>
<asrwt>0</asrwt>
<pdfrwt beam="2">  1        1 0.24116116E-01 0.13243626E+03</pdfrwt>
<pdfrwt beam="1">  1       -1 0.14345889E-01 0.13243626E+03</pdfrwt>
<totfact> 0.65581957E+03</totfact>
</mgrwt>
</event>
<event>
 8    1  0.8504141E-006  0.3326341E+03  0.7546771E-02  0.1071035E+00
          2   -1    0    0  501    0  0.00000000000E+00  0.00000000000E+00  0.29088411712E+03  0.29088411712E+03  0.00000000000E+00 0. -1.
         -2   -1    0    0    0  501 -0.00000000000E+00 -0.00000000000E+00 -0.37594978804E+03  0.37594978804E+03  0.00000000000E+00 0.  1.
         23    2    1    2    0    0 -0.92141406260E+02  0.29414707390E+03 -0.86527862303E+02  0.34370412961E+03  0.12503166769E+03 0.  0.
         23    2    1    2    0    0  0.92141406260E+02 -0.29414707390E+03  0.14621913789E+01  0.32312977555E+03  0.96944179874E+02 0.  0.
          5    1    3    3  502    0  0.30104227805E+02  0.45422442131E+02 -0.23004428638E+02  0.59335963107E+02  0.47000000000E+01 0.  1.
         -5    1    3    3    0  502 -0.12224563406E+03  0.24872463177E+03 -0.63523433665E+02  0.28436816651E+03  0.47000000000E+01 0.  1.
        -11    1    4    4    0    0  0.42524774836E+02 -0.23441981499E+03  0.30583905456E+02  0.24020071067E+03  0.00000000000E+00 0. -1.
         11    1    4    4    0    0  0.49616631424E+02 -0.59727258917E+02 -0.29121714077E+02  0.82929064883E+02  0.00000000000E+00 0.  1.
<mgrwt>
<rscale>  0 0.33023130E+03</rscale>
<asrwt>0</asrwt>
<pdfrwt beam="1">  1        2 0.44751403E-01 0.33263412E+03</pdfrwt>
<pdfrwt beam="2">  1       -2 0.57838429E-01 0.33263412E+03</pdfrwt>
<totfact> 0.32397104E+02</totfact>
</mgrwt>
</event>
<event>
 8    1  0.8504141E-006  0.1902265E+03  0.7546771E-02  0.1162804E+00
          2   -1    0    0  501    0  0.00000000000E+00  0.00000000000E+00  0.21438194586E+03  0.21438194586E+03  0.00000000000E+00 0. -1.
         -2   -1    0    0    0  501 -0.00000000000E+00 -0.00000000000E+00 -0.15474230367E+03  0.15474230367E+03  0.00000000000E+00 0.  1.
         23    2    1    2    0    0  0.12184620862E+02 -0.14286458079E+03  0.81178944815E+01  0.19039963083E+03  0.12500946277E+03 0.  0.
         23    2    1    2    0    0 -0.12184620862E+02  0.14286458079E+03  0.51521747707E+02  0.17872461869E+03  0.93430430862E+02 0.  0.
          5    1    3    3  502    0  0.19666964658E+02 -0.14746943750E+03 -0.29275990703E+02  0.15170101557E+03  0.47000000000E+01 0. -1.
         -5    1    3    3    0  502 -0.74823437962E+01  0.46048567068E+01  0.37393885184E+02  0.38698615262E+02  0.47000000000E+01 0. -1.
        -11    1    4    4    0    0  0.16187123291E+02  0.65025662389E+01  0.34170483164E+02  0.38365717090E+02  0.00000000000E+00 0. -1.
         11    1    4    4    0    0 -0.28371744154E+02  0.13636201455E+03  0.17351264543E+02  0.14035890160E+03  0.00000000000E+00 0.  1.
<mgrwt>
<rscale>  0 0.18526333E+03</rscale>
<asrwt>0</asrwt>
<pdfrwt beam="1">  1        2 0.32981838E-01 0.19022649E+03</pdfrwt>
<pdfrwt beam="2">  1       -2 0.23806508E-01 0.19022649E+03</pdfrwt>
<totfact> 0.24097216E+03</totfact>
</mgrwt>
</event>
<event>
 8    1  0.8504141E-006  0.1957984E+03  0.7546771E-02  0.1157883E+00
          1   -1    0    0  501    0  0.00000000000E+00  0.00000000000E+00  0.23394353157E+03  0.23394353157E+03  0.00000000000E+00 0. -1.
         -1   -1    0    0    0  501 -0.00000000000E+00 -0.00000000000E+00 -0.15861375502E+03  0.15861375502E+03  0.00000000000E+00 0.  1.
         23    2    1    2    0    0 -0.89361461930E+02 -0.12135770082E+03  0.90949178762E+02  0.21589066997E+03  0.12499546326E+03 0.  0.
         23    2    1    2    0    0  0.89361461930E+02  0.12135770082E+03 -0.15619402210E+02  0.17666661662E+03  0.90851336129E+02 0.  0.
          5    1    3    3  502    0 -0.95047755829E+02 -0.29047517068E+02  0.26184883318E+02  0.10288621020E+03  0.47000000000E+01 0.  1.
         -5    1    3    3    0  502  0.56862938986E+01 -0.92310183752E+02  0.64764295444E+02  0.11300445977E+03  0.47000000000E+01 0.  1.
        -11    1    4    4    0    0  0.34642185057E+02  0.84434363186E+02 -0.48025664806E+02  0.10312956488E+03  0.00000000000E+00 0.  1.
         11    1    4    4    0    0  0.54719276873E+02  0.36923337635E+02  0.32406262596E+02  0.73537051743E+02  0.00000000000E+00 0. -1.
<mgrwt>
<rscale>  0 0.19064242E+03</rscale>
<asrwt>0</asrwt>
<pdfrwt beam="1">  1        1 0.35991313E-01 0.19579844E+03</pdfrwt>
<pdfrwt beam="2">  1       -1 0.24402116E-01 0.19579844E+03</pdfrwt>
<totfact> 0.17257870E+03</totfact>
</mgrwt>
</event>
<event>
 6    1  0.8504141E-006  0.1717850E+03  0.7546771E-02  0.1182145E+00
         -1   -1    0    0    0  501 -0.00000000000E+00  0.00000000000E+00  0.11483689134E+03  0.11483689134E+03  0.00000000000E+00 0.  1.
          1   -1    0    0  501    0  0.00000000000E+00 -0.00000000000E+00 -0.22484619561E+03  0.22484619561E+03  0.00000000000E+00 0. -1.
          5    1    1    2  502    0 -0.41815855914E+02  0.64600444241E+02  0.12127330210E+02  0.78044508711E+02  0.47000000000E+01 0. -1.
         -5    1    1    2    0  502 -0.11122653275E+02 -0.48232618219E+02 -0.62348316047E+02  0.79746481991E+02  0.47000000000E+01 0.  1.
        -11    1    1    2    0    0  0.56321767935E+01  0.24851839469E+02  0.49613161848E+02  0.55774556645E+02  0.00000000000E+00 0.  1.
         11    1    1    2    0    0  0.47306332396E+02 -0.41219665491E+02 -0.10940148028E+03  0.12611753960E+03  0.00000000000E+00 0. -1.
<mgrwt>
<rscale>  0 0.16594394E+03</rscale>
<asrwt>0</asrwt>
<pdfrwt beam="2">  1        1 0.34591722E-01 0.17178502E+03</pdfrwt>
<pdfrwt beam="1">  1       -1 0.17667214E-01 0.17178502E+03</pdfrwt>
<totfact> 0.30502133E+03</totfact>
</mgrwt>
</event>
<event>
 8    1  0.8504141E-006  0.1365812E+03  0.7546771E-02  0.1230011E+00
          4   -1    0    0  501    0  0.00000000000E+00  0.00000000000E+00  0.24340275978E+03  0.24340275978E+03  0.00000000000E+00 0. -1.
         -4   -1    0    0    0  501 -0.00000000000E+00 -0.00000000000E+00 -0.63378409130E+02  0.63378409130E+02  0.00000000000E+00 0.  1.
         23    2    1    2    0    0  0.54957700853E+02  0.29950005084E+01  0.68871763119E+02  0.15296324860E+03  0.12500046702E+03 0.  0.
         23    2    1    2    0    0 -0.54957700853E+02 -0.29950005084E+01  0.11115258753E+03  0.15381792031E+03  0.90971072233E+02 0.  0.
          5    1    3    3  502    0  0.69664249267E+02  0.18686927001E+02  0.94631986387E+02  0.11907817480E+03  0.47000000000E+01 0.  1.
         -5    1    3    3    0  502 -0.14706548414E+02 -0.15691926493E+02 -0.25760223267E+02  0.33885073795E+02  0.47000000000E+01 0.  1.
        -11    1    4    4    0    0  0.22639504746E+02 -0.60523291077E+01  0.81293787384E+01  0.24804529051E+02  0.00000000000E+00 0.  1.
         11    1    4    4    0    0 -0.77597205598E+02  0.30573285993E+01  0.10302320879E+03  0.12901339126E+03  0.00000000000E+00 0. -1.
<mgrwt>
<rscale>  0 0.12829283E+03</rscale>
<asrwt>0</asrwt>
<pdfrwt beam="1">  1        4 0.37446578E-01 0.13658124E+03</pdfrwt>
<pdfrwt beam="2">  1       -4 0.97505246E-02 0.13658124E+03</pdfrwt>
<totfact> 0.90777324E+02</totfact>
</mgrwt>
</event>
<event>
 8    1  0.8504141E-006  0.1484450E+03  0.7546771E-02  0.1211589E+00
          2   -1    0    0  501    0  0.00000000000E+00  0.00000000000E+00  0.22423758490E+03  0.22423758490E+03  0.00000000000E+00 0. -1.
         -2   -1    0    0    0  501 -0.00000000000E+00 -0.00000000000E+00 -0.13159480729E+03  0.13159480729E+03  0.00000000000E+00 0.  1.
         23    2    1    2    0    0  0.29170942628E+02  0.74576866187E+02 -0.60342904523E+02  0.16024099280E+03  0.12499302693E+03 0.  0.
         23    2    1    2    0    0 -0.29170942628E+02 -0.74576866187E+02  0.15298568214E+03  0.19559139939E+03  0.91862526170E+02 0.  0.
          5    1    3    3  502    0 -0.21653484049E+02 -0.17828332195E+01 -0.64576755168E+02  0.68295674634E+02  0.47000000000E+01 0.  1.
         -5    1    3    3    0  502  0.50824426677E+02  0.76359699406E+02  0.42338506442E+01  0.91945318161E+02  0.47000000000E+01 0.  1.
        -11    1    4    4    0    0  0.20307883785E+02  0.91429851309E+01  0.15279720102E+02  0.27008779449E+02  0.00000000000E+00 0.  1.
         11    1    4    4    0    0 -0.49478826412E+02 -0.83719851318E+02  0.13770596204E+03  0.16858261995E+03  0.00000000000E+00 0. -1.
<mgrwt>
<rscale>  0 0.14130091E+03</rscale>
<asrwt>0</asrwt>
<pdfrwt beam="1">  1        2 0.34498090E-01 0.14844497E+03</pdfrwt>
<pdfrwt beam="2">  1       -2 0.20245355E-01 0.14844497E+03</pdfrwt>
<totfact> 0.30028215E+03</totfact>
</mgrwt>
</event>
<event>
 8    1  0.8504141E-006  0.1453795E+03  0.7546771E-02  0.1216116E+00
          4   -1    0    0  501    0  0.00000000000E+00  0.00000000000E+00  0.34175302944E+02  0.34175302944E+02  0.00000000000E+00 0. -1.
         -4   -1    0    0    0  501 -0.00000000000E+00 -0.00000000000E+00 -0.51483783303E+03  0.51483783303E+03  0.00000000000E+00 0.  1.
         23    2    1    2    0    0  0.52120396338E+01 -0.74055529342E+02 -0.29895259995E+03  0.33242721144E+03  0.12499522834E+03 0.  0.
         23    2    1    2    0    0 -0.52120396338E+01  0.74055529342E+02 -0.18170993013E+03  0.21658592453E+03  0.91540030650E+02 0.  0.
          5    1    3    3  502    0 -0.59443892353E+02 -0.36471443669E+02 -0.12992051825E+03  0.14753024640E+03  0.47000000000E+01 0. -1.
         -5    1    3    3    0  502  0.64655931987E+02 -0.37584085673E+02 -0.16903208171E+03  0.18489696504E+03  0.47000000000E+01 0. -1.
        -11    1    4    4    0    0  0.15892719857E+02 -0.12040172592E+02 -0.76276858867E+02  0.78839732998E+02  0.00000000000E+00 0.  1.
         11    1    4    4    0    0 -0.21104759491E+02  0.86095701933E+02 -0.10543307127E+03  0.13774619153E+03  0.00000000000E+00 0. -1.
<mgrwt>
<rscale>  0 0.13794910E+03</rscale>
<asrwt>0</asrwt>
<pdfrwt beam="1">  1        4 0.52577396E-02 0.14537948E+03</pdfrwt>
<pdfrwt beam="2">  1       -4 0.79205811E-01 0.14537948E+03</pdfrwt>
<totfact> 0.53820466E+02</totfact>
</mgrwt>
</event>
<event>
 8    1  0.8504141E-006  0.1467600E+03  0.7546771E-02  0.1214786E+00
         -1   -1    0    0    0  501 -0.00000000000E+00  0.00000000000E+00  0.10744077164E+03  0.10744077164E+03  0.00000000000E+00 0.  1.
          1   -1    0    0  501    0  0.00000000000E+00 -0.00000000000E+00 -0.17207496843E+03  0.17207496843E+03  0.00000000000E+00 0. -1.
         23    2    1    2    0    0  0.44455100323E+02 -0.62749894668E+02 -0.35768169510E+01  0.14680355401E+03  0.12499873849E+03 0.  0.
         23    2    1    2    0    0 -0.44455100323E+02  0.62749894668E+02 -0.61057379842E+02  0.13271218607E+03  0.89278863528E+02 0.  0.
          5    1    3    3  502    0 -0.15987958893E+02  0.16804055419E+02 -0.34744258530E+02  0.42038608551E+02  0.47000000000E+01 0. -1.
         -5    1    3    3    0  502  0.60443059216E+02 -0.79553950087E+02  0.31167441579E+02  0.10476494546E+03  0.47000000000E+01 0. -1.
        -11    1    4    4    0    0 -0.93083972732E+01  0.75918171530E+02 -0.24491468734E+02  0.80312185059E+02  0.00000000000E+00 0.  1.
         11    1    4    4    0    0 -0.35146703050E+02 -0.13168276862E+02 -0.36565911108E+02  0.52400001011E+02  0.00000000000E+00 0. -1.
<mgrwt>
<rscale>  0 0.13892234E+03</rscale>
<asrwt>0</asrwt>
<pdfrwt beam="2">  1        1 0.26473072E-01 0.14675997E+03</pdfrwt>
<pdfrwt beam="1">  1       -1 0.16529350E-01 0.14675997E+03</pdfrwt>
<totfact> 0.46994819E+03</totfact>
</mgrwt>
</event>
<event>
 8    1  0.8504141E-006  0.1512071E+03  0.7546771E-02  0.1210127E+00
         -2   -1    0    0    0  501 -0.00000000000E+00  0.00000000000E+00  0.32403723210E+02  0.32403723210E+02  0.00000000000E+00 0.  1.
          2   -1    0    0  501    0  0.00000000000E+00 -0.00000000000E+00 -0.56867364743E+03  0.56867364743E+03  0.00000000000E+00 0. -1.
         23    2    1    2    0    0 -0.48564467875E+02 -0.69872427774E+02 -0.32929397954E+03  0.36235081452E+03  0.12499169621E+03 0.  0.
         23    2    1    2    0    0  0.48564467875E+02  0.69872427774E+02 -0.20697594468E+03  0.23872655612E+03  0.83130398869E+02 0.  0.
          5    1    3    3  502    0 -0.74851352329E+02 -0.84292460291E+02 -0.29851674554E+03  0.31912737453E+03  0.47000000000E+01 0. -1.
         -5    1    3    3    0  502  0.26286884454E+02  0.14420032517E+02 -0.30777234002E+02  0.43223439994E+02  0.47000000000E+01 0. -1.
        -11    1    4    4    0    0  0.42748455356E+02  0.58899804812E+02 -0.21287937730E+03  0.22497610256E+03  0.00000000000E+00 0. -1.
         11    1    4    4    0    0  0.58160125191E+01  0.10972622962E+02  0.59034326228E+01  0.13750453557E+02  0.00000000000E+00 0.  1.
<mgrwt>
<rscale>  0 0.14240616E+03</rscale>
<asrwt>0</asrwt>
<pdfrwt beam="2">  1        2 0.87488251E-01 0.15120710E+03</pdfrwt>
<pdfrwt beam="1">  1       -2 0.49851883E-02 0.15120710E+03</pdfrwt>
<totfact> 0.10151858E+04</totfact>
</mgrwt>
</event>
<event>
 8    1  0.8504141E-006  0.2535873E+03  0.7546771E-02  0.1113561E+00
         -1   -1    0    0    0  501 -0.00000000000E+00  0.00000000000E+00  0.76694687629E+02  0.76694687629E+02  0.00000000000E+00 0.  1.
          1   -1    0    0  501    0  0.00000000000E+00 -0.00000000000E+00 -0.79001996810E+03  0.79001996810E+03  0.00000000000E+00 0. -1.
         23    2    1    2    0    0  0.41546872560E+02 -0.21669863794E+03 -0.34450988519E+03  0.42777747846E+03  0.12498827057E+03 0.  0.
         23    2    1    2    0    0 -0.41546872560E+02  0.21669863794E+03 -0.36881539527E+03  0.43893717726E+03  0.89199817756E+02 0.  0.
          5    1    3    3  502    0  0.18890789625E+02 -0.36320740538E+02 -0.35625003462E+01  0.41362296051E+02  0.47000000000E+01 0. -1.
         -5    1    3    3    0  502  0.22656082935E+02 -0.18037789740E+03 -0.34094738485E+03  0.38641518241E+03  0.47000000000E+01 0. -1.
        -11    1    4    4    0    0 -0.25033895339E+02  0.44312787465E+02 -0.15866013407E+03  0.16662339929E+03  0.00000000000E+00 0.  1.
         11    1    4    4    0    0 -0.16512977221E+02  0.17238585047E+03 -0.21015526120E+03  0.27231377797E+03  0.00000000000E+00 0. -1.
<mgrwt>
<rscale>  0 0.24959565E+03</rscale>
<asrwt>0</asrwt>
<pdfrwt beam="2">  1        1 0.12154154E+00 0.25358728E+03</pdfrwt>
<pdfrwt beam="1">  1       -1 0.11799183E-01 0.25358728E+03</pdfrwt>
<totfact> 0.11067914E+03</totfact>
</mgrwt>
</event>
<event>
 8    1  0.8504141E-006  0.1282587E+03  0.7546771E-02  0.1244797E+00
         -2   -1    0    0    0  501 -0.00000000000E+00  0.00000000000E+00  0.13327884448E+03  0.13327884448E+03  0.00000000000E+00 0.  1.
          2   -1    0    0  501    0  0.00000000000E+00 -0.00000000000E+00 -0.13425330065E+03  0.13425330065E+03  0.00000000000E+00 0. -1.
         23    2    1    2    0    0  0.25799885185E+02 -0.12427411587E+02  0.72618016277E+02  0.14738952965E+03  0.12502088837E+03 0.  0.
         23    2    1    2    0    0 -0.25799885185E+02  0.12427411587E+02 -0.73592472448E+02  0.12014261548E+03  0.90544582493E+02 0.  0.
          5    1    3    3  502    0  0.76494839917E+02 -0.75914875391E+01  0.40734849406E+02  0.87123528240E+02  0.47000000000E+01 0.  1.
         -5    1    3    3    0  502 -0.50694954731E+02 -0.48359240480E+01  0.31883166872E+02  0.60266001413E+02  0.47000000000E+01 0.  1.
        -11    1    4    4    0    0  0.22232068571E+02  0.35232778122E+02 -0.35503939108E+02  0.54737036998E+02  0.00000000000E+00 0. -1.
         11    1    4    4    0    0 -0.48031953756E+02 -0.22805366535E+02 -0.38088533340E+02  0.65405578481E+02  0.00000000000E+00 0.  1.
<mgrwt>
<rscale>  0 0.11897517E+03</rscale>
<asrwt>0</asrwt>
<pdfrwt beam="2">  1        2 0.20654354E-01 0.12825871E+03</pdfrwt>
<pdfrwt beam="1">  1       -2 0.20504438E-01 0.12825871E+03</pdfrwt>
<totfact> 0.51172261E+03</totfact>
</mgrwt>
</event>
<event>
 8    1  0.8504141E-006  0.1251243E+03  0.7546771E-02  0.1247954E+00
         -4   -1    0    0    0  501 -0.00000000000E+00  0.00000000000E+00  0.24165167546E+03  0.24165167546E+03  0.00000000000E+00 0.  1.
          4   -1    0    0  501    0  0.00000000000E+00 -0.00000000000E+00 -0.58507048497E+02  0.58507048497E+02  0.00000000000E+00 0. -1.
         23    2    1    2    0    0  0.19059571430E+01  0.52812903119E+01  0.15681887887E+03  0.20061967317E+03  0.12499827117E+03 0.  0.
         23    2    1    2    0    0 -0.19059571430E+01 -0.52812903119E+01  0.26325748095E+02  0.99539050782E+02  0.95830334017E+02 0.  0.
          5    1    3    3  502    0 -0.74385942286E+01  0.27426879333E+02 -0.11141168869E+02  0.30883361828E+02  0.47000000000E+01 0. -1.
         -5    1    3    3    0  502  0.93445513716E+01 -0.22145589022E+02  0.16796004774E+03  0.16973631134E+03  0.47000000000E+01 0. -1.
        -11    1    4    4    0    0  0.21875302876E+02 -0.23120387523E+02  0.51527821409E+02  0.60565646816E+02  0.00000000000E+00 0.  1.
         11    1    4    4    0    0 -0.23781260019E+02  0.17839097211E+02 -0.25202073314E+02  0.38973403966E+02  0.00000000000E+00 0. -1.
<mgrwt>
<rscale>  0 0.11710301E+03</rscale>
<asrwt>0</asrwt>
<pdfrwt beam="2">  1        4 0.90010845E-02 0.12512431E+03</pdfrwt>
<pdfrwt beam="1">  1       -4 0.37177180E-01 0.12512431E+03</pdfrwt>
<totfact> 0.10331419E+03</totfact>
</mgrwt>
</event>
<event>
 8    1  0.8504141E-006  0.1256206E+03  0.7546771E-02  0.1249773E+00
          3   -1    0    0  501    0  0.00000000000E+00  0.00000000000E+00  0.33917658981E+02  0.33917658981E+02  0.00000000000E+00 0. -1.
         -3   -1    0    0    0  501 -0.00000000000E+00 -0.00000000000E+00 -0.35058597933E+03  0.35058597933E+03  0.00000000000E+00 0.  1.
         23    2    1    2    0    0 -0.12497995697E+02 -0.13215143812E+01 -0.16483593326E+03  0.20724726801E+03  0.12499039526E+03 0.  0.
         23    2    1    2    0    0  0.12497995697E+02  0.13215143812E+01 -0.15183238709E+03  0.17725637031E+03  0.90602432345E+02 0.  0.
          5    1    3    3  502    0 -0.11842392398E+02  0.54104790466E+02 -0.34208003316E+02  0.65267511826E+02  0.47000000000E+01 0. -1.
         -5    1    3    3    0  502 -0.65560329886E+00 -0.55426304847E+02 -0.13062792994E+03  0.14197975618E+03  0.47000000000E+01 0. -1.
        -11    1    4    4    0    0  0.41557711044E+02  0.29455554418E+02 -0.80829004634E+02  0.95540572656E+02  0.00000000000E+00 0.  1.
         11    1    4    4    0    0 -0.29059715347E+02 -0.28134040037E+02 -0.71003382460E+02  0.81715797650E+02  0.00000000000E+00 0. -1.
<mgrwt>
<rscale>  0 0.11604203E+03</rscale>
<asrwt>0</asrwt>
<pdfrwt beam="1">  1        3 0.52181012E-02 0.12562064E+03</pdfrwt>
<pdfrwt beam="2">  1       -3 0.53936307E-01 0.12562064E+03</pdfrwt>
<totfact> 0.16540599E+03</totfact>
</mgrwt>
</event>
<event>
 7    1  0.8504141E-006  0.3587733E+03  0.7546771E-02  0.1109733E+00
         -2   -1    0    0    0  501 -0.00000000000E+00  0.00000000000E+00  0.21880865732E+02  0.21880865732E+02  0.00000000000E+00 0.  1.
          2   -1    0    0  501    0  0.00000000000E+00 -0.00000000000E+00 -0.23297658312E+04  0.23297658312E+04  0.00000000000E+00 0. -1.
         23    2    1    2    0    0 -0.84565913686E+01 -0.20364024678E+02 -0.44789795630E+03  0.45737376100E+03  0.89955380920E+02 0.  0.
          5    1    1    2  502    0 -0.10344675690E+03  0.13753751154E+03 -0.61032591673E+03  0.63414321192E+03  0.47000000000E+01 0. -1.
         -5    1    1    2    0  502  0.11190334826E+03 -0.11717348687E+03 -0.12496610924E+04  0.12601297240E+04  0.47000000000E+01 0.  1.
        -11    1    3    3    0    0  0.33399974329E+02 -0.33971988222E+02 -0.26552195993E+03  0.26976205344E+03  0.00000000000E+00 0.  1.
         11    1    3    3    0    0 -0.41856565697E+02  0.13607963544E+02 -0.18237599637E+03  0.18761170756E+03  0.00000000000E+00 0. -1.
<mgrwt>
<rscale>  0 0.25573459E+03</rscale>
<asrwt>0</asrwt>
<pdfrwt beam="2">  1        2 0.35842562E+00 0.35877330E+03</pdfrwt>
<pdfrwt beam="1">  1       -2 0.33662860E-02 0.35877330E+03</pdfrwt>
<totfact> 0.17539385E+03</totfact>
</mgrwt>
</event>
<event>
 7    1  0.8504141E-006  0.3912713E+03  0.7546771E-02  0.1067805E+00
          2   -1    0    0  501    0  0.00000000000E+00  0.00000000000E+00  0.12780295548E+04  0.12780295548E+04  0.00000000000E+00 0. -1.
         -2   -1    0    0    0  501 -0.00000000000E+00 -0.00000000000E+00 -0.75441519000E+02  0.75441519000E+02  0.00000000000E+00 0.  1.
         23    2    1    2    0    0 -0.40301587752E+02  0.19260531666E+03  0.56712678264E+03  0.60721089708E+03  0.91385228395E+02 0.  0.
          5    1    1    2  502    0  0.93305240801E+02 -0.12166881958E+03  0.63935371067E+03  0.65749861366E+03  0.47000000000E+01 0. -1.
         -5    1    1    2    0  502 -0.53003653049E+02 -0.70936497079E+02 -0.38924574884E+01  0.88761563076E+02  0.47000000000E+01 0.  1.
        -11    1    3    3    0    0 -0.57090754568E+02  0.14997085570E+03  0.34619854913E+03  0.38158098385E+03  0.00000000000E+00 0. -1.
         11    1    3    3    0    0  0.16789166817E+02  0.42634460960E+02  0.22092823351E+03  0.22562991324E+03  0.00000000000E+00 0.  1.
<mgrwt>
<rscale>  0 0.33764022E+03</rscale>
<asrwt>0</asrwt>
<pdfrwt beam="1">  1        2 0.19661992E+00 0.39127132E+03</pdfrwt>
<pdfrwt beam="2">  1       -2 0.11606388E-01 0.39127132E+03</pdfrwt>
<totfact> 0.93729663E+02</totfact>
</mgrwt>
</event>
<event>
 8    1  0.8504141E-006  0.1303875E+03  0.7546771E-02  0.1241621E+00
         -1   -1    0    0    0  501 -0.00000000000E+00  0.00000000000E+00  0.10907516019E+03  0.10907516019E+03  0.00000000000E+00 0.  1.
          1   -1    0    0  501    0  0.00000000000E+00 -0.00000000000E+00 -0.16251022560E+03  0.16251022560E+03  0.00000000000E+00 0. -1.
         23    2    1    2    0    0  0.20726234327E+02 -0.30757688852E+02  0.40970473350E+02  0.13667285494E+03  0.12500110951E+03 0.  0.
         23    2    1    2    0    0 -0.20726234327E+02  0.30757688852E+02 -0.94405538762E+02  0.13491253085E+03  0.88957141464E+02 0.  0.
          5    1    3    3  502    0 -0.11263717383E+02 -0.47030331234E+02 -0.29930012793E+02  0.57066794645E+02  0.47000000000E+01 0.  1.
         -5    1    3    3    0  502  0.31989951710E+02  0.16272642383E+02  0.70900486144E+02  0.79606060296E+02  0.47000000000E+01 0.  1.
        -11    1    4    4    0    0 -0.46599039343E+02 -0.61922659965E+01 -0.28256133846E+02  0.54847276376E+02  0.00000000000E+00 0.  1.
         11    1    4    4    0    0  0.25872805016E+02  0.36949954848E+02 -0.66149404916E+02  0.80065254470E+02  0.00000000000E+00 0. -1.
<mgrwt>
<rscale>  0 0.12089905E+03</rscale>
<asrwt>0</asrwt>
<pdfrwt beam="2">  1        1 0.25001573E-01 0.13038746E+03</pdfrwt>
<pdfrwt beam="1">  1       -1 0.16780794E-01 0.13038746E+03</pdfrwt>
<totfact> 0.48954269E+03</totfact>
</mgrwt>
</event>
<event>
 8    1  0.8504141E-006  0.1451338E+03  0.7546771E-02  0.1217327E+00
         -1   -1    0    0    0  501 -0.00000000000E+00  0.00000000000E+00  0.86683042893E+03  0.86683042893E+03  0.00000000000E+00 0.  1.
          1   -1    0    0  501    0  0.00000000000E+00 -0.00000000000E+00 -0.34144244916E+02  0.34144244916E+02  0.00000000000E+00 0. -1.
         23    2    1    2    0    0  0.55231908464E+02 -0.48859339399E+02  0.73658578051E+03  0.75074790598E+03  0.12500403002E+03 0.  0.
         23    2    1    2    0    0 -0.55231908464E+02  0.48859339399E+02  0.96100403503E+02  0.15022676787E+03  0.88853787037E+02 0.  0.
          5    1    3    3  502    0 -0.26045894305E+02  0.17008809759E+02  0.81813783483E+02  0.87654283338E+02  0.47000000000E+01 0. -1.
         -5    1    3    3    0  502  0.81277802770E+02 -0.65868149158E+02  0.65477199703E+03  0.66309362264E+03  0.47000000000E+01 0. -1.
        -11    1    4    4    0    0  0.12218555269E+02  0.19974340147E+02  0.67549449254E+02  0.71492625156E+02  0.00000000000E+00 0.  1.
         11    1    4    4    0    0 -0.67450463734E+02  0.28884999251E+02  0.28550954249E+02  0.78734142709E+02  0.00000000000E+00 0. -1.
<mgrwt>
<rscale>  0 0.13706970E+03</rscale>
<asrwt>0</asrwt>
<pdfrwt beam="2">  1        1 0.52529614E-02 0.14513375E+03</pdfrwt>
<pdfrwt beam="1">  1       -1 0.13335851E+00 0.14513375E+03</pdfrwt>
<totfact> 0.78519544E+02</totfact>
</mgrwt>
</event>
<event>
 8    1  0.8504141E-006  0.1473860E+03  0.7546771E-02  0.1212588E+00
         -1   -1    0    0    0  501 -0.00000000000E+00  0.00000000000E+00  0.28336489900E+02  0.28336489900E+02  0.00000000000E+00 0.  1.
          1   -1    0    0  501    0  0.00000000000E+00 -0.00000000000E+00 -0.66622433004E+03  0.66622433004E+03  0.00000000000E+00 0. -1.
         23    2    1    2    0    0  0.24641146005E+02 -0.74097163537E+02 -0.27898448767E+03  0.31552335665E+03  0.12500027403E+03 0.  0.
         23    2    1    2    0    0 -0.24641146005E+02  0.74097163537E+02 -0.35890335247E+03  0.37903746330E+03  0.93595974524E+02 0.  0.
          5    1    3    3  502    0  0.16992896440E+02 -0.91715361659E+02 -0.28055097592E+03  0.29568802171E+03  0.47000000000E+01 0. -1.
         -5    1    3    3    0  502  0.76482495652E+01  0.17618198122E+02  0.15664882492E+01  0.19835334933E+02  0.47000000000E+01 0. -1.
        -11    1    4    4    0    0  0.29260877710E+02  0.31474850499E+02 -0.21890495770E+03  0.22308349488E+03  0.00000000000E+00 0. -1.
         11    1    4    4    0    0 -0.53902023715E+02  0.42622313037E+02 -0.13999839477E+03  0.15595396842E+03  0.00000000000E+00 0.  1.
<mgrwt>
<rscale>  0 0.14055183E+03</rscale>
<asrwt>0</asrwt>
<pdfrwt beam="2">  1        1 0.10249604E+00 0.14738604E+03</pdfrwt>
<pdfrwt beam="1">  1       -1 0.43594605E-02 0.14738604E+03</pdfrwt>
<totfact> 0.63473955E+03</totfact>
</mgrwt>
</event>
<event>
 8    1  0.8504141E-006  0.1570228E+03  0.7546771E-02  0.1202353E+00
          4   -1    0    0  501    0  0.00000000000E+00  0.00000000000E+00  0.28306078292E+02  0.28306078292E+02  0.00000000000E+00 0. -1.
         -4   -1    0    0    0  501 -0.00000000000E+00 -0.00000000000E+00 -0.74078141161E+03  0.74078141161E+03  0.00000000000E+00 0.  1.
         23    2    1    2    0    0  0.90113881211E+02 -0.30173087515E+02 -0.47783956686E+03  0.50297793555E+03  0.12500090077E+03 0.  0.
         23    2    1    2    0    0 -0.90113881211E+02  0.30173087515E+02 -0.23463576645E+03  0.26610955435E+03  0.82033073943E+02 0.  0.
          5    1    3    3  502    0  0.82733620295E+02  0.28634762345E+02 -0.19272965342E+03  0.21173476533E+03  0.47000000000E+01 0.  1.
         -5    1    3    3    0  502  0.73802609162E+01 -0.58807849860E+02 -0.28510991344E+03  0.29124317022E+03  0.47000000000E+01 0.  1.
        -11    1    4    4    0    0 -0.10397900903E+03  0.15160602173E+02 -0.19439546094E+03  0.22097754052E+03  0.00000000000E+00 0.  1.
         11    1    4    4    0    0  0.13865127814E+02  0.15012485342E+02 -0.40240305509E+02  0.45132013836E+02  0.00000000000E+00 0. -1.
<mgrwt>
<rscale>  0 0.14847992E+03</rscale>
<asrwt>0</asrwt>
<pdfrwt beam="1">  1        4 0.43547812E-02 0.15702278E+03</pdfrwt>
<pdfrwt beam="2">  1       -4 0.11396637E+00 0.15702278E+03</pdfrwt>
<totfact> 0.32072903E+02</totfact>
</mgrwt>
</event>
<event>
 8    1  0.8504141E-006  0.1945587E+03  0.7546771E-02  0.1159007E+00
          2   -1    0    0  501    0  0.00000000000E+00  0.00000000000E+00  0.28422201180E+03  0.28422201180E+03  0.00000000000E+00 0. -1.
         -2   -1    0    0    0  501 -0.00000000000E+00 -0.00000000000E+00 -0.18044120385E+03  0.18044120385E+03  0.00000000000E+00 0.  1.
         23    2    1    2    0    0  0.12976768989E+03 -0.73405651744E+02 -0.80651463126E+02  0.21061280987E+03  0.12500021652E+03 0.  0.
         23    2    1    2    0    0 -0.12976768989E+03  0.73405651744E+02  0.18443227107E+03  0.25405040578E+03  0.91095021903E+02 0.  0.
          5    1    3    3  502    0  0.14078924768E+03 -0.46175127514E+02 -0.96519887893E+02  0.17689526117E+03  0.47000000000E+01 0. -1.
         -5    1    3    3    0  502 -0.11021557795E+02 -0.27230524230E+02  0.15868424766E+02  0.33717548704E+02  0.47000000000E+01 0. -1.
        -11    1    4    4    0    0 -0.52263821349E+02  0.66431029577E+02  0.14242655495E+03  0.16561978224E+03  0.00000000000E+00 0.  1.
         11    1    4    4    0    0 -0.77503868541E+02  0.69746221671E+01  0.42005716122E+02  0.88430623542E+02  0.00000000000E+00 0. -1.
<mgrwt>
<rscale>  0 0.18939669E+03</rscale>
<asrwt>0</asrwt>
<pdfrwt beam="1">  1        2 0.43726464E-01 0.19455872E+03</pdfrwt>
<pdfrwt beam="2">  1       -2 0.27760185E-01 0.19455872E+03</pdfrwt>
<totfact> 0.13562543E+03</totfact>
</mgrwt>
</event>
<event>
 8    1  0.8504141E-006  0.1300012E+03  0.7546771E-02  0.1243219E+00
         -2   -1    0    0    0  501 -0.00000000000E+00  0.00000000000E+00  0.36067324339E+02  0.36067324339E+02  0.00000000000E+00 0.  1.
          2   -1    0    0  501    0  0.00000000000E+00 -0.00000000000E+00 -0.34928142281E+03  0.34928142281E+03  0.00000000000E+00 0. -1.
         23    2    1    2    0    0  0.11758158440E+02 -0.33715793400E+02 -0.19186167813E+03  0.23175677519E+03  0.12500116118E+03 0.  0.
         23    2    1    2    0    0 -0.11758158440E+02  0.33715793400E+02 -0.12135242034E+03  0.15359197196E+03  0.87115296668E+02 0.  0.
          5    1    3    3  502    0 -0.52891856111E+02  0.62121231159E+01 -0.88283860323E+02  0.10320982952E+03  0.47000000000E+01 0.  1.
         -5    1    3    3    0  502  0.64650014550E+02 -0.39927916516E+02 -0.10357781781E+03  0.12854694567E+03  0.47000000000E+01 0.  1.
        -11    1    4    4    0    0 -0.97037496091E+00  0.25835939163E+02 -0.13323045006E+03  0.13571584359E+03  0.00000000000E+00 0. -1.
         11    1    4    4    0    0 -0.10787783479E+02  0.78798542368E+01  0.11878029721E+02  0.17876128363E+02  0.00000000000E+00 0.  1.
<mgrwt>
<rscale>  0 0.11992635E+03</rscale>
<asrwt>0</asrwt>
<pdfrwt beam="2">  1        2 0.53735602E-01 0.13000115E+03</pdfrwt>
<pdfrwt beam="1">  1       -2 0.55488192E-02 0.13000115E+03</pdfrwt>
<totfact> 0.14504300E+04</totfact>
</mgrwt>
</event>
<event>
 8    1  0.8504141E-006  0.1599369E+03  0.7546771E-02  0.1195645E+00
         -2   -1    0    0    0  501 -0.00000000000E+00  0.00000000000E+00  0.49768151324E+02  0.49768151324E+02  0.00000000000E+00 0.  1.
          2   -1    0    0  501    0  0.00000000000E+00 -0.00000000000E+00 -0.50007657169E+03  0.50007657169E+03  0.00000000000E+00 0. -1.
         23    2    1    2    0    0 -0.93786220704E+02  0.34094676103E+02 -0.14869961112E+03  0.21838361205E+03  0.12498610136E+03 0.  0.
         23    2    1    2    0    0  0.93786220704E+02 -0.34094676103E+02 -0.30160880924E+03  0.33146111096E+03  0.94553118057E+02 0.  0.
          5    1    3    3  502    0 -0.25160267013E+02  0.16025719611E+02  0.19376036525E+02  0.35880127043E+02  0.47000000000E+01 0. -1.
         -5    1    3    3    0  502 -0.68625953691E+02  0.18068956491E+02 -0.16807564765E+03  0.18250348501E+03  0.47000000000E+01 0. -1.
        -11    1    4    4    0    0  0.44098574716E+02 -0.42344944107E+02 -0.63750382438E+02  0.88328307152E+02  0.00000000000E+00 0.  1.
         11    1    4    4    0    0  0.49687645988E+02  0.82502680042E+01 -0.23785842681E+03  0.24313280381E+03  0.00000000000E+00 0. -1.
<mgrwt>
<rscale>  0 0.15399808E+03</rscale>
<asrwt>0</asrwt>
<pdfrwt beam="2">  1        2 0.76934855E-01 0.15993695E+03</pdfrwt>
<pdfrwt beam="1">  1       -2 0.76566389E-02 0.15993695E+03</pdfrwt>
<totfact> 0.61125024E+03</totfact>
</mgrwt>
</event>
<event>
 8    1  0.8504141E-006  0.1497940E+03  0.7546771E-02  0.1210468E+00
          1   -1    0    0  501    0  0.00000000000E+00  0.00000000000E+00  0.49869480898E+02  0.49869480898E+02  0.00000000000E+00 0. -1.
         -1   -1    0    0    0  501 -0.00000000000E+00 -0.00000000000E+00 -0.39679960403E+03  0.39679960403E+03  0.00000000000E+00 0.  1.
         23    2    1    2    0    0 -0.47005188444E+02  0.67913282068E+02 -0.24923727979E+03  0.29078767261E+03  0.12496618455E+03 0.  0.
         23    2    1    2    0    0  0.47005188444E+02 -0.67913282068E+02 -0.97692843345E+02  0.15588141232E+03  0.89069756066E+02 0.  0.
          5    1    3    3  502    0  0.29420674418E+02  0.60436593464E+02 -0.15584322406E+03  0.16978621380E+03  0.47000000000E+01 0.  1.
         -5    1    3    3    0  502 -0.76425862861E+02  0.74766886036E+01 -0.93394055736E+02  0.12100145881E+03  0.47000000000E+01 0.  1.
        -11    1    4    4    0    0  0.33133368798E+02 -0.14320931473E+01  0.42009309399E+01  0.33429311082E+02  0.00000000000E+00 0. -1.
         11    1    4    4    0    0  0.13871819646E+02 -0.66481188921E+02 -0.10189377428E+03  0.12245210124E+03  0.00000000000E+00 0.  1.
<mgrwt>
<rscale>  0 0.14214733E+03</rscale>
<asrwt>0</asrwt>
<pdfrwt beam="1">  1        1 0.76722281E-02 0.14979402E+03</pdfrwt>
<pdfrwt beam="2">  1       -1 0.61046091E-01 0.14979402E+03</pdfrwt>
<totfact> 0.25156125E+03</totfact>
</mgrwt>
</event>
<event>
 8    1  0.8504141E-006  0.3252212E+03  0.7546771E-02  0.1074503E+00
          2   -1    0    0  501    0  0.00000000000E+00  0.00000000000E+00  0.12368168065E+04  0.12368168065E+04  0.00000000000E+00 0. -1.
         -2   -1    0    0    0  501 -0.00000000000E+00 -0.00000000000E+00 -0.82896621978E+02  0.82896621978E+02  0.00000000000E+00 0.  1.
         23    2    1    2    0    0  0.28465365385E+03 -0.95347965029E+02  0.61738779613E+03  0.69780836810E+03  0.12509952317E+03 0.  0.
         23    2    1    2    0    0 -0.28465365385E+03  0.95347965029E+02  0.53653238837E+03  0.62190506036E+03  0.93701458057E+02 0.  0.
          5    1    3    3  502    0  0.23288469832E+03 -0.12595434254E+03  0.49624665556E+03  0.56247898829E+03  0.47000000000E+01 0. -1.
         -5    1    3    3    0  502  0.51768955525E+02  0.30606377509E+02  0.12114114058E+03  0.13532937981E+03  0.47000000000E+01 0. -1.
        -11    1    4    4    0    0 -0.90773450901E+02  0.54145680753E+02  0.26842797180E+03  0.28848769501E+03  0.00000000000E+00 0.  1.
         11    1    4    4    0    0 -0.19388020295E+03  0.41202284276E+02  0.26810441658E+03  0.33341736534E+03  0.00000000000E+00 0. -1.
<mgrwt>
<rscale>  0 0.32250249E+03</rscale>
<asrwt>0</asrwt>
<pdfrwt beam="1">  1        2 0.19027949E+00 0.32522120E+03</pdfrwt>
<pdfrwt beam="2">  1       -2 0.12753327E-01 0.32522120E+03</pdfrwt>
<totfact> 0.85128134E+02</totfact>
</mgrwt>
</event>
<event>
 8    1  0.8504141E-006  0.1314152E+03  0.7546771E-02  0.1239081E+00
         -2   -1    0    0    0  501 -0.00000000000E+00  0.00000000000E+00  0.20804150849E+02  0.20804150849E+02  0.00000000000E+00 0. -1.
          2   -1    0    0  501    0  0.00000000000E+00 -0.00000000000E+00 -0.65837556010E+03  0.65837556010E+03  0.00000000000E+00 0.  1.
         23    2    1    2    0    0  0.73027255937E+01  0.39879093878E+02 -0.30387013501E+03  0.33106950271E+03  0.12500513887E+03 0.  0.
         23    2    1    2    0    0 -0.73027255937E+01 -0.39879093878E+02 -0.33370127424E+03  0.34811020824E+03  0.90446142649E+02 0.  0.
          5    1    3    3  502    0  0.38106472246E+02  0.46905898994E+02 -0.28996213784E+03  0.29623031237E+03  0.47000000000E+01 0.  1.
         -5    1    3    3    0  502 -0.30803746653E+02 -0.70268051161E+01 -0.13907997166E+02  0.34839190334E+02  0.47000000000E+01 0.  1.
        -11    1    4    4    0    0 -0.37924544798E+02  0.21423422420E+00 -0.69874968352E+02  0.79503636374E+02  0.00000000000E+00 0. -1.
         11    1    4    4    0    0  0.30621819205E+02 -0.40093328102E+02 -0.26382630589E+03  0.26860657187E+03  0.00000000000E+00 0.  1.
<mgrwt>
<rscale>  0 0.12246761E+03</rscale>
<asrwt>0</asrwt>
<pdfrwt beam="2">  1        2 0.10128853E+00 0.13141521E+03</pdfrwt>
<pdfrwt beam="1">  1       -2 0.32006390E-02 0.13141521E+03</pdfrwt>
<totfact> 0.16431216E+04</totfact>
</mgrwt>
</event>
<event>
 8    1  0.8504141E-006  0.2155720E+03  0.7546771E-02  0.1140745E+00
         -1   -1    0    0    0  501 -0.00000000000E+00  0.00000000000E+00  0.13215558556E+03  0.13215558556E+03  0.00000000000E+00 0.  1.
          1   -1    0    0  501    0  0.00000000000E+00 -0.00000000000E+00 -0.36478766458E+03  0.36478766458E+03  0.00000000000E+00 0. -1.
         23    2    1    2    0    0 -0.39287912773E+02  0.17118091291E+03 -0.37245270097E+02  0.21876589273E+03  0.12499944258E+03 0.  0.
         23    2    1    2    0    0  0.39287912773E+02 -0.17118091291E+03 -0.19538680893E+03  0.27817735742E+03  0.91434085781E+02 0.  0.
          5    1    3    3  502    0 -0.46489877417E+02  0.13316899080E+03 -0.78929150323E+02  0.16170092635E+03  0.47000000000E+01 0.  1.
         -5    1    3    3    0  502  0.72019646443E+01  0.38011922107E+02  0.41683880225E+02  0.57064966378E+02  0.47000000000E+01 0.  1.
        -11    1    4    4    0    0 -0.28478644380E+02 -0.51549219511E+02 -0.42925042104E+02  0.72876021142E+02  0.00000000000E+00 0.  1.
         11    1    4    4    0    0  0.67766557153E+02 -0.11963169340E+03 -0.15246176682E+03  0.20530133627E+03  0.00000000000E+00 0. -1.
<mgrwt>
<rscale>  0 0.21103976E+03</rscale>
<asrwt>0</asrwt>
<pdfrwt beam="2">  1        1 0.56121178E-01 0.21557204E+03</pdfrwt>
<pdfrwt beam="1">  1       -1 0.20331629E-01 0.21557204E+03</pdfrwt>
<totfact> 0.13351337E+03</totfact>
</mgrwt>
</event>
<event>
 8    1  0.8504141E-006  0.2093756E+03  0.7546771E-02  0.1145856E+00
          1   -1    0    0  501    0  0.00000000000E+00  0.00000000000E+00  0.33602880557E+03  0.33602880557E+03  0.00000000000E+00 0. -1.
         -1   -1    0    0    0  501 -0.00000000000E+00 -0.00000000000E+00 -0.12335495399E+03  0.12335495399E+03  0.00000000000E+00 0.  1.
         23    2    1    2    0    0  0.15937989803E+03 -0.53013149749E+02  0.15224497291E+03  0.25887575252E+03  0.12500311005E+03 0.  0.
         23    2    1    2    0    0 -0.15937989803E+03  0.53013149749E+02  0.60428878666E+02  0.20050800705E+03  0.91320674386E+02 0.  0.
          5    1    3    3  502    0  0.10042882557E+03 -0.66892363890E+02  0.33217581817E+02  0.12524390242E+03  0.47000000000E+01 0. -1.
         -5    1    3    3    0  502  0.58951072461E+02  0.13879214140E+02  0.11902739110E+03  0.13363185010E+03  0.47000000000E+01 0. -1.
        -11    1    4    4    0    0 -0.30595695470E+02 -0.24238171644E+02  0.24526136878E+02  0.46098990619E+02  0.00000000000E+00 0.  1.
         11    1    4    4    0    0 -0.12878420256E+03  0.77251321393E+02  0.35902741788E+02  0.15440901643E+03  0.00000000000E+00 0. -1.
<mgrwt>
<rscale>  0 0.20467184E+03</rscale>
<asrwt>0</asrwt>
<pdfrwt beam="1">  1        1 0.51696739E-01 0.20937556E+03</pdfrwt>
<pdfrwt beam="2">  1       -1 0.18977685E-01 0.20937556E+03</pdfrwt>
<totfact> 0.16554990E+03</totfact>
</mgrwt>
</event>
<event>
 8    1  0.8504141E-006  0.1522097E+03  0.7546771E-02  0.1206587E+00
         -3   -1    0    0    0  501 -0.00000000000E+00  0.00000000000E+00  0.97801498096E+02  0.97801498096E+02  0.00000000000E+00 0.  1.
          3   -1    0    0  501    0  0.00000000000E+00 -0.00000000000E+00 -0.23947736939E+03  0.23947736939E+03  0.00000000000E+00 0. -1.
         23    2    1    2    0    0 -0.45583439350E+02  0.73924921705E+02 -0.61140849951E+01  0.15233246065E+03  0.12500021017E+03 0.  0.
         23    2    1    2    0    0  0.45583439350E+02 -0.73924921705E+02 -0.13556178630E+03  0.18494640684E+03  0.91024345666E+02 0.  0.
          5    1    3    3  502    0  0.30480918900E+02 -0.76790712726E+01  0.20146044348E+02  0.37629877166E+02  0.47000000000E+01 0.  1.
         -5    1    3    3    0  502 -0.76064358250E+02  0.81603992977E+02 -0.26260129343E+02  0.11470258349E+03  0.47000000000E+01 0.  1.
        -11    1    4    4    0    0  0.86306688945E+01 -0.26445059062E+02 -0.11947087180E+03  0.12266669802E+03  0.00000000000E+00 0. -1.
         11    1    4    4    0    0  0.36952770455E+02 -0.47479862642E+02 -0.16090914504E+02  0.62279708818E+02  0.00000000000E+00 0.  1.
<mgrwt>
<rscale>  0 0.14513115E+03</rscale>
<asrwt>0</asrwt>
<pdfrwt beam="2">  1        3 0.36842672E-01 0.15220971E+03</pdfrwt>
<pdfrwt beam="1">  1       -3 0.15046384E-01 0.15220971E+03</pdfrwt>
<totfact> 0.63269976E+02</totfact>
</mgrwt>
</event>
<event>
 8    1  0.8504141E-006  0.1331611E+03  0.7546771E-02  0.1235564E+00
          1   -1    0    0  501    0  0.00000000000E+00  0.00000000000E+00  0.16297941919E+03  0.16297941919E+03  0.00000000000E+00 0. -1.
         -1   -1    0    0    0  501 -0.00000000000E+00 -0.00000000000E+00 -0.91963617374E+02  0.91963617374E+02  0.00000000000E+00 0.  1.
         23    2    1    2    0    0  0.24633879802E+02 -0.38597341969E+02  0.52168880274E+01  0.13326325175E+03  0.12504117524E+03 0.  0.
         23    2    1    2    0    0 -0.24633879802E+02  0.38597341969E+02  0.65798913785E+02  0.12167978481E+03  0.91541739855E+02 0.  0.
          5    1    3    3  502    0  0.29693510258E+02  0.40246047322E+02 -0.13331183602E+02  0.51973640749E+02  0.47000000000E+01 0. -1.
         -5    1    3    3    0  502 -0.50596304555E+01 -0.78843389291E+02  0.18548071629E+02  0.81289610999E+02  0.47000000000E+01 0. -1.
        -11    1    4    4    0    0 -0.53763255994E+02  0.98745734312E+01  0.58609754358E+02  0.80144233738E+02  0.00000000000E+00 0. -1.
         11    1    4    4    0    0  0.29129376192E+02  0.28722768538E+02  0.71891594264E+01  0.41535551075E+02  0.00000000000E+00 0.  1.
<mgrwt>
<rscale>  0 0.12468377E+03</rscale>
<asrwt>0</asrwt>
<pdfrwt beam="1">  1        1 0.25073757E-01 0.13316110E+03</pdfrwt>
<pdfrwt beam="2">  1       -1 0.14148249E-01 0.13316110E+03</pdfrwt>
<totfact> 0.63842891E+03</totfact>
</mgrwt>
</event>
<event>
 8    1  0.8504141E-006  0.1290862E+03  0.7546771E-02  0.1250086E+00
          2   -1    0    0  501    0  0.00000000000E+00  0.00000000000E+00  0.22829285238E+03  0.22829285238E+03  0.00000000000E+00 0. -1.
         -2   -1    0    0    0  501 -0.00000000000E+00 -0.00000000000E+00 -0.92846009019E+02  0.92846009019E+02  0.00000000000E+00 0.  1.
         23    2    1    2    0    0 -0.31700658223E+02  0.57787414671E+01 -0.32801348182E+02  0.13318851012E+03  0.12499970080E+03 0.  0.
         23    2    1    2    0    0  0.31700658223E+02 -0.57787414671E+01  0.16824819155E+03  0.18795035128E+03  0.77327582421E+02 0.  0.
          5    1    3    3  502    0  0.22547026552E+02  0.47076761406E+02 -0.37871575631E+02  0.64660158611E+02  0.47000000000E+01 0.  1.
         -5    1    3    3    0  502 -0.54247684775E+02 -0.41298019939E+02  0.50702274495E+01  0.68528351511E+02  0.47000000000E+01 0.  1.
        -11    1    4    4    0    0  0.19350187814E+02 -0.27537542258E+02  0.15691462713E+03  0.16048347644E+03  0.00000000000E+00 0. -1.
         11    1    4    4    0    0  0.12350470409E+02  0.21758800791E+02  0.11333564414E+02  0.27466874840E+02  0.00000000000E+00 0.  1.
<mgrwt>
<rscale>  0 0.11586057E+03</rscale>
<asrwt>0</asrwt>
<pdfrwt beam="1">  1        2 0.35121977E-01 0.12908621E+03</pdfrwt>
<pdfrwt beam="2">  1       -2 0.14284001E-01 0.12908621E+03</pdfrwt>
<totfact> 0.52146556E+03</totfact>
</mgrwt>
</event>
<event>
 8    1  0.8504141E-006  0.1538581E+03  0.7546771E-02  0.1204388E+00
          1   -1    0    0  501    0  0.00000000000E+00  0.00000000000E+00  0.67947735144E+02  0.67947735144E+02  0.00000000000E+00 0. -1.
         -1   -1    0    0    0  501 -0.00000000000E+00 -0.00000000000E+00 -0.30028399338E+03  0.30028399338E+03  0.00000000000E+00 0.  1.
         23    2    1    2    0    0 -0.67707145724E+02 -0.58824641202E+02 -0.95647544957E+02  0.18116505307E+03  0.12501090993E+03 0.  0.
         23    2    1    2    0    0  0.67707145724E+02  0.58824641202E+02 -0.13668871328E+03  0.18706667546E+03  0.90915019300E+02 0.  0.
          5    1    3    3  502    0 -0.53792170348E+01 -0.24184584522E+02 -0.10599901797E+03  0.10895738578E+03  0.47000000000E+01 0. -1.
         -5    1    3    3    0  502 -0.62327928689E+02 -0.34640056680E+02  0.10351473015E+02  0.72207667287E+02  0.47000000000E+01 0. -1.
        -11    1    4    4    0    0 -0.58039189908E+01  0.35533958013E+02 -0.77515803890E+01  0.36829806492E+02  0.00000000000E+00 0. -1.
         11    1    4    4    0    0  0.73511064715E+02  0.23290683190E+02 -0.12893713289E+03  0.15023686897E+03  0.00000000000E+00 0.  1.
<mgrwt>
<rscale>  0 0.14685797E+03</rscale>
<asrwt>0</asrwt>
<pdfrwt beam="1">  1        1 0.10453498E-01 0.15385813E+03</pdfrwt>
<pdfrwt beam="2">  1       -1 0.46197537E-01 0.15385813E+03</pdfrwt>
<totfact> 0.27925036E+03</totfact>
</mgrwt>
</event>
<event>
 8    1  0.8504141E-006  0.1416360E+03  0.7546771E-02  0.1221668E+00
         -1   -1    0    0    0  501 -0.00000000000E+00  0.00000000000E+00  0.31833828583E+02  0.31833828583E+02  0.00000000000E+00 0.  1.
          1   -1    0    0  501    0  0.00000000000E+00 -0.00000000000E+00 -0.73190529269E+03  0.73190529269E+03  0.00000000000E+00 0. -1.
         23    2    1    2    0    0  0.66468244995E+02 -0.42017996427E+01 -0.16809886689E+03  0.21981351754E+03  0.12500028292E+03 0.  0.
         23    2    1    2    0    0 -0.66468244995E+02  0.42017996427E+01 -0.53197259721E+03  0.54392560373E+03  0.91785268382E+02 0.  0.
          5    1    3    3  502    0  0.19990676192E+02 -0.12221180028E+02 -0.17068050605E+03  0.17234532056E+03  0.47000000000E+01 0.  1.
         -5    1    3    3    0  502  0.46477568802E+02  0.80193803849E+01  0.25816391566E+01  0.47468196977E+02  0.47000000000E+01 0.  1.
        -11    1    4    4    0    0 -0.74179570132E+02 -0.27865356841E+02 -0.33761690744E+03  0.34679138242E+03  0.00000000000E+00 0.  1.
         11    1    4    4    0    0  0.77113251375E+01  0.32067156483E+02 -0.19435568978E+03  0.19713422130E+03  0.00000000000E+00 0. -1.
<mgrwt>
<rscale>  0 0.13397885E+03</rscale>
<asrwt>0</asrwt>
<pdfrwt beam="2">  1        1 0.11260081E+00 0.14163599E+03</pdfrwt>
<pdfrwt beam="1">  1       -1 0.48975124E-02 0.14163599E+03</pdfrwt>
<totfact> 0.46625483E+03</totfact>
</mgrwt>
</event>
<event>
 8    1  0.8504141E-006  0.1266519E+03  0.7546771E-02  0.1247514E+00
         -1   -1    0    0    0  501 -0.00000000000E+00  0.00000000000E+00  0.92211899027E+02  0.92211899027E+02  0.00000000000E+00 0.  1.
          1   -1    0    0  501    0  0.00000000000E+00 -0.00000000000E+00 -0.20377030432E+03  0.20377030432E+03  0.00000000000E+00 0. -1.
         23    2    1    2    0    0  0.36261004151E+01 -0.20092445101E+02  0.26415364428E+02  0.12937729737E+03  0.12499543449E+03 0.  0.
         23    2    1    2    0    0 -0.36261004151E+01  0.20092445101E+02 -0.13797376972E+03  0.16660490598E+03  0.91123973854E+02 0.  0.
          5    1    3    3  502    0 -0.12562722330E+02  0.14115048838E+02  0.69303187110E+02  0.71986653899E+02  0.47000000000E+01 0.  1.
         -5    1    3    3    0  502  0.16188822745E+02 -0.34207493939E+02 -0.42887822682E+02  0.57390643469E+02  0.47000000000E+01 0.  1.
        -11    1    4    4    0    0  0.15149075448E+02 -0.29953018637E+02 -0.84834374624E+02  0.91233485795E+02  0.00000000000E+00 0. -1.
         11    1    4    4    0    0 -0.18775175864E+02  0.50045463738E+02 -0.53139395101E+02  0.75371420188E+02  0.00000000000E+00 0.  1.
<mgrwt>
<rscale>  0 0.11736163E+03</rscale>
<asrwt>0</asrwt>
<pdfrwt beam="2">  1        1 0.31349277E-01 0.12665194E+03</pdfrwt>
<pdfrwt beam="1">  1       -1 0.14186446E-01 0.12665194E+03</pdfrwt>
<totfact> 0.47970299E+03</totfact>
</mgrwt>
</event>
<event>
 8    1  0.8504141E-006  0.2458234E+03  0.7546771E-02  0.1118570E+00
         -2   -1    0    0    0  501 -0.00000000000E+00  0.00000000000E+00  0.21660181058E+03  0.21660181058E+03  0.00000000000E+00 0.  1.
          2   -1    0    0  501    0  0.00000000000E+00 -0.00000000000E+00 -0.35017019134E+03  0.35017019134E+03  0.00000000000E+00 0. -1.
         23    2    1    2    0    0 -0.30102207195E+02  0.20951730249E+03  0.74021987366E+02  0.25672630785E+03  0.12500199841E+03 0.  0.
         23    2    1    2    0    0  0.30102207195E+02 -0.20951730249E+03 -0.20759036813E+03  0.31004569406E+03  0.90724464973E+02 0.  0.
          5    1    3    3  502    0  0.47068739267E+02  0.99027874708E+02  0.20518841840E+02  0.11164720801E+03  0.47000000000E+01 0.  1.
         -5    1    3    3    0  502 -0.77170946462E+02  0.11048942779E+03  0.53503145525E+02  0.14507909984E+03  0.47000000000E+01 0.  1.
        -11    1    4    4    0    0  0.20771775568E+02 -0.17493546950E+03 -0.21004879243E+03  0.27414299252E+03  0.00000000000E+00 0. -1.
         11    1    4    4    0    0  0.93304316270E+01 -0.34581832998E+02  0.24584243009E+01  0.35902701540E+02  0.00000000000E+00 0.  1.
<mgrwt>
<rscale>  0 0.24184510E+03</rscale>
<asrwt>0</asrwt>
<pdfrwt beam="2">  1        2 0.53872338E-01 0.24582340E+03</pdfrwt>
<pdfrwt beam="1">  1       -2 0.33323355E-01 0.24582340E+03</pdfrwt>
<totfact> 0.77947980E+02</totfact>
</mgrwt>
</event>
<event>
 8    1  0.8504141E-006  0.1297652E+03  0.7546771E-02  0.1242478E+00
         -2   -1    0    0    0  501 -0.00000000000E+00  0.00000000000E+00  0.63731622565E+02  0.63731622565E+02  0.00000000000E+00 0.  1.
          2   -1    0    0  501    0  0.00000000000E+00 -0.00000000000E+00 -0.20220891901E+03  0.20220891901E+03  0.00000000000E+00 0. -1.
         23    2    1    2    0    0 -0.34805821369E+02 -0.20906807074E-01 -0.66029807449E+02  0.14559858439E+03  0.12501026625E+03 0.  0.
         23    2    1    2    0    0  0.34805821369E+02  0.20906807074E-01 -0.72447488996E+02  0.12034195718E+03  0.89566189817E+02 0.  0.
          5    1    3    3  502    0 -0.46616635406E+00  0.59426385842E+02 -0.41099657989E+02  0.72408456220E+02  0.47000000000E+01 0. -1.
         -5    1    3    3    0  502 -0.34339655015E+02 -0.59447292650E+02 -0.24930149460E+02  0.73190128173E+02  0.47000000000E+01 0. -1.
        -11    1    4    4    0    0  0.12778739741E+02  0.41726757775E+02 -0.15298469689E+02  0.46243504178E+02  0.00000000000E+00 0.  1.
         11    1    4    4    0    0  0.22027081628E+02 -0.41705850968E+02 -0.57149019306E+02  0.74098453005E+02  0.00000000000E+00 0. -1.
<mgrwt>
<rscale>  0 0.12037597E+03</rscale>
<asrwt>0</asrwt>
<pdfrwt beam="2">  1        2 0.31109064E-01 0.12976522E+03</pdfrwt>
<pdfrwt beam="1">  1       -2 0.98048651E-02 0.12976522E+03</pdfrwt>
<totfact> 0.10823533E+04</totfact>
</mgrwt>
</event>
<event>
 8    1  0.8504141E-006  0.3130070E+03  0.7546771E-02  0.1080413E+00
         -2   -1    0    0    0  501 -0.00000000000E+00  0.00000000000E+00  0.55933679878E+02  0.55933679878E+02  0.00000000000E+00 0.  1.
          2   -1    0    0  501    0  0.00000000000E+00 -0.00000000000E+00 -0.17048799603E+04  0.17048799603E+04  0.00000000000E+00 0. -1.
         23    2    1    2    0    0  0.17660294270E+03  0.22618182385E+03 -0.74093300865E+03  0.80433517955E+03  0.12500616361E+03 0.  0.
         23    2    1    2    0    0 -0.17660294270E+03 -0.22618182385E+03 -0.90801327177E+03  0.95647846063E+03  0.89532827096E+02 0.  0.
          5    1    3    3  502    0  0.17543154185E+03  0.20971860660E+03 -0.56638180016E+03  0.62894240864E+03  0.47000000000E+01 0. -1.
         -5    1    3    3    0  502  0.11714008471E+01  0.16463217253E+02 -0.17455120849E+03  0.17539277091E+03  0.47000000000E+01 0. -1.
        -11    1    4    4    0    0 -0.99216299731E+02 -0.13047312529E+03 -0.37191993383E+03  0.40643763081E+03  0.00000000000E+00 0. -1.
         11    1    4    4    0    0 -0.77386642965E+02 -0.95708698563E+02 -0.53609333793E+03  0.55004082982E+03  0.00000000000E+00 0.  1.
<mgrwt>
<rscale>  0 0.30985913E+03</rscale>
<asrwt>0</asrwt>
<pdfrwt beam="2">  1        2 0.26228927E+00 0.31300696E+03</pdfrwt>
<pdfrwt beam="1">  1       -2 0.86051801E-02 0.31300696E+03</pdfrwt>
<totfact> 0.89243015E+02</totfact>
</mgrwt>
</event>
<event>
 8    1  0.8504141E-006  0.1433420E+03  0.7546771E-02  0.1214500E+00
          1   -1    0    0  501    0  0.00000000000E+00  0.00000000000E+00  0.19775803959E+03  0.19775803959E+03  0.00000000000E+00 0. -1.
         -1   -1    0    0    0  501 -0.00000000000E+00 -0.00000000000E+00 -0.10074398733E+03  0.10074398733E+03  0.00000000000E+00 0.  1.
         23    2    1    2    0    0  0.38369829319E+01  0.86164289117E+02  0.86675280989E+01  0.14360380153E+03  0.11448981882E+03 0.  0.
         23    2    1    2    0    0 -0.38369829319E+01 -0.86164289117E+02  0.88346524164E+02  0.15489822539E+03  0.93537932089E+02 0.  0.
          5    1    3    3  502    0 -0.14204667641E+02 -0.22307647768E+02 -0.15369685006E+02  0.30947066887E+02  0.47000000000E+01 0. -1.
         -5    1    3    3    0  502  0.18041650573E+02  0.10847193689E+03  0.24037213105E+02  0.11265673464E+03  0.47000000000E+01 0.  1.
        -11    1    4    4    0    0 -0.60817234683E+01 -0.66771427626E+02  0.27505833361E+01  0.67104222045E+02  0.00000000000E+00 0.  1.
         11    1    4    4    0    0  0.22447405363E+01 -0.19392861491E+02  0.85595940828E+02  0.87794003344E+02  0.00000000000E+00 0. -1.
<mgrwt>
<rscale>  0 0.13913308E+03</rscale>
<asrwt>0</asrwt>
<pdfrwt beam="1">  1        1 0.30424314E-01 0.14334199E+03</pdfrwt>
<pdfrwt beam="2">  1       -1 0.15499075E-01 0.14334199E+03</pdfrwt>
<totfact> 0.43659978E+03</totfact>
</mgrwt>
</event>
<event>
 8    1  0.8504141E-006  0.1267383E+03  0.7546771E-02  0.1245632E+00
         -2   -1    0    0    0  501 -0.00000000000E+00  0.00000000000E+00  0.14858665471E+03  0.14858665471E+03  0.00000000000E+00 0.  1.
          2   -1    0    0  501    0  0.00000000000E+00 -0.00000000000E+00 -0.11720622943E+03  0.11720622943E+03  0.00000000000E+00 0. -1.
         23    2    1    2    0    0  0.20796012496E+02 -0.20672550372E+01  0.87412034216E+02  0.15395930716E+03  0.12500342738E+03 0.  0.
         23    2    1    2    0    0 -0.20796012496E+02  0.20672550372E+01 -0.56031608941E+02  0.11183357698E+03  0.94501111425E+02 0.  0.
          5    1    3    3  502    0 -0.28817088136E+02 -0.47708948048E+02  0.56979206463E+02  0.79845402258E+02  0.47000000000E+01 0.  1.
         -5    1    3    3    0  502  0.49613100632E+02  0.45641693011E+02  0.30432827753E+02  0.74113904905E+02  0.47000000000E+01 0.  1.
        -11    1    4    4    0    0  0.31274143477E+02 -0.17960177658E+02 -0.39847963405E+02  0.53744769226E+02  0.00000000000E+00 0. -1.
         11    1    4    4    0    0 -0.52070155973E+02  0.20027432695E+02 -0.16183645536E+02  0.58088807753E+02  0.00000000000E+00 0.  1.
<mgrwt>
<rscale>  0 0.11847651E+03</rscale>
<asrwt>0</asrwt>
<pdfrwt beam="2">  1        2 0.18031727E-01 0.12673833E+03</pdfrwt>
<pdfrwt beam="1">  1       -2 0.22859485E-01 0.12673833E+03</pdfrwt>
<totfact> 0.49530376E+03</totfact>
</mgrwt>
</event>
<event>
 8    1  0.8504141E-006  0.1285567E+03  0.7546771E-02  0.1243469E+00
          1   -1    0    0  501    0  0.00000000000E+00  0.00000000000E+00  0.10960022620E+03  0.10960022620E+03  0.00000000000E+00 0. -1.
         -1   -1    0    0    0  501 -0.00000000000E+00 -0.00000000000E+00 -0.16668401459E+03  0.16668401459E+03  0.00000000000E+00 0.  1.
         23    2    1    2    0    0  0.80351865989E+01 -0.28687939103E+02 -0.10704811889E+03  0.16729056103E+03  0.12505706688E+03 0.  0.
         23    2    1    2    0    0 -0.80351865989E+01  0.28687939103E+02  0.49964330504E+02  0.10899367976E+03  0.92171719264E+02 0.  0.
          5    1    3    3  502    0  0.17613082826E+02  0.14024997306E+02 -0.11937626842E+03  0.12157180882E+03  0.47000000000E+01 0.  1.
         -5    1    3    3    0  502 -0.95778962267E+01 -0.42712936408E+02  0.12328149534E+02  0.45718752211E+02  0.47000000000E+01 0.  1.
        -11    1    4    4    0    0 -0.23280576834E+02  0.39228836428E+02  0.68812348548E+02  0.82559228303E+02  0.00000000000E+00 0. -1.
         11    1    4    4    0    0  0.15245390236E+02 -0.10540897325E+02 -0.18848018044E+02  0.26434451461E+02  0.00000000000E+00 0.  1.
<mgrwt>
<rscale>  0 0.11977465E+03</rscale>
<asrwt>0</asrwt>
<pdfrwt beam="1">  1        1 0.16861573E-01 0.12855673E+03</pdfrwt>
<pdfrwt beam="2">  1       -1 0.25643694E-01 0.12855673E+03</pdfrwt>
<totfact> 0.40712162E+03</totfact>
</mgrwt>
</event>
<event>
 8    1  0.8504141E-006  0.1369168E+03  0.7546771E-02  0.1228558E+00
         -1   -1    0    0    0  501 -0.00000000000E+00  0.00000000000E+00  0.16485926022E+02  0.16485926022E+02  0.00000000000E+00 0.  1.
          1   -1    0    0  501    0  0.00000000000E+00 -0.00000000000E+00 -0.96306817740E+03  0.96306817740E+03  0.00000000000E+00 0. -1.
         23    2    1    2    0    0 -0.52748280303E+02  0.18435048498E+02 -0.41645804701E+03  0.43838739470E+03  0.12499588321E+03 0.  0.
         23    2    1    2    0    0  0.52748280303E+02 -0.18435048498E+02 -0.53012420437E+03  0.54116670873E+03  0.93313999433E+02 0.  0.
          5    1    3    3  502    0 -0.38418884387E+02 -0.29908761769E+02 -0.55854358903E+02  0.74245162244E+02  0.47000000000E+01 0. -1.
         -5    1    3    3    0  502 -0.14329395915E+02  0.48343810267E+02 -0.36060368811E+03  0.36414223245E+03  0.47000000000E+01 0. -1.
        -11    1    4    4    0    0 -0.19628973572E+01 -0.46768303435E+02 -0.25036439026E+03  0.25470267977E+03  0.00000000000E+00 0.  1.
         11    1    4    4    0    0  0.54711177660E+02  0.28333254938E+02 -0.27975981411E+03  0.28646402896E+03  0.00000000000E+00 0. -1.
<mgrwt>
<rscale>  0 0.12926006E+03</rscale>
<asrwt>0</asrwt>
<pdfrwt beam="2">  1        1 0.14816435E+00 0.13691677E+03</pdfrwt>
<pdfrwt beam="1">  1       -1 0.25362960E-02 0.13691677E+03</pdfrwt>
<totfact> 0.79828171E+03</totfact>
</mgrwt>
</event>
<event>
 8    1  0.8504141E-006  0.1358626E+03  0.7546771E-02  0.1231881E+00
         -1   -1    0    0    0  501 -0.00000000000E+00  0.00000000000E+00  0.73940176940E+03  0.73940176940E+03  0.00000000000E+00 0.  1.
          1   -1    0    0  501    0  0.00000000000E+00 -0.00000000000E+00 -0.22370188699E+02  0.22370188699E+02  0.00000000000E+00 0. -1.
         23    2    1    2    0    0 -0.52607600178E+02  0.82580187509E+01  0.53672447796E+03  0.55365314613E+03  0.12499154575E+03 0.  0.
         23    2    1    2    0    0  0.52607600178E+02 -0.82580187509E+01  0.18030710274E+03  0.20811881197E+03  0.89258244021E+02 0.  0.
          5    1    3    3  502    0 -0.32622838926E+02  0.81627933426E+01  0.53134633631E+03  0.53243018315E+03  0.47000000000E+01 0. -1.
         -5    1    3    3    0  502 -0.19984761252E+02  0.95225408314E-01  0.53781416467E+01  0.21222962982E+02  0.47000000000E+01 0. -1.
        -11    1    4    4    0    0  0.44564467868E+02 -0.28311704013E+02  0.17883092512E+03  0.18646191075E+03  0.00000000000E+00 0.  1.
         11    1    4    4    0    0  0.80431323101E+01  0.20053685262E+02  0.14761776181E+01  0.21656901217E+02  0.00000000000E+00 0. -1.
<mgrwt>
<rscale>  0 0.12706235E+03</rscale>
<asrwt>0</asrwt>
<pdfrwt beam="2">  1        1 0.34415681E-02 0.13586258E+03</pdfrwt>
<pdfrwt beam="1">  1       -1 0.11375410E+00 0.13586258E+03</pdfrwt>
<totfact> 0.20446335E+03</totfact>
</mgrwt>
</event>
<event>
 8    1  0.8504141E-006  0.1609837E+03  0.7546771E-02  0.1194856E+00
         -1   -1    0    0    0  501 -0.00000000000E+00  0.00000000000E+00  0.14241373760E+03  0.14241373760E+03  0.00000000000E+00 0. -1.
          1   -1    0    0  501    0  0.00000000000E+00 -0.00000000000E+00 -0.15681143215E+03  0.15681143215E+03  0.00000000000E+00 0.  1.
         23    2    1    2    0    0  0.32488270216E+02  0.96061074806E+02  0.27170394605E+01  0.16100661183E+03  0.12503011219E+03 0.  0.
         23    2    1    2    0    0 -0.32488270216E+02 -0.96061074806E+02 -0.17114734017E+02  0.13821855793E+03  0.92348458786E+02 0.  0.
          5    1    3    3  502    0  0.67952787567E+02  0.37004122408E+02 -0.31830839853E+02  0.83798441388E+02  0.47000000000E+01 0. -1.
         -5    1    3    3    0  502 -0.35464517351E+02  0.59056952398E+02  0.34547879314E+02  0.77208170439E+02  0.47000000000E+01 0. -1.
        -11    1    4    4    0    0  0.17100809809E+02 -0.76806029456E+02  0.85592717095E+01  0.79150900115E+02  0.00000000000E+00 0. -1.
         11    1    4    4    0    0 -0.49589080025E+02 -0.19255045350E+02 -0.25674005727E+02  0.59067657810E+02  0.00000000000E+00 0.  1.
<mgrwt>
<rscale>  0 0.15466399E+03</rscale>
<asrwt>0</asrwt>
<pdfrwt beam="2">  1        1 0.24124836E-01 0.16098368E+03</pdfrwt>
<pdfrwt beam="1">  1       -1 0.21909806E-01 0.16098368E+03</pdfrwt>
<totfact> 0.33786341E+03</totfact>
</mgrwt>
</event>
<event>
 8    1  0.8504141E-006  0.1766734E+03  0.7546771E-02  0.1174964E+00
          4   -1    0    0  501    0  0.00000000000E+00  0.00000000000E+00  0.85129102786E+02  0.85129102786E+02  0.00000000000E+00 0. -1.
         -4   -1    0    0    0  501 -0.00000000000E+00 -0.00000000000E+00 -0.40198515299E+03  0.40198515299E+03  0.00000000000E+00 0.  1.
         23    2    1    2    0    0 -0.33576154785E+02 -0.12025470210E+03 -0.26277632906E+03  0.31664630783E+03  0.12499973439E+03 0.  0.
         23    2    1    2    0    0  0.33576154785E+02  0.12025470210E+03 -0.54079721143E+02  0.17046794795E+03  0.10269446670E+03 0.  0.
          5    1    3    3  502    0  0.23979775917E+02 -0.62460586434E+02 -0.20732866970E+03  0.21790736974E+03  0.47000000000E+01 0.  1.
         -5    1    3    3    0  502 -0.57555930702E+02 -0.57794115670E+02 -0.55447659365E+02  0.98738938085E+02  0.47000000000E+01 0.  1.
        -11    1    4    4    0    0  0.11242614652E+02  0.78109850434E+02  0.20870670592E+02  0.81627997709E+02  0.00000000000E+00 0.  1.
         11    1    4    4    0    0  0.22333540133E+02  0.42144851670E+02 -0.74950391735E+02  0.88839950239E+02  0.00000000000E+00 0. -1.
<mgrwt>
<rscale>  0 0.17279475E+03</rscale>
<asrwt>0</asrwt>
<pdfrwt beam="1">  1        4 0.13096785E-01 0.17667339E+03</pdfrwt>
<pdfrwt beam="2">  1       -4 0.61843870E-01 0.17667339E+03</pdfrwt>
<totfact> 0.20738817E+02</totfact>
</mgrwt>
</event>
<event>
 8    1  0.8504141E-006  0.1261693E+03  0.7546771E-02  0.1248158E+00
         -3   -1    0    0    0  501 -0.00000000000E+00  0.00000000000E+00  0.77698160034E+02  0.77698160034E+02  0.00000000000E+00 0.  1.
          3   -1    0    0  501    0  0.00000000000E+00 -0.00000000000E+00 -0.21108147958E+03  0.21108147958E+03  0.00000000000E+00 0. -1.
         23    2    1    2    0    0  0.60657238484E+01 -0.15660160780E+02 -0.16490366237E+00  0.12616937356E+03  0.12504659128E+03 0.  0.
         23    2    1    2    0    0 -0.60657238484E+01  0.15660160780E+02 -0.13321841589E+03  0.16261026606E+03  0.91721963856E+02 0.  0.
          5    1    3    3  502    0 -0.14422285785E+02 -0.64068913808E+02  0.21294074122E+02  0.69197945320E+02  0.47000000000E+01 0.  1.
         -5    1    3    3    0  502  0.20488009633E+02  0.48408753027E+02 -0.21458977784E+02  0.56971428242E+02  0.47000000000E+01 0.  1.
        -11    1    4    4    0    0  0.26340563053E+02 -0.89670844844E+01 -0.52385385662E+01  0.28313886211E+02  0.00000000000E+00 0.  1.
         11    1    4    4    0    0 -0.32406286901E+02  0.24627245265E+02 -0.12797987732E+03  0.13429637985E+03  0.00000000000E+00 0. -1.
<mgrwt>
<rscale>  0 0.11698322E+03</rscale>
<asrwt>0</asrwt>
<pdfrwt beam="2">  1        3 0.32474074E-01 0.12616927E+03</pdfrwt>
<pdfrwt beam="1">  1       -3 0.11953563E-01 0.12616927E+03</pdfrwt>
<totfact> 0.11517656E+03</totfact>
</mgrwt>
</event>
<event>
 8    1  0.8504141E-006  0.1482774E+03  0.7546771E-02  0.1214212E+00
         -2   -1    0    0    0  501 -0.00000000000E+00  0.00000000000E+00  0.10962967514E+04  0.10962967514E+04  0.00000000000E+00 0.  1.
          2   -1    0    0  501    0  0.00000000000E+00 -0.00000000000E+00 -0.16737590817E+02  0.16737590817E+02  0.00000000000E+00 0. -1.
         23    2    1    2    0    0 -0.76311491376E+02  0.23181708424E+02  0.72779670790E+03  0.74274776045E+03  0.12500140918E+03 0.  0.
         23    2    1    2    0    0  0.76311491376E+02 -0.23181708424E+02  0.35176245266E+03  0.37028658175E+03  0.83752577267E+02 0.  0.
          5    1    3    3  502    0 -0.78846878724E+02  0.40335139287E+02  0.71550274828E+03  0.72097852016E+03  0.47000000000E+01 0.  1.
         -5    1    3    3    0  502  0.25353873477E+01 -0.17153430863E+02  0.12293959627E+02  0.21769240287E+02  0.47000000000E+01 0.  1.
        -11    1    4    4    0    0  0.74430387271E+02 -0.25249724279E+01  0.33621505750E+03  0.34436437523E+03  0.00000000000E+00 0.  1.
         11    1    4    4    0    0  0.18811041052E+01 -0.20656735996E+02  0.15547395162E+02  0.25922206522E+02  0.00000000000E+00 0. -1.
<mgrwt>
<rscale>  0 0.13934593E+03</rscale>
<asrwt>0</asrwt>
<pdfrwt beam="2">  1        2 0.25750148E-02 0.14827740E+03</pdfrwt>
<pdfrwt beam="1">  1       -2 0.16866098E+00 0.14827740E+03</pdfrwt>
<totfact> 0.87498301E+02</totfact>
</mgrwt>
</event>
<event>
 8    1  0.8504141E-006  0.2764534E+03  0.7546771E-02  0.1099592E+00
         -1   -1    0    0    0  501 -0.00000000000E+00  0.00000000000E+00  0.16075468665E+03  0.16075468665E+03  0.00000000000E+00 0.  1.
          1   -1    0    0  501    0  0.00000000000E+00 -0.00000000000E+00 -0.45245488131E+03  0.45245488131E+03  0.00000000000E+00 0. -1.
         23    2    1    2    0    0  0.23948031849E+03  0.58739550731E+02 -0.15679657950E+03  0.31782331560E+03  0.12500133932E+03 0.  0.
         23    2    1    2    0    0 -0.23948031849E+03 -0.58739550731E+02 -0.13490361516E+03  0.29538625235E+03  0.90845445312E+02 0.  0.
          5    1    3    3  502    0  0.17021695021E+03 -0.11561675238E+02 -0.64007351795E+02  0.18228141309E+03  0.47000000000E+01 0. -1.
         -5    1    3    3    0  502  0.69263368276E+02  0.70301225969E+02 -0.92789227706E+02  0.13554190251E+03  0.47000000000E+01 0. -1.
        -11    1    4    4    0    0 -0.61133576619E+02  0.56571166918E+01 -0.74163824995E+02  0.96278710510E+02  0.00000000000E+00 0. -1.
         11    1    4    4    0    0 -0.17834674187E+03 -0.64396667423E+02 -0.60739790166E+02  0.19910754184E+03  0.00000000000E+00 0.  1.
<mgrwt>
<rscale>  0 0.27297013E+03</rscale>
<asrwt>0</asrwt>
<pdfrwt beam="2">  1        1 0.69608442E-01 0.27645342E+03</pdfrwt>
<pdfrwt beam="1">  1       -1 0.24731491E-01 0.27645342E+03</pdfrwt>
<totfact> 0.73365901E+02</totfact>
</mgrwt>
</event>
<event>
 8    1  0.8504141E-006  0.2073858E+03  0.7546771E-02  0.1147548E+00
         -2   -1    0    0    0  501 -0.00000000000E+00  0.00000000000E+00  0.65615921418E+02  0.65615921418E+02  0.00000000000E+00 0.  1.
          2   -1    0    0  501    0  0.00000000000E+00 -0.00000000000E+00 -0.66735073198E+03  0.66735073198E+03  0.00000000000E+00 0. -1.
         23    2    1    2    0    0  0.96097527365E+02 -0.13471594963E+03 -0.19583980426E+03  0.28524045403E+03  0.12500306330E+03 0.  0.
         23    2    1    2    0    0 -0.96097527365E+02  0.13471594963E+03 -0.40589500631E+03  0.44772619937E+03  0.91240734374E+02 0.  0.
          5    1    3    3  502    0  0.69602385428E+02 -0.38858282535E+02 -0.18662364567E+02  0.82005073197E+02  0.47000000000E+01 0.  1.
         -5    1    3    3    0  502  0.26495141937E+02 -0.95857667091E+02 -0.17717743969E+03  0.20323538083E+03  0.47000000000E+01 0.  1.
        -11    1    4    4    0    0 -0.80207478497E+01  0.48949739766E+02 -0.46897303087E+02  0.68262482054E+02  0.00000000000E+00 0.  1.
         11    1    4    4    0    0 -0.88076779515E+02  0.85766209860E+02 -0.35899770322E+03  0.37946371732E+03  0.00000000000E+00 0. -1.
<mgrwt>
<rscale>  0 0.20261893E+03</rscale>
<asrwt>0</asrwt>
<pdfrwt beam="2">  1        2 0.10266934E+00 0.20738584E+03</pdfrwt>
<pdfrwt beam="1">  1       -2 0.10094757E-01 0.20738584E+03</pdfrwt>
<totfact> 0.28794607E+03</totfact>
</mgrwt>
</event>
<event>
 7    1  0.8504141E-006  0.4006512E+03  0.7546771E-02  0.1043554E+00
          2   -1    0    0  501    0  0.00000000000E+00  0.00000000000E+00  0.11036609500E+04  0.11036609500E+04  0.00000000000E+00 0. -1.
         -2   -1    0    0    0  501 -0.00000000000E+00 -0.00000000000E+00 -0.36361126865E+02  0.36361126865E+02  0.00000000000E+00 0.  1.
         23    2    1    2    0    0 -0.12399486362E+03 -0.17777510463E+02  0.50191078467E+03  0.52520963376E+03  0.90774211877E+02 0.  0.
          5    1    1    2  502    0  0.14289884561E+03  0.83848357381E+02  0.32609343740E+03  0.36580000960E+03  0.47000000000E+01 0. -1.
         -5    1    1    2    0  502 -0.18903981990E+02 -0.66070846918E+02  0.23929560104E+03  0.24901243347E+03  0.47000000000E+01 0.  1.
        -11    1    3    3    0    0 -0.10826649897E+03  0.19391689045E+02  0.30554358243E+03  0.32473766823E+03  0.00000000000E+00 0. -1.
         11    1    3    3    0    0 -0.15728364647E+02 -0.37169199508E+02  0.19636720225E+03  0.20047196554E+03  0.00000000000E+00 0.  1.
<mgrwt>
<rscale>  0 0.40065125E+03</rscale>
<asrwt>0</asrwt>
<pdfrwt beam="1">  1        2 0.16979397E+00 0.40065125E+03</pdfrwt>
<pdfrwt beam="2">  1       -2 0.55940204E-02 0.40065125E+03</pdfrwt>
<totfact> 0.37615923E+03</totfact>
</mgrwt>
</event>
<event>
 8    1  0.8504141E-006  0.1199446E+03  0.7546771E-02  0.1255415E+00
         -1   -1    0    0    0  501 -0.00000000000E+00  0.00000000000E+00  0.23484435008E+03  0.23484435008E+03  0.00000000000E+00 0.  1.
          1   -1    0    0  501    0  0.00000000000E+00 -0.00000000000E+00 -0.75781248280E+02  0.75781248280E+02  0.00000000000E+00 0. -1.
         23    2    1    2    0    0 -0.44484374699E+02 -0.22310084741E+01  0.17816631344E+03  0.21477881569E+03  0.11136816168E+03 0.  0.
         23    2    1    2    0    0  0.44484374699E+02  0.22310084741E+01 -0.19103211639E+02  0.95846782664E+02  0.82691209091E+02 0.  0.
          5    1    3    3  502    0  0.32178554027E+02  0.20053519507E+02  0.75720837224E+02  0.84813549470E+02  0.47000000000E+01 0. -1.
         -5    1    3    3    0  502 -0.76662928725E+02 -0.22284527981E+02  0.10244547621E+03  0.12996526622E+03  0.47000000000E+01 0.  1.
        -11    1    4    4    0    0 -0.18968227707E+02  0.12336074125E+01  0.14621893201E+02  0.23981559799E+02  0.00000000000E+00 0.  1.
         11    1    4    4    0    0  0.63452602406E+02  0.99740106158E+00 -0.33725104841E+02  0.71865222865E+02  0.00000000000E+00 0. -1.
<mgrwt>
<rscale>  0 0.11283124E+03</rscale>
<asrwt>0</asrwt>
<pdfrwt beam="2">  1        1 0.11658654E-01 0.11994459E+03</pdfrwt>
<pdfrwt beam="1">  1       -1 0.36129900E-01 0.11994459E+03</pdfrwt>
<totfact> 0.36771154E+03</totfact>
</mgrwt>
</event>
<event>
 8    1  0.8504141E-006  0.1351501E+03  0.7546771E-02  0.1234298E+00
          2   -1    0    0  501    0  0.00000000000E+00  0.00000000000E+00  0.30725529796E+03  0.30725529796E+03  0.00000000000E+00 0. -1.
         -2   -1    0    0    0  501 -0.00000000000E+00 -0.00000000000E+00 -0.45917748624E+02  0.45917748624E+02  0.00000000000E+00 0.  1.
         23    2    1    2    0    0 -0.49320913578E+01 -0.51148695306E+02  0.12734408766E+03  0.18569348872E+03  0.12500016214E+03 0.  0.
         23    2    1    2    0    0  0.49320913578E+01  0.51148695306E+02  0.13399346167E+03  0.16747955786E+03  0.86340256972E+02 0.  0.
          5    1    3    3  502    0  0.73532128952E+01  0.33157224085E+02  0.23687264220E+01  0.34368184616E+02  0.47000000000E+01 0. -1.
         -5    1    3    3    0  502 -0.12285304253E+02 -0.84305919391E+02  0.12497536124E+03  0.15132530411E+03  0.47000000000E+01 0. -1.
        -11    1    4    4    0    0  0.18237779999E+01 -0.17375920214E+02  0.74992617921E+02  0.77000918905E+02  0.00000000000E+00 0. -1.
         11    1    4    4    0    0  0.31083133580E+01  0.68524615520E+02  0.59000843749E+02  0.90478638955E+02  0.00000000000E+00 0.  1.
<mgrwt>
<rscale>  0 0.12549501E+03</rscale>
<asrwt>0</asrwt>
<pdfrwt beam="1">  1        2 0.47270044E-01 0.13515012E+03</pdfrwt>
<pdfrwt beam="2">  1       -2 0.70642692E-02 0.13515012E+03</pdfrwt>
<totfact> 0.11548822E+04</totfact>
</mgrwt>
</event>
<event>
 8    1  0.8504141E-006  0.1401737E+03  0.7546771E-02  0.1224594E+00
         -2   -1    0    0    0  501 -0.00000000000E+00  0.00000000000E+00  0.51569765041E+02  0.51569765041E+02  0.00000000000E+00 0.  1.
          2   -1    0    0  501    0  0.00000000000E+00 -0.00000000000E+00 -0.34014480714E+03  0.34014480714E+03  0.00000000000E+00 0. -1.
         23    2    1    2    0    0  0.27926224854E+02 -0.56956706242E+02 -0.95954481507E+02  0.16987028904E+03  0.12499884863E+03 0.  0.
         23    2    1    2    0    0 -0.27926224854E+02  0.56956706242E+02 -0.19262056060E+03  0.22184428314E+03  0.89934782911E+02 0.  0.
          5    1    3    3  502    0 -0.43196955862E+02 -0.38656221892E+02 -0.71839205814E+02  0.92429659627E+02  0.47000000000E+01 0. -1.
         -5    1    3    3    0  502  0.71123180716E+02 -0.18300484350E+02 -0.24115275692E+02  0.77440629416E+02  0.47000000000E+01 0. -1.
        -11    1    4    4    0    0  0.12847352245E+02  0.30700313561E+02 -0.15993669120E+03  0.16336250765E+03  0.00000000000E+00 0. -1.
         11    1    4    4    0    0 -0.40773577099E+02  0.26256392681E+02 -0.32683869392E+02  0.58481775490E+02  0.00000000000E+00 0.  1.
<mgrwt>
<rscale>  0 0.13194796E+03</rscale>
<asrwt>0</asrwt>
<pdfrwt beam="2">  1        2 0.52329969E-01 0.14017365E+03</pdfrwt>
<pdfrwt beam="1">  1       -2 0.79338101E-02 0.14017365E+03</pdfrwt>
<totfact> 0.86958859E+03</totfact>
</mgrwt>
</event>
<event>
 8    1  0.8504141E-006  0.1495405E+03  0.7546771E-02  0.1211257E+00
          2   -1    0    0  501    0  0.00000000000E+00  0.00000000000E+00  0.12045610809E+04  0.12045610809E+04  0.00000000000E+00 0.  1.
         -2   -1    0    0    0  501 -0.00000000000E+00 -0.00000000000E+00 -0.15142039773E+02  0.15142039773E+02  0.00000000000E+00 0. -1.
         23    2    1    2    0    0 -0.80009046568E+02 -0.18326679454E+02  0.62216602792E+03  0.63988509944E+03  0.12500023791E+03 0.  0.
         23    2    1    2    0    0  0.80009046568E+02  0.18326679454E+02  0.56725301323E+03  0.57981802125E+03  0.87610741583E+02 0.  0.
          5    1    3    3  502    0 -0.97348935415E+02  0.26688325166E+02  0.42565420890E+03  0.43748448827E+03  0.47000000000E+01 0.  1.
         -5    1    3    3    0  502  0.17339888847E+02 -0.45015004620E+02  0.19651181902E+03  0.20240061117E+03  0.47000000000E+01 0.  1.
        -11    1    4    4    0    0 -0.12039503958E+02  0.12787707645E+02  0.30451855016E+02  0.35153813396E+02  0.00000000000E+00 0.  1.
         11    1    4    4    0    0  0.92048550526E+02  0.55389718090E+01  0.53680115821E+03  0.54466420785E+03  0.00000000000E+00 0. -1.
<mgrwt>
<rscale>  0 0.14155113E+03</rscale>
<asrwt>0</asrwt>
<pdfrwt beam="1">  1        2 0.18531701E+00 0.14954054E+03</pdfrwt>
<pdfrwt beam="2">  1       -2 0.23295455E-02 0.14954054E+03</pdfrwt>
<totfact> 0.11904733E+04</totfact>
</mgrwt>
</event>
<event>
 8    1  0.8504141E-006  0.1520336E+03  0.7546771E-02  0.1206634E+00
          1   -1    0    0  501    0  0.00000000000E+00  0.00000000000E+00  0.66548726561E+03  0.66548726561E+03  0.00000000000E+00 0. -1.
         -1   -1    0    0    0  501 -0.00000000000E+00 -0.00000000000E+00 -0.35154606164E+02  0.35154606164E+02  0.00000000000E+00 0.  1.
         23    2    1    2    0    0  0.78735687932E+02  0.35966573990E+02  0.19416028836E+03  0.24660176106E+03  0.12498523106E+03 0.  0.
         23    2    1    2    0    0 -0.78735687932E+02 -0.35966573990E+02  0.43617237108E+03  0.45404011071E+03  0.91723398555E+02 0.  0.
          5    1    3    3  502    0  0.12927494169E+02  0.33173067137E+02  0.17384067937E+03  0.17751125118E+03  0.47000000000E+01 0.  1.
         -5    1    3    3    0  502  0.65808193762E+02  0.27935068534E+01  0.20319608991E+02  0.69090509886E+02  0.47000000000E+01 0.  1.
        -11    1    4    4    0    0  0.29946673482E+01  0.24223885868E+02  0.95324672345E+02  0.98399989008E+02  0.00000000000E+00 0.  1.
         11    1    4    4    0    0 -0.81730355280E+02 -0.60190459859E+02  0.34084769873E+03  0.35564012170E+03  0.00000000000E+00 0. -1.
<mgrwt>
<rscale>  0 0.14509420E+03</rscale>
<asrwt>0</asrwt>
<pdfrwt beam="1">  1        1 0.10238265E+00 0.15203359E+03</pdfrwt>
<pdfrwt beam="2">  1       -1 0.54084014E-02 0.15203359E+03</pdfrwt>
<totfact> 0.46258347E+03</totfact>
</mgrwt>
</event>
<event>
 8    1  0.8504141E-006  0.2437698E+03  0.7546771E-02  0.1120097E+00
          1   -1    0    0  501    0  0.00000000000E+00  0.00000000000E+00  0.11468815348E+04  0.11468815348E+04  0.00000000000E+00 0. -1.
         -1   -1    0    0    0  501 -0.00000000000E+00 -0.00000000000E+00 -0.49129579488E+02  0.49129579488E+02  0.00000000000E+00 0.  1.
         23    2    1    2    0    0 -0.16701145124E+03  0.12611779677E+03  0.49357735181E+03  0.55049280733E+03  0.12500082075E+03 0.  0.
         23    2    1    2    0    0  0.16701145124E+03 -0.12611779677E+03  0.60417460350E+03  0.64551830696E+03  0.88704056281E+02 0.  0.
          5    1    3    3  502    0 -0.14268769845E+03  0.56453602183E+02  0.41553230701E+03  0.44298530072E+03  0.47000000000E+01 0.  1.
         -5    1    3    3    0  502 -0.24323752789E+02  0.69664194591E+02  0.78045044805E+02  0.10750750660E+03  0.47000000000E+01 0.  1.
        -11    1    4    4    0    0  0.11768947801E+03 -0.75880194010E+02  0.50391343122E+03  0.52300799539E+03  0.00000000000E+00 0. -1.
         11    1    4    4    0    0  0.49321973231E+02 -0.50237602764E+02  0.10026117228E+03  0.12251031157E+03  0.00000000000E+00 0.  1.
<mgrwt>
<rscale>  0 0.23954469E+03</rscale>
<asrwt>0</asrwt>
<pdfrwt beam="1">  1        1 0.17644329E+00 0.24376983E+03</pdfrwt>
<pdfrwt beam="2">  1       -1 0.75583977E-02 0.24376983E+03</pdfrwt>
<totfact> 0.11748873E+03</totfact>
</mgrwt>
</event>
<event>
 8    1  0.8504141E-006  0.1324221E+03  0.7546771E-02  0.1236241E+00
          2   -1    0    0  501    0  0.00000000000E+00  0.00000000000E+00  0.32649675003E+03  0.32649675003E+03  0.00000000000E+00 0.  1.
         -2   -1    0    0    0  501 -0.00000000000E+00 -0.00000000000E+00 -0.64778293863E+02  0.64778293863E+02  0.00000000000E+00 0. -1.
         23    2    1    2    0    0 -0.43234144324E+02  0.64869144312E+01  0.27075330524E+02  0.13516167557E+03  0.12499733487E+03 0.  0.
         23    2    1    2    0    0  0.43234144324E+02 -0.64869144312E+01  0.23464312565E+03  0.25611336833E+03  0.92872976307E+02 0.  0.
          5    1    3    3  502    0 -0.66474307586E+02 -0.36610754244E+02  0.37654090299E+02  0.84847518594E+02  0.47000000000E+01 0. -1.
         -5    1    3    3    0  502  0.23240163262E+02  0.43097668675E+02 -0.10578759775E+02  0.50314156975E+02  0.47000000000E+01 0. -1.
        -11    1    4    4    0    0  0.15672351878E+02 -0.46021291825E+02  0.75207518586E+02  0.89553072345E+02  0.00000000000E+00 0. -1.
         11    1    4    4    0    0  0.27561792446E+02  0.39534377393E+02  0.15943560706E+03  0.16656029598E+03  0.00000000000E+00 0.  1.
<mgrwt>
<rscale>  0 0.12425337E+03</rscale>
<asrwt>0</asrwt>
<pdfrwt beam="1">  1        2 0.50230268E-01 0.13242207E+03</pdfrwt>
<pdfrwt beam="2">  1       -2 0.99658915E-02 0.13242207E+03</pdfrwt>
<totfact> 0.63445556E+03</totfact>
</mgrwt>
</event>
<event>
 8    1  0.8504141E-006  0.1675564E+03  0.7546771E-02  0.1188130E+00
         -1   -1    0    0    0  501 -0.00000000000E+00  0.00000000000E+00  0.45003369090E+02  0.45003369090E+02  0.00000000000E+00 0.  1.
          1   -1    0    0  501    0  0.00000000000E+00 -0.00000000000E+00 -0.55249499880E+03  0.55249499880E+03  0.00000000000E+00 0. -1.
         23    2    1    2    0    0  0.11137649863E+03 -0.67797519860E+01 -0.21339504072E+03  0.27131640301E+03  0.12499783059E+03 0.  0.
         23    2    1    2    0    0 -0.11137649863E+03  0.67797519860E+01 -0.29409658899E+03  0.32618196489E+03  0.86320224040E+02 0.  0.
          5    1    3    3  502    0  0.48705174096E+02 -0.63222174104E+02 -0.12999341913E+03  0.15260935849E+03  0.47000000000E+01 0.  1.
         -5    1    3    3    0  502  0.62671324530E+02  0.56442422118E+02 -0.83401621593E+02  0.11870704451E+03  0.47000000000E+01 0.  1.
        -11    1    4    4    0    0 -0.86237176427E+02 -0.20117925666E+02 -0.12540001952E+03  0.15351464564E+03  0.00000000000E+00 0.  1.
         11    1    4    4    0    0 -0.25139322200E+02  0.26897677652E+02 -0.16869656947E+03  0.17266731925E+03  0.00000000000E+00 0. -1.
<mgrwt>
<rscale>  0 0.16050276E+03</rscale>
<asrwt>0</asrwt>
<pdfrwt beam="2">  1        1 0.84999235E-01 0.16755640E+03</pdfrwt>
<pdfrwt beam="1">  1       -1 0.69235949E-02 0.16755640E+03</pdfrwt>
<totfact> 0.41447022E+03</totfact>
</mgrwt>
</event>
<event>
 8    1  0.8504141E-006  0.1505907E+03  0.7546771E-02  0.1208984E+00
          1   -1    0    0  501    0  0.00000000000E+00  0.00000000000E+00  0.68332672517E+02  0.68332672517E+02  0.00000000000E+00 0. -1.
         -1   -1    0    0    0  501 -0.00000000000E+00 -0.00000000000E+00 -0.28062628505E+03  0.28062628505E+03  0.00000000000E+00 0.  1.
         23    2    1    2    0    0 -0.49378307994E+02  0.67940123092E+02 -0.14176653837E+03  0.20682193142E+03  0.12499392901E+03 0.  0.
         23    2    1    2    0    0  0.49378307994E+02 -0.67940123092E+02 -0.70527074158E+02  0.14213702614E+03  0.90414536360E+02 0.  0.
          5    1    3    3  502    0 -0.72024190662E+01  0.80290101440E+02 -0.29161499592E+02  0.85853702821E+02  0.47000000000E+01 0. -1.
         -5    1    3    3    0  502 -0.42175888927E+02 -0.12349978348E+02 -0.11260503878E+03  0.12096822860E+03  0.47000000000E+01 0. -1.
        -11    1    4    4    0    0  0.49713571503E+02 -0.85564168622E+02 -0.39696566384E+02  0.10662309096E+03  0.00000000000E+00 0. -1.
         11    1    4    4    0    0 -0.33526350936E+00  0.17624045529E+02 -0.30830507774E+02  0.35513935181E+02  0.00000000000E+00 0.  1.
<mgrwt>
<rscale>  0 0.14327884E+03</rscale>
<asrwt>0</asrwt>
<pdfrwt beam="1">  1        1 0.10512719E-01 0.15059070E+03</pdfrwt>
<pdfrwt beam="2">  1       -1 0.43173274E-01 0.15059070E+03</pdfrwt>
<totfact> 0.31257995E+03</totfact>
</mgrwt>
</event>
<event>
 8    1  0.8504141E-006  0.1327393E+03  0.7546771E-02  0.1242026E+00
         -2   -1    0    0    0  501 -0.00000000000E+00  0.00000000000E+00  0.10544430570E+03  0.10544430570E+03  0.00000000000E+00 0. -1.
          2   -1    0    0  501    0  0.00000000000E+00 -0.00000000000E+00 -0.13641403133E+03  0.13641403133E+03  0.00000000000E+00 0.  1.
         23    2    1    2    0    0  0.31425236768E+02  0.30567262345E+02  0.25407391248E+02  0.13514902478E+03  0.12529094275E+03 0.  0.
         23    2    1    2    0    0 -0.31425236768E+02 -0.30567262345E+02 -0.56377116871E+02  0.10670931225E+03  0.79288050682E+02 0.  0.
          5    1    3    3  502    0 -0.38447792829E+01 -0.29449932144E+02  0.52337344659E+02  0.60360322042E+02  0.47000000000E+01 0.  1.
         -5    1    3    3    0  502  0.35270016051E+02  0.60017194488E+02 -0.26929953411E+02  0.74788702738E+02  0.47000000000E+01 0.  1.
        -11    1    4    4    0    0 -0.21181132313E+02 -0.14555767356E+02 -0.75495230701E+02  0.79749862621E+02  0.00000000000E+00 0.  1.
         11    1    4    4    0    0 -0.10244104455E+02 -0.16011494989E+02  0.19118113830E+02  0.26959449629E+02  0.00000000000E+00 0. -1.
<mgrwt>
<rscale>  0 0.12065147E+03</rscale>
<asrwt>0</asrwt>
<pdfrwt beam="2">  1        2 0.20986774E-01 0.13273931E+03</pdfrwt>
<pdfrwt beam="1">  1       -2 0.16222201E-01 0.13273931E+03</pdfrwt>
<totfact> 0.74521076E+03</totfact>
</mgrwt>
</event>
<event>
 8    1  0.8504141E-006  0.1292204E+03  0.7546771E-02  0.1250587E+00
         -2   -1    0    0    0  501 -0.00000000000E+00  0.00000000000E+00  0.16576258927E+02  0.16576258927E+02  0.00000000000E+00 0.  1.
          2   -1    0    0  501    0  0.00000000000E+00 -0.00000000000E+00 -0.67766744556E+03  0.67766744556E+03  0.00000000000E+00 0. -1.
         23    2    1    2    0    0  0.24346770928E+02  0.21958554916E+02 -0.39424729560E+03  0.41488412420E+03  0.12499185187E+03 0.  0.
         23    2    1    2    0    0 -0.24346770928E+02 -0.21958554916E+02 -0.26684389104E+03  0.27935958029E+03  0.75902368402E+02 0.  0.
          5    1    3    3  502    0 -0.65736038541E+01 -0.10522800939E+02  0.41821984998E+01  0.13911232566E+02  0.47000000000E+01 0.  1.
         -5    1    3    3    0  502  0.30920374782E+02  0.32481355854E+02 -0.39842949410E+03  0.40097289163E+03  0.47000000000E+01 0.  1.
        -11    1    4    4    0    0 -0.25054977512E+02  0.21445882676E+02 -0.17088484636E+03  0.17403823861E+03  0.00000000000E+00 0.  1.
         11    1    4    4    0    0  0.70820658420E+00 -0.43404437592E+02 -0.95959044679E+02  0.10532134169E+03  0.00000000000E+00 0. -1.
<mgrwt>
<rscale>  0 0.11557114E+03</rscale>
<asrwt>0</asrwt>
<pdfrwt beam="2">  1        2 0.10425653E+00 0.12922038E+03</pdfrwt>
<pdfrwt beam="1">  1       -2 0.25501936E-02 0.12922038E+03</pdfrwt>
<totfact> 0.22132225E+04</totfact>
</mgrwt>
</event>
<event>
 8    1  0.8504141E-006  0.1998828E+03  0.7546771E-02  0.1153985E+00
         -1   -1    0    0    0  501 -0.00000000000E+00  0.00000000000E+00  0.41510351415E+02  0.41510351415E+02  0.00000000000E+00 0.  1.
          1   -1    0    0  501    0  0.00000000000E+00 -0.00000000000E+00 -0.90215432092E+03  0.90215432092E+03  0.00000000000E+00 0. -1.
         23    2    1    2    0    0  0.50013111377E+02 -0.14774466836E+03 -0.53279843254E+03  0.56905824478E+03  0.12499327139E+03 0.  0.
         23    2    1    2    0    0 -0.50013111377E+02  0.14774466836E+03 -0.32784553697E+03  0.37460642756E+03  0.92290200568E+02 0.  0.
          5    1    3    3  502    0 -0.63231741054E+00  0.48989100850E+01  0.45115622466E+01  0.81757775919E+01  0.47000000000E+01 0.  1.
         -5    1    3    3    0  502  0.50645428787E+02 -0.15264357845E+03 -0.53730999479E+03  0.56088246719E+03  0.47000000000E+01 0.  1.
        -11    1    4    4    0    0 -0.90104429535E+01  0.80047583016E+02 -0.76485270372E+02  0.11108015220E+03  0.00000000000E+00 0.  1.
         11    1    4    4    0    0 -0.41002668423E+02  0.67697085347E+02 -0.25136026659E+03  0.26352627536E+03  0.00000000000E+00 0. -1.
<mgrwt>
<rscale>  0 0.19504909E+03</rscale>
<asrwt>0</asrwt>
<pdfrwt beam="2">  1        1 0.13879298E+00 0.19988276E+03</pdfrwt>
<pdfrwt beam="1">  1       -1 0.63862077E-02 0.19988276E+03</pdfrwt>
<totfact> 0.23000612E+03</totfact>
</mgrwt>
</event>
<event>
 8    1  0.8504141E-006  0.1258047E+03  0.7546771E-02  0.1249626E+00
         -2   -1    0    0    0  501 -0.00000000000E+00  0.00000000000E+00  0.37716942978E+02  0.37716942978E+02  0.00000000000E+00 0.  1.
          2   -1    0    0  501    0  0.00000000000E+00 -0.00000000000E+00 -0.31998288967E+03  0.31998288967E+03  0.00000000000E+00 0. -1.
         23    2    1    2    0    0  0.13514730901E+02 -0.31456100229E+01 -0.18997121843E+03  0.22785058432E+03  0.12503712301E+03 0.  0.
         23    2    1    2    0    0 -0.13514730901E+02  0.31456100229E+01 -0.92294728263E+02  0.12984924833E+03  0.90277171047E+02 0.  0.
          5    1    3    3  502    0  0.58472380078E+02  0.32873274127E+02 -0.89586262527E+02  0.11201544455E+03  0.47000000000E+01 0.  1.
         -5    1    3    3    0  502 -0.44957649177E+02 -0.36018884150E+02 -0.10038495590E+03  0.11583513978E+03  0.47000000000E+01 0.  1.
        -11    1    4    4    0    0 -0.29789554096E+02 -0.23227330237E+02 -0.61145437224E+01  0.38266356609E+02  0.00000000000E+00 0.  1.
         11    1    4    4    0    0  0.16274823195E+02  0.26372940260E+02 -0.86180184540E+02  0.91582891718E+02  0.00000000000E+00 0. -1.
<mgrwt>
<rscale>  0 0.11612742E+03</rscale>
<asrwt>0</asrwt>
<pdfrwt beam="2">  1        2 0.49228139E-01 0.12580471E+03</pdfrwt>
<pdfrwt beam="1">  1       -2 0.58026064E-02 0.12580471E+03</pdfrwt>
<totfact> 0.14833561E+04</totfact>
</mgrwt>
</event>
<event>
 8    1  0.8504141E-006  0.1492660E+03  0.7546771E-02  0.1210506E+00
          1   -1    0    0  501    0  0.00000000000E+00  0.00000000000E+00  0.20792012742E+03  0.20792012742E+03  0.00000000000E+00 0. -1.
         -1   -1    0    0    0  501 -0.00000000000E+00 -0.00000000000E+00 -0.89554853322E+02  0.89554853322E+02  0.00000000000E+00 0.  1.
         23    2    1    2    0    0 -0.81335387022E+02 -0.62879898347E+01  0.77472709599E+02  0.16817355674E+03  0.12500136181E+03 0.  0.
         23    2    1    2    0    0  0.81335387022E+02  0.62879898347E+01  0.40892564501E+02  0.12930142401E+03  0.91606071967E+02 0.  0.
          5    1    3    3  502    0 -0.19609223126E+02 -0.53105017395E+02  0.70075483421E+02  0.90207138746E+02  0.47000000000E+01 0. -1.
         -5    1    3    3    0  502 -0.61726163896E+02  0.46817027560E+02  0.73972261785E+01  0.77966417989E+02  0.47000000000E+01 0. -1.
        -11    1    4    4    0    0  0.33015812470E+02  0.20359798719E+02  0.63278088877E+02  0.74220494534E+02  0.00000000000E+00 0. -1.
         11    1    4    4    0    0  0.48319574552E+02 -0.14071808885E+02 -0.22385524377E+02  0.55080929474E+02  0.00000000000E+00 0.  1.
<mgrwt>
<rscale>  0 0.14211848E+03</rscale>
<asrwt>0</asrwt>
<pdfrwt beam="1">  1        1 0.31987712E-01 0.14926595E+03</pdfrwt>
<pdfrwt beam="2">  1       -1 0.13777670E-01 0.14926595E+03</pdfrwt>
<totfact> 0.49443606E+03</totfact>
</mgrwt>
</event>
<event>
 8    1  0.8504141E-006  0.1431819E+03  0.7546771E-02  0.1219692E+00
         -3   -1    0    0    0  501 -0.00000000000E+00  0.00000000000E+00  0.16846658155E+03  0.16846658155E+03  0.00000000000E+00 0.  1.
          3   -1    0    0  501    0  0.00000000000E+00 -0.00000000000E+00 -0.10696576163E+03  0.10696576163E+03  0.00000000000E+00 0. -1.
         23    2    1    2    0    0 -0.55613068741E+02  0.42232362882E+02  0.72497539627E+02  0.16048972472E+03  0.12499869038E+03 0.  0.
         23    2    1    2    0    0  0.55613068741E+02 -0.42232362882E+02 -0.10996719710E+02  0.11494261846E+03  0.90633833664E+02 0.  0.
          5    1    3    3  502    0  0.39167858533E+01  0.74542979737E+02  0.44629586440E+02  0.87096997797E+02  0.47000000000E+01 0. -1.
         -5    1    3    3    0  502 -0.59529854595E+02 -0.32310616855E+02  0.27867953187E+02  0.73392726918E+02  0.47000000000E+01 0. -1.
        -11    1    4    4    0    0 -0.22192994337E+02 -0.55706001849E+01  0.12101144513E+02  0.25884325036E+02  0.00000000000E+00 0. -1.
         11    1    4    4    0    0  0.77806063079E+02 -0.36661762697E+02 -0.23097864223E+02  0.89058293423E+02  0.00000000000E+00 0.  1.
<mgrwt>
<rscale>  0 0.13537460E+03</rscale>
<asrwt>0</asrwt>
<pdfrwt beam="2">  1        3 0.16456271E-01 0.14318191E+03</pdfrwt>
<pdfrwt beam="1">  1       -3 0.25917936E-01 0.14318191E+03</pdfrwt>
<totfact> 0.10337630E+03</totfact>
</mgrwt>
</event>
<event>
 8    1  0.8504141E-006  0.2269363E+03  0.7546771E-02  0.1131861E+00
          1   -1    0    0  501    0  0.00000000000E+00  0.00000000000E+00  0.17041585089E+03  0.17041585089E+03  0.00000000000E+00 0. -1.
         -1   -1    0    0    0  501 -0.00000000000E+00 -0.00000000000E+00 -0.62151689202E+03  0.62151689202E+03  0.00000000000E+00 0.  1.
         23    2    1    2    0    0  0.11867289154E+00 -0.18940669077E+03 -0.52243018802E+03  0.56959054541E+03  0.12500071790E+03 0.  0.
         23    2    1    2    0    0 -0.11867289154E+00  0.18940669077E+03  0.71329146885E+02  0.22234219749E+03  0.92050513296E+02 0.  0.
          5    1    3    3  502    0  0.21205424328E+02 -0.15615224246E+02 -0.10854564463E+02  0.28868959435E+02  0.47000000000E+01 0.  1.
         -5    1    3    3    0  502 -0.21086751437E+02 -0.17379146653E+03 -0.51157562356E+03  0.54072158598E+03  0.47000000000E+01 0.  1.
        -11    1    4    4    0    0 -0.40240182544E+02  0.10782551663E+03  0.16744950848E+02  0.11630136588E+03  0.00000000000E+00 0.  1.
         11    1    4    4    0    0  0.40121509653E+02  0.81581174147E+02  0.54584196037E+02  0.10604083161E+03  0.00000000000E+00 0. -1.
<mgrwt>
<rscale>  0 0.22273450E+03</rscale>
<asrwt>0</asrwt>
<pdfrwt beam="1">  1        1 0.26217823E-01 0.22693631E+03</pdfrwt>
<pdfrwt beam="2">  1       -1 0.95617983E-01 0.22693631E+03</pdfrwt>
<totfact> 0.20241615E+02</totfact>
</mgrwt>
</event>
<event>
 8    1  0.8504141E-006  0.1656613E+03  0.7546771E-02  0.1189389E+00
          1   -1    0    0  501    0  0.00000000000E+00  0.00000000000E+00  0.13778364312E+04  0.13778364312E+04  0.00000000000E+00 0. -1.
         -1   -1    0    0    0  501 -0.00000000000E+00 -0.00000000000E+00 -0.17308568887E+02  0.17308568887E+02  0.00000000000E+00 0.  1.
         23    2    1    2    0    0 -0.69733706406E+02  0.83394496562E+02  0.67006265112E+03  0.69023737487E+03  0.12500498140E+03 0.  0.
         23    2    1    2    0    0  0.69733706406E+02 -0.83394496562E+02  0.69046521114E+03  0.70490762517E+03  0.91296880317E+02 0.  0.
          5    1    3    3  502    0 -0.40198162013E+02  0.80655695902E+02  0.64453525465E+03  0.65082180203E+03  0.47000000000E+01 0. -1.
         -5    1    3    3    0  502 -0.29535544393E+02  0.27388006597E+01  0.25527396466E+02  0.39415572836E+02  0.47000000000E+01 0. -1.
        -11    1    4    4    0    0  0.74351806188E+02 -0.96847044574E+02  0.66108736569E+03  0.67226783814E+03  0.00000000000E+00 0.  1.
         11    1    4    4    0    0 -0.46180997826E+01  0.13452548012E+02  0.29377845457E+02  0.32639787029E+02  0.00000000000E+00 0. -1.
<mgrwt>
<rscale>  0 0.15938855E+03</rscale>
<asrwt>0</asrwt>
<pdfrwt beam="1">  1        1 0.21197475E+00 0.16566133E+03</pdfrwt>
<pdfrwt beam="2">  1       -1 0.26628578E-02 0.16566133E+03</pdfrwt>
<totfact> 0.38521259E+03</totfact>
</mgrwt>
</event>
<event>
 8    1  0.8504141E-006  0.1365598E+03  0.7546771E-02  0.1229826E+00
         -1   -1    0    0    0  501 -0.00000000000E+00  0.00000000000E+00  0.48592483553E+02  0.48592483553E+02  0.00000000000E+00 0.  1.
          1   -1    0    0  501    0  0.00000000000E+00 -0.00000000000E+00 -0.32413228476E+03  0.32413228476E+03  0.00000000000E+00 0. -1.
         23    2    1    2    0    0 -0.51177640371E+02 -0.20144756784E+02 -0.10825034647E+03  0.17426047207E+03  0.12499444994E+03 0.  0.
         23    2    1    2    0    0  0.51177640371E+02  0.20144756784E+02 -0.16728945474E+03  0.19846429624E+03  0.91527881631E+02 0.  0.
          5    1    3    3  502    0 -0.91513014475E+02 -0.22098215185E+02 -0.87512935112E+02  0.12862179731E+03  0.47000000000E+01 0. -1.
         -5    1    3    3    0  502  0.40335374105E+02  0.19534584010E+01 -0.20737411358E+02  0.45638674758E+02  0.47000000000E+01 0. -1.
        -11    1    4    4    0    0  0.15101739401E+02  0.17188465287E+02  0.41428526441E+01  0.23252292358E+02  0.00000000000E+00 0.  1.
         11    1    4    4    0    0  0.36075900970E+02  0.29562914962E+01 -0.17143230738E+03  0.17521200388E+03  0.00000000000E+00 0. -1.
<mgrwt>
<rscale>  0 0.12841514E+03</rscale>
<asrwt>0</asrwt>
<pdfrwt beam="2">  1        1 0.49866506E-01 0.13655978E+03</pdfrwt>
<pdfrwt beam="1">  1       -1 0.74757666E-02 0.13655978E+03</pdfrwt>
<totfact> 0.72286402E+03</totfact>
</mgrwt>
</event>
<event>
 8    1  0.8504141E-006  0.1296871E+03  0.7546771E-02  0.1241892E+00
         -2   -1    0    0    0  501 -0.00000000000E+00  0.00000000000E+00  0.31943162160E+02  0.31943162160E+02  0.00000000000E+00 0.  1.
          2   -1    0    0  501    0  0.00000000000E+00 -0.00000000000E+00 -0.41954667101E+03  0.41954667101E+03  0.00000000000E+00 0. -1.
         23    2    1    2    0    0 -0.21871889630E+02  0.26744163462E+02 -0.17677751350E+03  0.21924652845E+03  0.12500048450E+03 0.  0.
         23    2    1    2    0    0  0.21871889630E+02 -0.26744163462E+02 -0.21082599535E+03  0.23224330472E+03  0.91080856576E+02 0.  0.
          5    1    3    3  502    0  0.48448715464E+01  0.20548043651E+02 -0.18800218320E+03  0.18924218813E+03  0.47000000000E+01 0. -1.
         -5    1    3    3    0  502 -0.26716761176E+02  0.61961198104E+01  0.11224669704E+02  0.30004340326E+02  0.47000000000E+01 0. -1.
        -11    1    4    4    0    0  0.63214279020E+00 -0.52430023306E+02 -0.17761012968E+03  0.18518818837E+03  0.00000000000E+00 0. -1.
         11    1    4    4    0    0  0.21239746840E+02  0.25685859844E+02 -0.33215865672E+02  0.47055116343E+02  0.00000000000E+00 0.  1.
<mgrwt>
<rscale>  0 0.12073334E+03</rscale>
<asrwt>0</asrwt>
<pdfrwt beam="2">  1        2 0.64545648E-01 0.12968713E+03</pdfrwt>
<pdfrwt beam="1">  1       -2 0.49143321E-02 0.12968713E+03</pdfrwt>
<totfact> 0.14318833E+04</totfact>
</mgrwt>
</event>
<event>
 8    1  0.8504141E-006  0.1512878E+03  0.7546771E-02  0.1209287E+00
         -2   -1    0    0    0  501 -0.00000000000E+00  0.00000000000E+00  0.13399185649E+03  0.13399185649E+03  0.00000000000E+00 0.  1.
          2   -1    0    0  501    0  0.00000000000E+00 -0.00000000000E+00 -0.25245052965E+03  0.25245052965E+03  0.00000000000E+00 0. -1.
         23    2    1    2    0    0  0.61440133984E+02 -0.59060400663E+02  0.66665947535E+02  0.16532499108E+03  0.12499993249E+03 0.  0.
         23    2    1    2    0    0 -0.61440133984E+02  0.59060400663E+02 -0.18512462069E+03  0.22111739507E+03  0.85783193140E+02 0.  0.
          5    1    3    3  502    0  0.32021778721E+02  0.86558700855E+01  0.83049763235E+02  0.89552619017E+02  0.47000000000E+01 0. -1.
         -5    1    3    3    0  502  0.29418355263E+02 -0.67716270748E+02 -0.16383815700E+02  0.75772372058E+02  0.47000000000E+01 0. -1.
        -11    1    4    4    0    0 -0.62165275112E+02  0.24145984144E+02 -0.55169401497E+02  0.86551792827E+02  0.00000000000E+00 0.  1.
         11    1    4    4    0    0  0.72514112878E+00  0.34914416519E+02 -0.12995521920E+03  0.13456560224E+03  0.00000000000E+00 0. -1.
<mgrwt>
<rscale>  0 0.14304675E+03</rscale>
<asrwt>0</asrwt>
<pdfrwt beam="2">  1        2 0.38838542E-01 0.15128782E+03</pdfrwt>
<pdfrwt beam="1">  1       -2 0.20614132E-01 0.15128782E+03</pdfrwt>
<totfact> 0.25668237E+03</totfact>
</mgrwt>
</event>
<event>
 8    1  0.8504141E-006  0.1334328E+03  0.7546771E-02  0.1233914E+00
         -1   -1    0    0    0  501 -0.00000000000E+00  0.00000000000E+00  0.17423828029E+03  0.17423828029E+03  0.00000000000E+00 0.  1.
          1   -1    0    0  501    0  0.00000000000E+00 -0.00000000000E+00 -0.90048985297E+02  0.90048985297E+02  0.00000000000E+00 0. -1.
         23    2    1    2    0    0 -0.34201153263E+02 -0.31801674646E+02  0.86528494882E+02  0.15903296661E+03  0.12499295440E+03 0.  0.
         23    2    1    2    0    0  0.34201153263E+02  0.31801674646E+02 -0.23391998849E+01  0.10525429898E+03  0.94297031779E+02 0.  0.
          5    1    3    3  502    0  0.34746188710E+02 -0.79270330948E+01 -0.10584368358E+02  0.37473381714E+02  0.47000000000E+01 0. -1.
         -5    1    3    3    0  502 -0.68947341972E+02 -0.23874641551E+02  0.97112863240E+02  0.12155958490E+03  0.47000000000E+01 0. -1.
        -11    1    4    4    0    0  0.25405183241E+02 -0.16023803597E+02  0.33389909018E+02  0.44911820732E+02  0.00000000000E+00 0.  1.
         11    1    4    4    0    0  0.87959700219E+01  0.47825478243E+02 -0.35729108903E+02  0.60342478245E+02  0.00000000000E+00 0. -1.
<mgrwt>
<rscale>  0 0.12574190E+03</rscale>
<asrwt>0</asrwt>
<pdfrwt beam="2">  1        1 0.13853690E-01 0.13343277E+03</pdfrwt>
<pdfrwt beam="1">  1       -1 0.26805889E-01 0.13343277E+03</pdfrwt>
<totfact> 0.48885679E+03</totfact>
</mgrwt>
</event>
<event>
 8    1  0.8504141E-006  0.1711067E+03  0.7546771E-02  0.1183163E+00
          2   -1    0    0  501    0  0.00000000000E+00  0.00000000000E+00  0.16457825923E+03  0.16457825923E+03  0.00000000000E+00 0. -1.
         -2   -1    0    0    0  501 -0.00000000000E+00 -0.00000000000E+00 -0.27918753072E+03  0.27918753072E+03  0.00000000000E+00 0.  1.
         23    2    1    2    0    0  0.11650344665E+03 -0.88113271895E+01 -0.20758713200E+03  0.26901657363E+03  0.12500722758E+03 0.  0.
         23    2    1    2    0    0 -0.11650344665E+03  0.88113271895E+01  0.92977860511E+02  0.17474921632E+03  0.90783883430E+02 0.  0.
          5    1    3    3  502    0  0.13116102733E+03 -0.23818364990E+02 -0.12198602675E+03  0.18075732440E+03  0.47000000000E+01 0.  1.
         -5    1    3    3    0  502 -0.14657580682E+02  0.15007037801E+02 -0.85601105244E+02  0.88259249226E+02  0.47000000000E+01 0.  1.
        -11    1    4    4    0    0 -0.88981482772E+02  0.36665583391E+02  0.30394610524E+02  0.10092522792E+03  0.00000000000E+00 0.  1.
         11    1    4    4    0    0 -0.27521963877E+02 -0.27854256201E+02  0.62583249987E+02  0.73823988399E+02  0.00000000000E+00 0. -1.
<mgrwt>
<rscale>  0 0.16500113E+03</rscale>
<asrwt>0</asrwt>
<pdfrwt beam="1">  1        2 0.25319733E-01 0.17110669E+03</pdfrwt>
<pdfrwt beam="2">  1       -2 0.42951927E-01 0.17110669E+03</pdfrwt>
<totfact> 0.10892656E+03</totfact>
</mgrwt>
</event>
<event>
 8    1  0.8504141E-006  0.1323027E+03  0.7546771E-02  0.1238176E+00
          1   -1    0    0  501    0  0.00000000000E+00  0.00000000000E+00  0.35238217127E+03  0.35238217127E+03  0.00000000000E+00 0. -1.
         -1   -1    0    0    0  501 -0.00000000000E+00 -0.00000000000E+00 -0.41296713490E+02  0.41296713490E+02  0.00000000000E+00 0.  1.
         23    2    1    2    0    0 -0.15447727508E+02 -0.40498235869E+02  0.12055550978E+03  0.17899060097E+03  0.12500105962E+03 0.  0.
         23    2    1    2    0    0  0.15447727508E+02  0.40498235869E+02  0.19052994801E+03  0.21468828379E+03  0.88941883916E+02 0.  0.
          5    1    3    3  502    0 -0.52885578721E+02  0.21760050475E+02  0.37505718868E+02  0.68550369664E+02  0.47000000000E+01 0. -1.
         -5    1    3    3    0  502  0.37437851213E+02 -0.62258286344E+02  0.83049790908E+02  0.11044023131E+03  0.47000000000E+01 0. -1.
        -11    1    4    4    0    0 -0.19270527762E+01 -0.22901256446E+02  0.15499592748E+02  0.27720361732E+02  0.00000000000E+00 0.  1.
         11    1    4    4    0    0  0.17374780284E+02  0.63399492315E+02  0.17503035526E+03  0.18696792205E+03  0.00000000000E+00 0. -1.
<mgrwt>
<rscale>  0 0.12303283E+03</rscale>
<asrwt>0</asrwt>
<pdfrwt beam="1">  1        1 0.54212640E-01 0.13230270E+03</pdfrwt>
<pdfrwt beam="2">  1       -1 0.63533408E-02 0.13230270E+03</pdfrwt>
<totfact> 0.82950530E+03</totfact>
</mgrwt>
</event>
<event>
 8    1  0.8504141E-006  0.2634034E+03  0.7546771E-02  0.1107257E+00
          2   -1    0    0  501    0  0.00000000000E+00  0.00000000000E+00  0.32374939405E+03  0.32374939405E+03  0.00000000000E+00 0. -1.
         -2   -1    0    0    0  501 -0.00000000000E+00 -0.00000000000E+00 -0.21283103934E+03  0.21283103934E+03  0.00000000000E+00 0.  1.
         23    2    1    2    0    0  0.21281244656E+03  0.92122681848E+02 -0.71647690122E+00  0.26340440663E+03  0.12492254469E+03 0.  0.
         23    2    1    2    0    0 -0.21281244656E+03 -0.92122681848E+02  0.11163483161E+03  0.27317602676E+03  0.91581002661E+02 0.  0.
          5    1    3    3  502    0  0.21970616481E+03  0.59261272959E+02  0.10060052123E+02  0.22782886555E+03  0.47000000000E+01 0.  1.
         -5    1    3    3    0  502 -0.68937182527E+01  0.32861408890E+02 -0.10776529024E+02  0.35575541083E+02  0.47000000000E+01 0.  1.
        -11    1    4    4    0    0 -0.69544570094E+02 -0.30999408499E+02 -0.82973936792E+01  0.76591496256E+02  0.00000000000E+00 0.  1.
         11    1    4    4    0    0 -0.14326787646E+03 -0.61123273349E+02  0.11993222529E+03  0.19658453051E+03  0.00000000000E+00 0. -1.
<mgrwt>
<rscale>  0 0.25981092E+03</rscale>
<asrwt>0</asrwt>
<pdfrwt beam="1">  1        2 0.49807599E-01 0.26340343E+03</pdfrwt>
<pdfrwt beam="2">  1       -2 0.32743237E-01 0.26340343E+03</pdfrwt>
<totfact> 0.87704160E+02</totfact>
</mgrwt>
</event>
<event>
 8    1  0.8504141E-006  0.1324580E+03  0.7546771E-02  0.1233216E+00
         -2   -1    0    0    0  501 -0.00000000000E+00  0.00000000000E+00  0.85926692337E+02  0.85926692337E+02  0.00000000000E+00 0.  1.
          2   -1    0    0  501    0  0.00000000000E+00 -0.00000000000E+00 -0.20787085260E+03  0.20787085260E+03  0.00000000000E+00 0. -1.
         23    2    1    2    0    0  0.13692151474E+02  0.54820228930E+02 -0.31562300833E+01  0.13249563368E+03  0.11980149684E+03 0.  0.
         23    2    1    2    0    0 -0.13692151474E+02 -0.54820228930E+02 -0.11878793018E+03  0.16130191126E+03  0.93354173483E+02 0.  0.
          5    1    3    3  502    0 -0.27926084931E+02  0.67768570848E+02  0.28117040643E+02  0.78645428278E+02  0.47000000000E+01 0. -1.
         -5    1    3    3    0  502  0.41618236406E+02 -0.12948341919E+02 -0.31273270726E+02  0.53850205403E+02  0.47000000000E+01 0. -1.
        -11    1    4    4    0    0 -0.32310129448E+02 -0.67149006695E+02 -0.51967420203E+02  0.90849030417E+02  0.00000000000E+00 0.  1.
         11    1    4    4    0    0  0.18617977974E+02  0.12328777766E+02 -0.66820509978E+02  0.70452880841E+02  0.00000000000E+00 0. -1.
<mgrwt>
<rscale>  0 0.12619361E+03</rscale>
<asrwt>0</asrwt>
<pdfrwt beam="2">  1        2 0.31980131E-01 0.13245804E+03</pdfrwt>
<pdfrwt beam="1">  1       -2 0.13219491E-01 0.13245804E+03</pdfrwt>
<totfact> 0.65469012E+03</totfact>
</mgrwt>
</event>
<event>
 8    1  0.8504141E-006  0.1329949E+03  0.7546771E-02  0.1235691E+00
         -2   -1    0    0    0  501 -0.00000000000E+00  0.00000000000E+00  0.51424616946E+02  0.51424616946E+02  0.00000000000E+00 0.  1.
          2   -1    0    0  501    0  0.00000000000E+00 -0.00000000000E+00 -0.27056152922E+03  0.27056152922E+03  0.00000000000E+00 0. -1.
         23    2    1    2    0    0  0.45395869289E+02  0.23591356751E+01 -0.13349248565E+03  0.18843534016E+03  0.12498513203E+03 0.  0.
         23    2    1    2    0    0 -0.45395869289E+02 -0.23591356751E+01 -0.85644426630E+02  0.13355080600E+03  0.91839531259E+02 0.  0.
          5    1    3    3  502    0  0.45165926899E+02 -0.48431009843E+02 -0.29585443892E+02  0.72683644360E+02  0.47000000000E+01 0.  1.
         -5    1    3    3    0  502  0.22994238987E+00  0.50790145518E+02 -0.10390704175E+03  0.11575169580E+03  0.47000000000E+01 0.  1.
        -11    1    4    4    0    0  0.48071871421E+01  0.10666004459E+02  0.15774499451E+02  0.19639438187E+02  0.00000000000E+00 0.  1.
         11    1    4    4    0    0 -0.50203056431E+02 -0.13025140134E+02 -0.10141892608E+03  0.11391136782E+03  0.00000000000E+00 0. -1.
<mgrwt>
<rscale>  0 0.12460320E+03</rscale>
<asrwt>0</asrwt>
<pdfrwt beam="2">  1        2 0.41624850E-01 0.13299486E+03</pdfrwt>
<pdfrwt beam="1">  1       -2 0.79114796E-02 0.13299486E+03</pdfrwt>
<totfact> 0.11089783E+04</totfact>
</mgrwt>
</event>
<event>
 8    1  0.8504141E-006  0.1541566E+03  0.7546771E-02  0.1203967E+00
         -1   -1    0    0    0  501 -0.00000000000E+00  0.00000000000E+00  0.23562370530E+03  0.23562370530E+03  0.00000000000E+00 0.  1.
          1   -1    0    0  501    0  0.00000000000E+00 -0.00000000000E+00 -0.84657862884E+02  0.84657862884E+02  0.00000000000E+00 0. -1.
         23    2    1    2    0    0  0.72504193368E+02 -0.53667672924E+02  0.88202410843E+02  0.17760611454E+03  0.12500875757E+03 0.  0.
         23    2    1    2    0    0 -0.72504193368E+02  0.53667672924E+02  0.62763431578E+02  0.14267545365E+03  0.90994283106E+02 0.  0.
          5    1    3    3  502    0 -0.25071202508E+02 -0.45722751284E+02  0.12671905084E+02  0.53868379952E+02  0.47000000000E+01 0. -1.
         -5    1    3    3    0  502  0.97575395876E+02 -0.79449216399E+01  0.75530505759E+02  0.12373773459E+03  0.47000000000E+01 0. -1.
        -11    1    4    4    0    0  0.15778610705E+02 -0.98843970512E+01  0.40163611426E+01  0.19047231234E+02  0.00000000000E+00 0. -1.
         11    1    4    4    0    0 -0.88282804073E+02  0.63552069975E+02  0.58747070435E+02  0.12362822242E+03  0.00000000000E+00 0.  1.
<mgrwt>
<rscale>  0 0.14719176E+03</rscale>
<asrwt>0</asrwt>
<pdfrwt beam="2">  1        1 0.13024287E-01 0.15415663E+03</pdfrwt>
<pdfrwt beam="1">  1       -1 0.36249801E-01 0.15415663E+03</pdfrwt>
<totfact> 0.32065396E+03</totfact>
</mgrwt>
</event>
<event>
 7    1  0.8504141E-006  0.2009628E+03  0.7546771E-02  0.1181958E+00
          2   -1    0    0  501    0  0.00000000000E+00  0.00000000000E+00  0.35355246766E+03  0.35355246766E+03  0.00000000000E+00 0. -1.
         -2   -1    0    0    0  501 -0.00000000000E+00 -0.00000000000E+00 -0.61816464057E+02  0.61816464057E+02  0.00000000000E+00 0.  1.
         23    2    1    2    0    0 -0.59338960488E+01  0.20354195593E+02  0.78211643141E+02  0.12214768809E+03  0.91397440792E+02 0.  0.
          5    1    1    2  502    0 -0.28306451159E+02 -0.68947063895E+02  0.22085759141E+03  0.23314184197E+03  0.47000000000E+01 0. -1.
         -5    1    1    2    0  502  0.34240347208E+02  0.48592868302E+02 -0.73332309416E+01  0.60079401651E+02  0.47000000000E+01 0.  1.
        -11    1    3    3    0    0 -0.43693376037E+02  0.31807359597E+02  0.50154254856E+02  0.73731055290E+02  0.00000000000E+00 0.  1.
         11    1    3    3    0    0  0.37759479988E+02 -0.11453164004E+02  0.28057388285E+02  0.48416632804E+02  0.00000000000E+00 0. -1.
<mgrwt>
<rscale>  0 0.16611757E+03</rscale>
<asrwt>0</asrwt>
<pdfrwt beam="1">  1        2 0.54392686E-01 0.20096280E+03</pdfrwt>
<pdfrwt beam="2">  1       -2 0.95102255E-02 0.20096280E+03</pdfrwt>
<totfact> 0.64267194E+03</totfact>
</mgrwt>
</event>
<event>
 8    1  0.8504141E-006  0.1918316E+03  0.7546771E-02  0.1161903E+00
          1   -1    0    0  501    0  0.00000000000E+00  0.00000000000E+00  0.56551483808E+03  0.56551483808E+03  0.00000000000E+00 0. -1.
         -1   -1    0    0    0  501 -0.00000000000E+00 -0.00000000000E+00 -0.59793314435E+02  0.59793314435E+02  0.00000000000E+00 0.  1.
         23    2    1    2    0    0 -0.81424309532E+02 -0.12060298043E+03  0.21341237208E+03  0.28695678017E+03  0.12499742421E+03 0.  0.
         23    2    1    2    0    0  0.81424309532E+02  0.12060298043E+03  0.29230915156E+03  0.33835137234E+03  0.88667998776E+02 0.  0.
          5    1    3    3  502    0 -0.94532643881E+02 -0.13614096768E+03  0.20680989551E+03  0.26507207835E+03  0.47000000000E+01 0. -1.
         -5    1    3    3    0  502  0.13108334349E+02  0.15537987246E+02  0.66024765709E+01  0.21884701824E+02  0.47000000000E+01 0. -1.
        -11    1    4    4    0    0  0.21518428849E+00  0.35267805598E+02  0.14760542380E+03  0.15176042156E+03  0.00000000000E+00 0. -1.
         11    1    4    4    0    0  0.81209125243E+02  0.85335174832E+02  0.14470372776E+03  0.18659095079E+03  0.00000000000E+00 0.  1.
<mgrwt>
<rscale>  0 0.18623404E+03</rscale>
<asrwt>0</asrwt>
<pdfrwt beam="1">  1        1 0.87002279E-01 0.19183157E+03</pdfrwt>
<pdfrwt beam="2">  1       -1 0.91989718E-02 0.19183157E+03</pdfrwt>
<totfact> 0.26206895E+03</totfact>
</mgrwt>
</event>
<event>
 8    1  0.8504141E-006  0.2583002E+03  0.7546771E-02  0.1110656E+00
          2   -1    0    0  501    0  0.00000000000E+00  0.00000000000E+00  0.73955783230E+02  0.73955783230E+02  0.00000000000E+00 0. -1.
         -2   -1    0    0    0  501 -0.00000000000E+00 -0.00000000000E+00 -0.12136917000E+04  0.12136917000E+04  0.00000000000E+00 0.  1.
         23    2    1    2    0    0  0.17328917602E+03  0.14514530386E+03 -0.93596846257E+03  0.97095619578E+03  0.12499069344E+03 0.  0.
         23    2    1    2    0    0 -0.17328917602E+03 -0.14514530386E+03 -0.20376745417E+03  0.31669128742E+03  0.87612204567E+02 0.  0.
          5    1    3    3  502    0  0.18143356483E+03  0.11685935445E+03 -0.68457428699E+03  0.71780101113E+03  0.47000000000E+01 0. -1.
         -5    1    3    3    0  502 -0.81443888052E+01  0.28285949404E+02 -0.25139417557E+03  0.25315518465E+03  0.47000000000E+01 0. -1.
        -11    1    4    4    0    0 -0.39118227416E+02 -0.43726215239E+01 -0.71130378131E+02  0.81295056604E+02  0.00000000000E+00 0.  1.
         11    1    4    4    0    0 -0.13417094860E+03 -0.14077268233E+03 -0.13263707604E+03  0.23539623081E+03  0.00000000000E+00 0. -1.
<mgrwt>
<rscale>  0 0.25423772E+03</rscale>
<asrwt>0</asrwt>
<pdfrwt beam="1">  1        2 0.11377813E-01 0.25830016E+03</pdfrwt>
<pdfrwt beam="2">  1       -2 0.18672180E+00 0.25830016E+03</pdfrwt>
<totfact> 0.95984666E+01</totfact>
</mgrwt>
</event>
<event>
 8    1  0.8504141E-006  0.1583998E+03  0.7546771E-02  0.1198141E+00
         -2   -1    0    0    0  501 -0.00000000000E+00  0.00000000000E+00  0.52305573572E+02  0.52305573572E+02  0.00000000000E+00 0.  1.
          2   -1    0    0  501    0  0.00000000000E+00 -0.00000000000E+00 -0.41013556208E+03  0.41013556208E+03  0.00000000000E+00 0. -1.
         23    2    1    2    0    0  0.25415762425E+02  0.93890947122E+02 -0.17997722201E+03  0.23975466497E+03  0.12501611096E+03 0.  0.
         23    2    1    2    0    0 -0.25415762425E+02 -0.93890947122E+02 -0.17785276650E+03  0.22268647069E+03  0.92174761971E+02 0.  0.
          5    1    3    3  502    0 -0.43335902970E+02  0.13475363754E+02 -0.89525640361E+02  0.10048142215E+03  0.47000000000E+01 0. -1.
         -5    1    3    3    0  502  0.68751665395E+02  0.80415583368E+02 -0.90451581649E+02  0.13927324282E+03  0.47000000000E+01 0. -1.
        -11    1    4    4    0    0  0.37507750486E+01 -0.10311700962E+03 -0.13153593578E+03  0.16717921039E+03  0.00000000000E+00 0. -1.
         11    1    4    4    0    0 -0.29166537474E+02  0.92260624969E+01 -0.46316830721E+02  0.55507260295E+02  0.00000000000E+00 0.  1.
<mgrwt>
<rscale>  0 0.15191379E+03</rscale>
<asrwt>0</asrwt>
<pdfrwt beam="2">  1        2 0.63097777E-01 0.15839981E+03</pdfrwt>
<pdfrwt beam="1">  1       -2 0.80470115E-02 0.15839981E+03</pdfrwt>
<totfact> 0.70204467E+03</totfact>
</mgrwt>
</event>
<event>
 8    1  0.8504141E-006  0.1396259E+03  0.7546771E-02  0.1227155E+00
         -2   -1    0    0    0  501 -0.00000000000E+00  0.00000000000E+00  0.39908553717E+02  0.39908553717E+02  0.00000000000E+00 0.  1.
          2   -1    0    0  501    0  0.00000000000E+00 -0.00000000000E+00 -0.44492108612E+03  0.44492108612E+03  0.00000000000E+00 0. -1.
         23    2    1    2    0    0  0.36801716676E+01  0.62100074381E+02 -0.13212844799E+03  0.19223247411E+03  0.12500173771E+03 0.  0.
         23    2    1    2    0    0 -0.36801716676E+01 -0.62100074381E+02 -0.27288408442E+03  0.29259716573E+03  0.85307766151E+02 0.  0.
          5    1    3    3  502    0  0.14155972676E+02  0.93343210423E+02 -0.12736012190E+03  0.15860654824E+03  0.47000000000E+01 0.  1.
         -5    1    3    3    0  502 -0.10475801009E+02 -0.31243136042E+02 -0.47683260863E+01  0.33625925864E+02  0.47000000000E+01 0.  1.
        -11    1    4    4    0    0  0.38795320701E+02 -0.13890392090E+02 -0.99835549088E+02  0.10800535525E+03  0.00000000000E+00 0.  1.
         11    1    4    4    0    0 -0.42475492369E+02 -0.48209682291E+02 -0.17304853533E+03  0.18459181049E+03  0.00000000000E+00 0. -1.
<mgrwt>
<rscale>  0 0.13020304E+03</rscale>
<asrwt>0</asrwt>
<pdfrwt beam="2">  1        2 0.68449398E-01 0.13962592E+03</pdfrwt>
<pdfrwt beam="1">  1       -2 0.61397775E-02 0.13962592E+03</pdfrwt>
<totfact> 0.96604168E+03</totfact>
</mgrwt>
</event>
<event>
 8    1  0.8504141E-006  0.1453855E+03  0.7546771E-02  0.1214363E+00
         -1   -1    0    0    0  501 -0.00000000000E+00  0.00000000000E+00  0.32100351818E+03  0.32100351818E+03  0.00000000000E+00 0.  1.
          1   -1    0    0  501    0  0.00000000000E+00 -0.00000000000E+00 -0.59754994059E+02  0.59754994059E+02  0.00000000000E+00 0. -1.
         23    2    1    2    0    0  0.25320981766E+02 -0.80021834836E+02  0.92370418566E+02  0.17224760035E+03  0.11871097435E+03 0.  0.
         23    2    1    2    0    0 -0.25320981766E+02  0.80021834836E+02  0.16887810556E+03  0.20851091189E+03  0.88951333175E+02 0.  0.
          5    1    3    3  502    0 -0.41556138534E+02 -0.37861682750E+01  0.40087582412E+02  0.58054732656E+02  0.47000000000E+01 0. -1.
         -5    1    3    3    0  502  0.66877120301E+02 -0.76235666561E+02  0.52282836155E+02  0.11419286769E+03  0.47000000000E+01 0.  1.
        -11    1    4    4    0    0 -0.44194627216E+02  0.22965728979E+02  0.32480039600E+02  0.59460430159E+02  0.00000000000E+00 0. -1.
         11    1    4    4    0    0  0.18873645449E+02  0.57056105856E+02  0.13639806596E+03  0.14905048173E+03  0.00000000000E+00 0.  1.
<mgrwt>
<rscale>  0 0.13923433E+03</rscale>
<asrwt>0</asrwt>
<pdfrwt beam="2">  1        1 0.91930762E-02 0.14538549E+03</pdfrwt>
<pdfrwt beam="1">  1       -1 0.49385156E-01 0.14538549E+03</pdfrwt>
<totfact> 0.29273160E+03</totfact>
</mgrwt>
</event>
<event>
 8    1  0.8504141E-006  0.1351072E+03  0.7546771E-02  0.1233323E+00
         -1   -1    0    0    0  501 -0.00000000000E+00  0.00000000000E+00  0.53322495995E+03  0.53322495995E+03  0.00000000000E+00 0. -1.
          1   -1    0    0  501    0  0.00000000000E+00 -0.00000000000E+00 -0.26522020882E+02  0.26522020882E+02  0.00000000000E+00 0.  1.
         23    2    1    2    0    0 -0.12911551425E+01 -0.51268059827E+02  0.27867003692E+03  0.30969490371E+03  0.12499545139E+03 0.  0.
         23    2    1    2    0    0  0.12911551425E+01  0.51268059827E+02  0.22803290214E+03  0.25005207712E+03  0.88864817392E+02 0.  0.
          5    1    3    3  502    0 -0.23666180987E+02 -0.48642760919E+02  0.34258619438E+02  0.64202408975E+02  0.47000000000E+01 0. -1.
         -5    1    3    3    0  502  0.22375025845E+02 -0.26252989081E+01  0.24441141748E+03  0.24549249474E+03  0.47000000000E+01 0. -1.
        -11    1    4    4    0    0 -0.26538283799E+01 -0.21104500455E+02  0.10603773827E+03  0.10815010255E+03  0.00000000000E+00 0. -1.
         11    1    4    4    0    0  0.39449835224E+01  0.72372560282E+02  0.12199516387E+03  0.14190197456E+03  0.00000000000E+00 0.  1.
<mgrwt>
<rscale>  0 0.12612380E+03</rscale>
<asrwt>0</asrwt>
<pdfrwt beam="2">  1        1 0.40803113E-02 0.13510716E+03</pdfrwt>
<pdfrwt beam="1">  1       -1 0.82034601E-01 0.13510716E+03</pdfrwt>
<totfact> 0.32918967E+03</totfact>
</mgrwt>
</event>
<event>
 8    1  0.8504141E-006  0.1261537E+03  0.7546771E-02  0.1248199E+00
         -1   -1    0    0    0  501 -0.00000000000E+00  0.00000000000E+00  0.10368562041E+03  0.10368562041E+03  0.00000000000E+00 0.  1.
          1   -1    0    0  501    0  0.00000000000E+00 -0.00000000000E+00 -0.11605044139E+03  0.11605044139E+03  0.00000000000E+00 0. -1.
         23    2    1    2    0    0  0.16832632811E+02  0.25105697493E+01 -0.88894427938E+01  0.12646648484E+03  0.12500043642E+03 0.  0.
         23    2    1    2    0    0 -0.16832632811E+02 -0.25105697493E+01 -0.34753781875E+01  0.93269576961E+02  0.91637848322E+02 0.  0.
          5    1    3    3  502    0  0.10096812247E+02 -0.37861680367E+02 -0.53018521298E+02  0.66094674962E+02  0.47000000000E+01 0.  1.
         -5    1    3    3    0  502  0.67358205644E+01  0.40372250116E+02  0.44129078504E+02  0.60371809876E+02  0.47000000000E+01 0.  1.
        -11    1    4    4    0    0  0.13978737814E+02 -0.37385603645E+02  0.15763264276E+02  0.42913505700E+02  0.00000000000E+00 0.  1.
         11    1    4    4    0    0 -0.30811370625E+02  0.34875033896E+02 -0.19238642464E+02  0.50356071261E+02  0.00000000000E+00 0. -1.
<mgrwt>
<rscale>  0 0.11695923E+03</rscale>
<asrwt>0</asrwt>
<pdfrwt beam="2">  1        1 0.17853914E-01 0.12615367E+03</pdfrwt>
<pdfrwt beam="1">  1       -1 0.15951634E-01 0.12615367E+03</pdfrwt>
<totfact> 0.80990013E+03</totfact>
</mgrwt>
</event>
<event>
 7    1  0.8504141E-006  0.2077932E+03  0.7546771E-02  0.1170705E+00
         -2   -1    0    0    0  501 -0.00000000000E+00  0.00000000000E+00  0.33399162526E+02  0.33399162526E+02  0.00000000000E+00 0.  1.
          2   -1    0    0  501    0  0.00000000000E+00 -0.00000000000E+00 -0.75612289519E+03  0.75612289519E+03  0.00000000000E+00 0. -1.
         23    2    1    2    0    0  0.26778167828E+02  0.55232368963E+02 -0.27198898000E+03  0.29319572358E+03  0.90653418192E+02 0.  0.
          5    1    1    2  502    0 -0.25023911929E+02 -0.75581576599E+02 -0.46447026844E+03  0.47126796110E+03  0.47000000000E+01 0. -1.
         -5    1    1    2    0  502 -0.17542558991E+01  0.20349207636E+02  0.13735515786E+02  0.25058373033E+02  0.47000000000E+01 0.  1.
        -11    1    3    3    0    0 -0.71602765994E+01  0.71273003838E+02 -0.16776085158E+03  0.18241385353E+03  0.00000000000E+00 0. -1.
         11    1    3    3    0    0  0.33938444427E+02 -0.16040634875E+02 -0.10422812842E+03  0.11078187005E+03  0.00000000000E+00 0.  1.
<mgrwt>
<rscale>  0 0.17703394E+03</rscale>
<asrwt>0</asrwt>
<pdfrwt beam="2">  1        2 0.11632660E+00 0.20779320E+03</pdfrwt>
<pdfrwt beam="1">  1       -2 0.51383328E-02 0.20779320E+03</pdfrwt>
<totfact> 0.70509138E+03</totfact>
</mgrwt>
</event>
<event>
 8    1  0.8504141E-006  0.1369653E+03  0.7546771E-02  0.1229688E+00
          1   -1    0    0  501    0  0.00000000000E+00  0.00000000000E+00  0.59166591964E+02  0.59166591964E+02  0.00000000000E+00 0. -1.
         -1   -1    0    0    0  501 -0.00000000000E+00 -0.00000000000E+00 -0.25006305801E+03  0.25006305801E+03  0.00000000000E+00 0.  1.
         23    2    1    2    0    0 -0.35753471995E+02 -0.43085691829E+02 -0.11322942002E+03  0.17770877349E+03  0.12499927607E+03 0.  0.
         23    2    1    2    0    0  0.35753471995E+02  0.43085691829E+02 -0.77667046027E+02  0.13152087648E+03  0.90171410721E+02 0.  0.
          5    1    3    3  502    0  0.17714047771E+02  0.21685280353E+02  0.85940031277E+01  0.29664553969E+02  0.47000000000E+01 0. -1.
         -5    1    3    3    0  502 -0.53467519767E+02 -0.64770972182E+02 -0.12182342314E+03  0.14804421952E+03  0.47000000000E+01 0. -1.
        -11    1    4    4    0    0  0.47377441978E+02  0.24672317964E+02 -0.91337049944E+02  0.10581021678E+03  0.00000000000E+00 0.  1.
         11    1    4    4    0    0 -0.11623969983E+02  0.18413373865E+02  0.13670003916E+02  0.25710659703E+02  0.00000000000E+00 0. -1.
<mgrwt>
<rscale>  0 0.12850712E+03</rscale>
<asrwt>0</asrwt>
<pdfrwt beam="1">  1        1 0.91025526E-02 0.13696535E+03</pdfrwt>
<pdfrwt beam="2">  1       -1 0.38471240E-01 0.13696535E+03</pdfrwt>
<totfact> 0.46126620E+03</totfact>
</mgrwt>
</event>
<event>
 8    1  0.8504141E-006  0.1363804E+03  0.7546771E-02  0.1230840E+00
          3   -1    0    0  501    0  0.00000000000E+00  0.00000000000E+00  0.10208727920E+04  0.10208727920E+04  0.00000000000E+00 0.  1.
         -3   -1    0    0    0  501 -0.00000000000E+00 -0.00000000000E+00 -0.14416183032E+02  0.14416183032E+02  0.00000000000E+00 0. -1.
         23    2    1    2    0    0 -0.15005815971E+01 -0.54705437758E+02  0.51569877672E+03  0.53342743489E+03  0.12491862679E+03 0.  0.
         23    2    1    2    0    0  0.15005815971E+01  0.54705437758E+02  0.49075783228E+03  0.50186154018E+03  0.89592515843E+02 0.  0.
          5    1    3    3  502    0  0.59979872488E+02 -0.14931082228E+02  0.20409614393E+03  0.21330224632E+03  0.47000000000E+01 0. -1.
         -5    1    3    3    0  502 -0.61480454086E+02 -0.39774355530E+02  0.31160263279E+03  0.32012518857E+03  0.47000000000E+01 0. -1.
        -11    1    4    4    0    0 -0.30507068741E+02  0.63487342008E+02  0.36891211954E+03  0.37557619171E+03  0.00000000000E+00 0.  1.
         11    1    4    4    0    0  0.32007650339E+02 -0.87819042498E+01  0.12184571275E+03  0.12628534847E+03  0.00000000000E+00 0. -1.
<mgrwt>
<rscale>  0 0.12774538E+03</rscale>
<asrwt>0</asrwt>
<pdfrwt beam="1">  1        3 0.15705730E+00 0.13638035E+03</pdfrwt>
<pdfrwt beam="2">  1       -3 0.22178751E-02 0.13638035E+03</pdfrwt>
<totfact> 0.57912307E+02</totfact>
</mgrwt>
</event>
<event>
 8    1  0.8504141E-006  0.1750158E+03  0.7546771E-02  0.1179078E+00
         -1   -1    0    0    0  501 -0.00000000000E+00  0.00000000000E+00  0.47951535464E+03  0.47951535464E+03  0.00000000000E+00 0.  1.
          1   -1    0    0  501    0  0.00000000000E+00 -0.00000000000E+00 -0.75827199401E+02  0.75827199401E+02  0.00000000000E+00 0. -1.
         23    2    1    2    0    0  0.71588507660E+02 -0.99468335383E+02  0.35563386259E+03  0.39636595900E+03  0.12494664887E+03 0.  0.
         23    2    1    2    0    0 -0.71588507660E+02  0.99468335383E+02  0.48054292654E+02  0.15897659504E+03  0.89137413891E+02 0.  0.
          5    1    3    3  502    0  0.70988663911E+01 -0.64387235033E+01 -0.93577246993E+01  0.14195354027E+02  0.47000000000E+01 0.  1.
         -5    1    3    3    0  502  0.64489641269E+02 -0.93029611880E+02  0.36499158729E+03  0.38217060498E+03  0.47000000000E+01 0.  1.
        -11    1    4    4    0    0 -0.56088803228E+02  0.97211369596E+02  0.69807775481E+02  0.13217083545E+03  0.00000000000E+00 0.  1.
         11    1    4    4    0    0 -0.15499704433E+02  0.22569657877E+01 -0.21753482827E+02  0.26805759589E+02  0.00000000000E+00 0. -1.
<mgrwt>
<rscale>  0 0.16882614E+03</rscale>
<asrwt>0</asrwt>
<pdfrwt beam="2">  1        1 0.11665723E-01 0.17501580E+03</pdfrwt>
<pdfrwt beam="1">  1       -1 0.73771591E-01 0.17501580E+03</pdfrwt>
<totfact> 0.99661800E+02</totfact>
</mgrwt>
</event>
<event>
 8    1  0.8504141E-006  0.1449495E+03  0.7546771E-02  0.1217187E+00
          2   -1    0    0  501    0  0.00000000000E+00  0.00000000000E+00  0.32235359592E+03  0.32235359592E+03  0.00000000000E+00 0. -1.
         -2   -1    0    0    0  501 -0.00000000000E+00 -0.00000000000E+00 -0.74060297533E+02  0.74060297533E+02  0.00000000000E+00 0.  1.
         23    2    1    2    0    0  0.20614777840E+02  0.70412328887E+02  0.28434184902E+02  0.14771209072E+03  0.12500997460E+03 0.  0.
         23    2    1    2    0    0 -0.20614777840E+02 -0.70412328887E+02  0.21985911348E+03  0.24870180273E+03  0.90175893534E+02 0.  0.
          5    1    3    3  502    0 -0.52784531524E+02  0.32517346183E+02  0.10550128403E+02  0.63063299789E+02  0.47000000000E+01 0.  1.
         -5    1    3    3    0  502  0.73399309365E+02  0.37894982704E+02  0.17884056498E+02  0.84648790931E+02  0.47000000000E+01 0.  1.
        -11    1    4    4    0    0 -0.48132273562E+02 -0.19255866099E+02  0.63950059633E+02  0.82323230407E+02  0.00000000000E+00 0.  1.
         11    1    4    4    0    0  0.27517495722E+02 -0.51156462788E+02  0.15590905385E+03  0.16637857232E+03  0.00000000000E+00 0. -1.
<mgrwt>
<rscale>  0 0.13717115E+03</rscale>
<asrwt>0</asrwt>
<pdfrwt beam="1">  1        2 0.49592860E-01 0.14494950E+03</pdfrwt>
<pdfrwt beam="2">  1       -2 0.11393892E-01 0.14494950E+03</pdfrwt>
<totfact> 0.52321191E+03</totfact>
</mgrwt>
</event>
<event>
 8    1  0.8504141E-006  0.2845812E+03  0.7546771E-02  0.1095029E+00
         -1   -1    0    0    0  501 -0.00000000000E+00  0.00000000000E+00  0.39961707275E+03  0.39961707275E+03  0.00000000000E+00 0.  1.
          1   -1    0    0  501    0  0.00000000000E+00 -0.00000000000E+00 -0.19811340684E+03  0.19811340684E+03  0.00000000000E+00 0. -1.
         23    2    1    2    0    0 -0.11158404084E+02 -0.25541618161E+03  0.14946068232E+03  0.32144202497E+03  0.12499817618E+03 0.  0.
         23    2    1    2    0    0  0.11158404084E+02  0.25541618161E+03  0.52042983585E+02  0.27628845461E+03  0.90911507519E+02 0.  0.
          5    1    3    3  502    0 -0.19899503098E+02 -0.21166705521E+03  0.16985680023E+03  0.27216236894E+03  0.47000000000E+01 0. -1.
         -5    1    3    3    0  502  0.87410990136E+01 -0.43749126404E+02 -0.20396117905E+02  0.49279656032E+02  0.47000000000E+01 0. -1.
        -11    1    4    4    0    0 -0.32441600091E+02  0.14153037265E+03  0.52326355350E+02  0.15434167054E+03  0.00000000000E+00 0. -1.
         11    1    4    4    0    0  0.43600004175E+02  0.11388580896E+03 -0.28337176467E+00  0.12194678408E+03  0.00000000000E+00 0.  1.
<mgrwt>
<rscale>  0 0.28121224E+03</rscale>
<asrwt>0</asrwt>
<pdfrwt beam="2">  1        1 0.30478986E-01 0.28458124E+03</pdfrwt>
<pdfrwt beam="1">  1       -1 0.61479550E-01 0.28458124E+03</pdfrwt>
<totfact> 0.41312990E+02</totfact>
</mgrwt>
</event>
<event>
 8    1  0.8504141E-006  0.1817074E+03  0.7546771E-02  0.1171186E+00
         -1   -1    0    0    0  501 -0.00000000000E+00  0.00000000000E+00  0.29685480179E+03  0.29685480179E+03  0.00000000000E+00 0.  1.
          1   -1    0    0  501    0  0.00000000000E+00 -0.00000000000E+00 -0.10129642298E+03  0.10129642298E+03  0.00000000000E+00 0. -1.
         23    2    1    2    0    0 -0.12962754813E+03 -0.24265346077E+02  0.76465031081E+02  0.19714071946E+03  0.12500181614E+03 0.  0.
         23    2    1    2    0    0  0.12962754813E+03  0.24265346077E+02  0.11909334774E+03  0.20101050531E+03  0.93967491798E+02 0.  0.
          5    1    3    3  502    0  0.19591620958E+02  0.13673754489E+02  0.24580220673E+02  0.34598850008E+02  0.47000000000E+01 0.  1.
         -5    1    3    3    0  502 -0.14921916909E+03 -0.37939100565E+02  0.51884810408E+02  0.16254186946E+03  0.47000000000E+01 0.  1.
        -11    1    4    4    0    0  0.17866968189E+02  0.12355196878E+00  0.77197307159E+02  0.79238046732E+02  0.00000000000E+00 0.  1.
         11    1    4    4    0    0  0.11176057994E+03  0.24141794108E+02  0.41896040577E+02  0.12177245858E+03  0.00000000000E+00 0. -1.
<mgrwt>
<rscale>  0 0.17654792E+03</rscale>
<asrwt>0</asrwt>
<pdfrwt beam="2">  1        1 0.15584065E-01 0.18170735E+03</pdfrwt>
<pdfrwt beam="1">  1       -1 0.45669969E-01 0.18170735E+03</pdfrwt>
<totfact> 0.16975262E+03</totfact>
</mgrwt>
</event>
<event>
 8    1  0.8504141E-006  0.2331086E+03  0.7546771E-02  0.1126948E+00
          2   -1    0    0  501    0  0.00000000000E+00  0.00000000000E+00  0.28280655246E+03  0.28280655246E+03  0.00000000000E+00 0. -1.
         -2   -1    0    0    0  501 -0.00000000000E+00 -0.00000000000E+00 -0.23077145160E+03  0.23077145160E+03  0.00000000000E+00 0.  1.
         23    2    1    2    0    0 -0.19068463553E+03  0.48516764682E+02 -0.92701878395E+02  0.25086501196E+03  0.12500043714E+03 0.  0.
         23    2    1    2    0    0  0.19068463553E+03 -0.48516764682E+02  0.14473697926E+03  0.26271299211E+03  0.96720299713E+02 0.  0.
          5    1    3    3  502    0 -0.12495378339E+02 -0.23376471469E+02 -0.45633848156E+02  0.52982374387E+02  0.47000000000E+01 0. -1.
         -5    1    3    3    0  502 -0.17818925719E+03  0.71893236151E+02 -0.47068030239E+02  0.19788263757E+03  0.47000000000E+01 0. -1.
        -11    1    4    4    0    0  0.55630599544E+02  0.17553629606E+02  0.68971176562E+01  0.58740648191E+02  0.00000000000E+00 0.  1.
         11    1    4    4    0    0  0.13505403598E+03 -0.66070394288E+02  0.13783986160E+03  0.20397234392E+03  0.00000000000E+00 0. -1.
<mgrwt>
<rscale>  0 0.22956317E+03</rscale>
<asrwt>0</asrwt>
<pdfrwt beam="1">  1        2 0.43508700E-01 0.23310859E+03</pdfrwt>
<pdfrwt beam="2">  1       -2 0.35503300E-01 0.23310859E+03</pdfrwt>
<totfact> 0.87207846E+02</totfact>
</mgrwt>
</event>
<event>
 8    1  0.8504141E-006  0.1486813E+03  0.7546771E-02  0.1211276E+00
          2   -1    0    0  501    0  0.00000000000E+00  0.00000000000E+00  0.16070942340E+02  0.16070942340E+02  0.00000000000E+00 0. -1.
         -2   -1    0    0    0  501 -0.00000000000E+00 -0.00000000000E+00 -0.11406721628E+04  0.11406721628E+04  0.00000000000E+00 0.  1.
         23    2    1    2    0    0 -0.81520329346E+01  0.80094990972E+02 -0.61257219000E+03  0.63035768696E+03  0.12499784929E+03 0.  0.
         23    2    1    2    0    0  0.81520329346E+01 -0.80094990972E+02 -0.51202903043E+03  0.52638541815E+03  0.91794429133E+02 0.  0.
          5    1    3    3  502    0  0.36661695867E+02 -0.11754803581E+02 -0.27198483946E+03  0.27473641595E+03  0.47000000000E+01 0.  1.
         -5    1    3    3    0  502 -0.44813728802E+02  0.91849794553E+02 -0.34058735054E+03  0.35562127102E+03  0.47000000000E+01 0.  1.
        -11    1    4    4    0    0  0.31060092908E+01  0.20393855171E+02 -0.11294035757E+03  0.11480888899E+03  0.00000000000E+00 0. -1.
         11    1    4    4    0    0  0.50460236438E+01 -0.10048884614E+03 -0.39908867286E+03  0.41157652917E+03  0.00000000000E+00 0.  1.
<mgrwt>
<rscale>  0 0.14153675E+03</rscale>
<asrwt>0</asrwt>
<pdfrwt beam="1">  1        2 0.24724526E-02 0.14868129E+03</pdfrwt>
<pdfrwt beam="2">  1       -2 0.17548803E+00 0.14868129E+03</pdfrwt>
<totfact> 0.83127707E+02</totfact>
</mgrwt>
</event>
<event>
 8    1  0.8504141E-006  0.1664863E+03  0.7546771E-02  0.1188052E+00
         -2   -1    0    0    0  501 -0.00000000000E+00  0.00000000000E+00  0.80706792452E+02  0.80706792452E+02  0.00000000000E+00 0.  1.
          2   -1    0    0  501    0  0.00000000000E+00 -0.00000000000E+00 -0.32699839145E+03  0.32699839145E+03  0.00000000000E+00 0. -1.
         23    2    1    2    0    0 -0.37805353476E+02 -0.10326196744E+03 -0.71484177368E+02  0.18118409795E+03  0.12500164425E+03 0.  0.
         23    2    1    2    0    0  0.37805353476E+02  0.10326196744E+03 -0.17480742163E+03  0.22652108594E+03  0.93069270171E+02 0.  0.
          5    1    3    3  502    0  0.30916762753E+02 -0.74843745856E+01 -0.52682046961E+02  0.61719933199E+02  0.47000000000E+01 0. -1.
         -5    1    3    3    0  502 -0.68722116230E+02 -0.95777592858E+02 -0.18802130407E+02  0.11946416475E+03  0.47000000000E+01 0. -1.
        -11    1    4    4    0    0  0.44296832859E+02  0.64205143444E+02 -0.16948347822E+03  0.18657212878E+03  0.00000000000E+00 0. -1.
         11    1    4    4    0    0 -0.64914793826E+01  0.39056823999E+02 -0.53239434046E+01  0.39948957169E+02  0.00000000000E+00 0.  1.
<mgrwt>
<rscale>  0 0.16057283E+03</rscale>
<asrwt>0</asrwt>
<pdfrwt beam="2">  1        2 0.50307444E-01 0.16648630E+03</pdfrwt>
<pdfrwt beam="1">  1       -2 0.12416430E-01 0.16648630E+03</pdfrwt>
<totfact> 0.45241101E+03</totfact>
</mgrwt>
</event>
<event>
 8    1  0.8504141E-006  0.1267883E+03  0.7546771E-02  0.1247604E+00
         -3   -1    0    0    0  501 -0.00000000000E+00  0.00000000000E+00  0.72569813256E+02  0.72569813256E+02  0.00000000000E+00 0.  1.
          3   -1    0    0  501    0  0.00000000000E+00 -0.00000000000E+00 -0.32608693621E+03  0.32608693621E+03  0.00000000000E+00 0. -1.
         23    2    1    2    0    0  0.14092148250E+02  0.15864709240E+02  0.19647376341E+01  0.12680351420E+03  0.12499997351E+03 0.  0.
         23    2    1    2    0    0 -0.14092148250E+02 -0.15864709240E+02 -0.25548186059E+03  0.27185323527E+03  0.90459509148E+02 0.  0.
          5    1    3    3  502    0 -0.27930689832E+02 -0.42918669522E+02 -0.12595572582E+02  0.52942176728E+02  0.47000000000E+01 0. -1.
         -5    1    3    3    0  502  0.42022838082E+02  0.58783378762E+02  0.14560310216E+02  0.73861337469E+02  0.47000000000E+01 0. -1.
        -11    1    4    4    0    0  0.18514111353E+02  0.17514825774E+02 -0.21738596696E+02  0.33497880939E+02  0.00000000000E+00 0. -1.
         11    1    4    4    0    0 -0.32606259603E+02 -0.33379535014E+02 -0.23374326389E+03  0.23835535433E+03  0.00000000000E+00 0.  1.
<mgrwt>
<rscale>  0 0.11730887E+03</rscale>
<asrwt>0</asrwt>
<pdfrwt beam="2">  1        3 0.50167222E-01 0.12678829E+03</pdfrwt>
<pdfrwt beam="1">  1       -3 0.11164586E-01 0.12678829E+03</pdfrwt>
<totfact> 0.55885371E+02</totfact>
</mgrwt>
</event>
<event>
 8    1  0.8504141E-006  0.1985186E+03  0.7546771E-02  0.1155282E+00
         -2   -1    0    0    0  501 -0.00000000000E+00  0.00000000000E+00  0.57291850761E+02  0.57291850761E+02  0.00000000000E+00 0.  1.
          2   -1    0    0  501    0  0.00000000000E+00 -0.00000000000E+00 -0.74638287082E+03  0.74638287082E+03  0.00000000000E+00 0. -1.
         23    2    1    2    0    0 -0.10910763660E+03 -0.10899597957E+03 -0.19610541993E+03  0.27904652740E+03  0.12500011519E+03 0.  0.
         23    2    1    2    0    0  0.10910763660E+03  0.10899597957E+03 -0.49298560012E+03  0.52462819418E+03  0.91735163803E+02 0.  0.
          5    1    3    3  502    0  0.25169394112E+02 -0.93285154560E+01 -0.49966885527E+02  0.56914842087E+02  0.47000000000E+01 0. -1.
         -5    1    3    3    0  502 -0.13427703071E+03 -0.99667464115E+02 -0.14613853441E+03  0.22213168531E+03  0.47000000000E+01 0. -1.
        -11    1    4    4    0    0  0.18152463368E+02  0.78196954888E+02 -0.17657307609E+03  0.19396475680E+03  0.00000000000E+00 0. -1.
         11    1    4    4    0    0  0.90955173230E+02  0.30799024683E+02 -0.31641252403E+03  0.33066343739E+03  0.00000000000E+00 0.  1.
<mgrwt>
<rscale>  0 0.19356764E+03</rscale>
<asrwt>0</asrwt>
<pdfrwt beam="2">  1        2 0.11482812E+00 0.19851859E+03</pdfrwt>
<pdfrwt beam="1">  1       -2 0.88141316E-02 0.19851859E+03</pdfrwt>
<totfact> 0.31119551E+03</totfact>
</mgrwt>
</event>
<event>
 8    1  0.8504141E-006  0.1910647E+03  0.7546771E-02  0.1162361E+00
          2   -1    0    0  501    0  0.00000000000E+00  0.00000000000E+00  0.77483418624E+03  0.77483418624E+03  0.00000000000E+00 0.  1.
         -2   -1    0    0    0  501 -0.00000000000E+00 -0.00000000000E+00 -0.42761844578E+02  0.42761844578E+02  0.00000000000E+00 0. -1.
         23    2    1    2    0    0  0.18704473965E+02  0.14328378697E+03  0.34016954261E+03  0.39015514609E+03  0.12500247736E+03 0.  0.
         23    2    1    2    0    0 -0.18704473965E+02 -0.14328378697E+03  0.39190279905E+03  0.42744088473E+03  0.90762354954E+02 0.  0.
          5    1    3    3  502    0  0.67322413324E+02  0.11564772299E+03  0.25755741016E+03  0.29028367625E+03  0.47000000000E+01 0.  1.
         -5    1    3    3    0  502 -0.48617939360E+02  0.27636063980E+02  0.82612132456E+02  0.99871469844E+02  0.47000000000E+01 0.  1.
        -11    1    4    4    0    0 -0.48316471831E+02 -0.64648144889E+02  0.24799835561E+03  0.26080078311E+03  0.00000000000E+00 0. -1.
         11    1    4    4    0    0  0.29611997867E+02 -0.78635642084E+02  0.14390444345E+03  0.16664010162E+03  0.00000000000E+00 0.  1.
<mgrwt>
<rscale>  0 0.18573997E+03</rscale>
<asrwt>0</asrwt>
<pdfrwt beam="1">  1        2 0.11920525E+00 0.19106470E+03</pdfrwt>
<pdfrwt beam="2">  1       -2 0.65787459E-02 0.19106470E+03</pdfrwt>
<totfact> 0.46736639E+03</totfact>
</mgrwt>
</event>
<event>
 8    1  0.8504141E-006  0.2557189E+03  0.7546771E-02  0.1112048E+00
         -1   -1    0    0    0  501 -0.00000000000E+00  0.00000000000E+00  0.19422258591E+03  0.19422258591E+03  0.00000000000E+00 0.  1.
          1   -1    0    0  501    0  0.00000000000E+00 -0.00000000000E+00 -0.34038449526E+03  0.34038449526E+03  0.00000000000E+00 0. -1.
         23    2    1    2    0    0 -0.21942711805E+03 -0.40203875948E+02 -0.62394184131E+01  0.25579498234E+03  0.12501012307E+03 0.  0.
         23    2    1    2    0    0  0.21942711805E+03  0.40203875948E+02 -0.13992249094E+03  0.27881209883E+03  0.91614797986E+02 0.  0.
          5    1    3    3  502    0 -0.23371561557E+03 -0.29899911765E+02  0.22613754455E+01  0.23567816510E+03  0.47000000000E+01 0. -1.
         -5    1    3    3    0  502  0.14288497526E+02 -0.10303964183E+02 -0.85007938586E+01  0.20116817235E+02  0.47000000000E+01 0. -1.
        -11    1    4    4    0    0  0.91606400351E+02 -0.18132772927E+02 -0.90024789374E+02  0.12971118973E+03  0.00000000000E+00 0. -1.
         11    1    4    4    0    0  0.12782071770E+03  0.58336648875E+02 -0.49897701566E+02  0.14910090910E+03  0.00000000000E+00 0.  1.
<mgrwt>
<rscale>  0 0.25199862E+03</rscale>
<asrwt>0</asrwt>
<pdfrwt beam="2">  1        1 0.52366845E-01 0.25571887E+03</pdfrwt>
<pdfrwt beam="1">  1       -1 0.29880398E-01 0.25571887E+03</pdfrwt>
<totfact> 0.76946512E+02</totfact>
</mgrwt>
</event>
<event>
 8    1  0.8504141E-006  0.1401928E+03  0.7546771E-02  0.1226014E+00
          1   -1    0    0  501    0  0.00000000000E+00  0.00000000000E+00  0.21324207540E+02  0.21324207540E+02  0.00000000000E+00 0. -1.
         -1   -1    0    0    0  501 -0.00000000000E+00 -0.00000000000E+00 -0.94064595896E+03  0.94064595896E+03  0.00000000000E+00 0.  1.
         23    2    1    2    0    0  0.46082356582E+02  0.43624181709E+02 -0.74070614504E+03  0.75385649113E+03  0.12500945204E+03 0.  0.
         23    2    1    2    0    0 -0.46082356582E+02 -0.43624181709E+02 -0.17861560638E+03  0.20811367537E+03  0.85913411154E+02 0.  0.
          5    1    3    3  502    0  0.23255659081E+02  0.58521616896E+02 -0.15326432708E+03  0.16576383586E+03  0.47000000000E+01 0. -1.
         -5    1    3    3    0  502  0.22826697501E+02 -0.14897435187E+02 -0.58744181796E+03  0.58809265527E+03  0.47000000000E+01 0. -1.
        -11    1    4    4    0    0 -0.71502473220E+02 -0.35557504838E+02 -0.12710889210E+03  0.15011199245E+03  0.00000000000E+00 0.  1.
         11    1    4    4    0    0  0.25420116638E+02 -0.80666768711E+01 -0.51506714279E+02  0.58001682919E+02  0.00000000000E+00 0. -1.
<mgrwt>
<rscale>  0 0.13097678E+03</rscale>
<asrwt>0</asrwt>
<pdfrwt beam="1">  1        1 0.32806483E-02 0.14019278E+03</pdfrwt>
<pdfrwt beam="2">  1       -1 0.14471472E+00 0.14019278E+03</pdfrwt>
<totfact> 0.12219929E+03</totfact>
</mgrwt>
</event>
<event>
 8    1  0.8504141E-006  0.1288599E+03  0.7546771E-02  0.1241706E+00
          2   -1    0    0  501    0  0.00000000000E+00  0.00000000000E+00  0.84726142202E+03  0.84726142202E+03  0.00000000000E+00 0. -1.
         -2   -1    0    0    0  501 -0.00000000000E+00 -0.00000000000E+00 -0.15529817320E+02  0.15529817320E+02  0.00000000000E+00 0.  1.
         23    2    1    2    0    0  0.18815188446E+02 -0.25002378543E+02  0.43113278271E+03  0.44997816173E+03  0.12500295779E+03 0.  0.
         23    2    1    2    0    0 -0.18815188446E+02  0.25002378543E+02  0.40059882199E+03  0.41281307761E+03  0.94636624084E+02 0.  0.
          5    1    3    3  502    0  0.51674096880E+02  0.91721510378E+01  0.36321545083E+03  0.36701756683E+03  0.47000000000E+01 0.  1.
         -5    1    3    3    0  502 -0.32858908434E+02 -0.34174529581E+02  0.67917331881E+02  0.82960594895E+02  0.47000000000E+01 0.  1.
        -11    1    4    4    0    0  0.76749931852E+01 -0.33747378363E+02  0.16265880642E+03  0.16629996505E+03  0.00000000000E+00 0. -1.
         11    1    4    4    0    0 -0.26490181631E+02  0.58749756906E+02  0.23794001557E+03  0.24651311257E+03  0.00000000000E+00 0.  1.
<mgrwt>
<rscale>  0 0.12084689E+03</rscale>
<asrwt>0</asrwt>
<pdfrwt beam="1">  1        2 0.13034787E+00 0.12885988E+03</pdfrwt>
<pdfrwt beam="2">  1       -2 0.23892033E-02 0.12885988E+03</pdfrwt>
<totfact> 0.18538826E+04</totfact>
</mgrwt>
</event>
<event>
 8    1  0.8504141E-006  0.1332879E+03  0.7546771E-02  0.1229858E+00
         -1   -1    0    0    0  501 -0.00000000000E+00  0.00000000000E+00  0.67207470685E+03  0.67207470685E+03  0.00000000000E+00 0.  1.
          1   -1    0    0  501    0  0.00000000000E+00 -0.00000000000E+00 -0.24213916900E+02  0.24213916900E+02  0.00000000000E+00 0. -1.
         23    2    1    2    0    0  0.42104750449E+02  0.19223383097E+02  0.42804793533E+03  0.44831986088E+03  0.12499325680E+03 0.  0.
         23    2    1    2    0    0 -0.42104750449E+02 -0.19223383097E+02  0.21981285462E+03  0.24796876288E+03  0.10501651222E+03 0.  0.
          5    1    3    3  502    0  0.52360879759E+02 -0.59714308224E+01  0.63176270759E+02  0.82405405783E+02  0.47000000000E+01 0.  1.
         -5    1    3    3    0  502 -0.10256129310E+02  0.25194813920E+02  0.36487166457E+03  0.36591445509E+03  0.47000000000E+01 0.  1.
        -11    1    4    4    0    0  0.21130297441E+01 -0.29591846756E+02  0.71585889868E+01  0.30518644882E+02  0.00000000000E+00 0. -1.
         11    1    4    4    0    0 -0.44217780193E+02  0.10368463659E+02  0.21265426563E+03  0.21745011799E+03  0.00000000000E+00 0.  1.
<mgrwt>
<rscale>  0 0.12839397E+03</rscale>
<asrwt>0</asrwt>
<pdfrwt beam="2">  1        1 0.37252185E-02 0.13328789E+03</pdfrwt>
<pdfrwt beam="1">  1       -1 0.10339609E+00 0.13328789E+03</pdfrwt>
<totfact> 0.22727739E+03</totfact>
</mgrwt>
</event>
<event>
 8    1  0.8504141E-006  0.1299560E+03  0.7546771E-02  0.1247809E+00
          3   -1    0    0  501    0  0.00000000000E+00  0.00000000000E+00  0.62428320759E+02  0.62428320759E+02  0.00000000000E+00 0. -1.
         -3   -1    0    0    0  501 -0.00000000000E+00 -0.00000000000E+00 -0.18962792064E+03  0.18962792064E+03  0.00000000000E+00 0.  1.
         23    2    1    2    0    0 -0.28353624522E+02 -0.21425101881E+02 -0.91856836206E+02  0.15914219857E+03  0.12500239195E+03 0.  0.
         23    2    1    2    0    0  0.28353624522E+02  0.21425101881E+02 -0.35342763671E+02  0.92914042825E+02  0.78236471010E+02 0.  0.
          5    1    3    3  502    0 -0.34132887276E+02 -0.67288520939E+02 -0.28982639065E+02  0.80962228299E+02  0.47000000000E+01 0. -1.
         -5    1    3    3    0  502  0.57792627536E+01  0.45863419058E+02 -0.62874197141E+02  0.78179970272E+02  0.47000000000E+01 0. -1.
        -11    1    4    4    0    0  0.40077408303E+02  0.44549723702E+02 -0.26485809920E+02  0.65516216812E+02  0.00000000000E+00 0. -1.
         11    1    4    4    0    0 -0.11723783781E+02 -0.23124621821E+02 -0.88569537513E+01  0.27397826014E+02  0.00000000000E+00 0.  1.
<mgrwt>
<rscale>  0 0.11718797E+03</rscale>
<asrwt>0</asrwt>
<pdfrwt beam="1">  1        3 0.96043572E-02 0.12995600E+03</pdfrwt>
<pdfrwt beam="2">  1       -3 0.29173526E-01 0.12995600E+03</pdfrwt>
<totfact> 0.20298951E+03</totfact>
</mgrwt>
</event>
<event>
 8    1  0.8504141E-006  0.1485340E+03  0.7546771E-02  0.1211606E+00
         -1   -1    0    0    0  501 -0.00000000000E+00  0.00000000000E+00  0.74157028201E+02  0.74157028201E+02  0.00000000000E+00 0.  1.
          1   -1    0    0  501    0  0.00000000000E+00 -0.00000000000E+00 -0.27693087124E+03  0.27693087124E+03  0.00000000000E+00 0. -1.
         23    2    1    2    0    0 -0.74545741665E+02  0.29650731652E+02 -0.51968698426E+02  0.15736290748E+03  0.12500442211E+03 0.  0.
         23    2    1    2    0    0  0.74545741665E+02 -0.29650731652E+02 -0.15080514461E+03  0.19372499195E+03  0.91383518096E+02 0.  0.
          5    1    3    3  502    0 -0.39500703993E+01  0.32173498151E+02  0.33182254348E+02  0.46624983035E+02  0.47000000000E+01 0.  1.
         -5    1    3    3    0  502 -0.70595671266E+02 -0.25227664983E+01 -0.85150952774E+02  0.11073792445E+03  0.47000000000E+01 0.  1.
        -11    1    4    4    0    0  0.37098377436E+02 -0.17445838495E+02 -0.14873844563E+03  0.15428471116E+03  0.00000000000E+00 0. -1.
         11    1    4    4    0    0  0.37447364229E+02 -0.12204893157E+02 -0.20666989803E+01  0.39440280797E+02  0.00000000000E+00 0.  1.
<mgrwt>
<rscale>  0 0.14128791E+03</rscale>
<asrwt>0</asrwt>
<pdfrwt beam="2">  1        1 0.42604750E-01 0.14853397E+03</pdfrwt>
<pdfrwt beam="1">  1       -1 0.11408773E-01 0.14853397E+03</pdfrwt>
<totfact> 0.46408895E+03</totfact>
</mgrwt>
</event>
<event>
 8    1  0.8504141E-006  0.1462911E+03  0.7546771E-02  0.1214733E+00
          1   -1    0    0  501    0  0.00000000000E+00  0.00000000000E+00  0.38630426035E+02  0.38630426035E+02  0.00000000000E+00 0. -1.
         -1   -1    0    0    0  501 -0.00000000000E+00 -0.00000000000E+00 -0.47690106594E+03  0.47690106594E+03  0.00000000000E+00 0.  1.
         23    2    1    2    0    0 -0.30868710118E+02  0.69450116443E+02 -0.29451221807E+03  0.32884424098E+03  0.12499956918E+03 0.  0.
         23    2    1    2    0    0  0.30868710118E+02 -0.69450116443E+02 -0.14375842183E+03  0.18668725099E+03  0.91703052824E+02 0.  0.
          5    1    3    3  502    0  0.17321953061E+02  0.17266226475E+02 -0.23426417435E+03  0.23558430767E+03  0.47000000000E+01 0. -1.
         -5    1    3    3    0  502 -0.48190663179E+02  0.52183889968E+02 -0.60248043721E+02  0.93259933316E+02  0.47000000000E+01 0. -1.
        -11    1    4    4    0    0  0.40813733513E+02 -0.28135632641E+02 -0.13429441963E+03  0.14315154841E+03  0.00000000000E+00 0.  1.
         11    1    4    4    0    0 -0.99450233952E+01 -0.41314483802E+02 -0.94640022055E+01  0.43535702589E+02  0.00000000000E+00 0. -1.
<mgrwt>
<rscale>  0 0.13896153E+03</rscale>
<asrwt>0</asrwt>
<pdfrwt beam="1">  1        1 0.59431428E-02 0.14629111E+03</pdfrwt>
<pdfrwt beam="2">  1       -1 0.73369390E-01 0.14629111E+03</pdfrwt>
<totfact> 0.24787513E+03</totfact>
</mgrwt>
</event>
<event>
 8    1  0.8504141E-006  0.1622945E+03  0.7546771E-02  0.1193713E+00
         -1   -1    0    0    0  501 -0.00000000000E+00  0.00000000000E+00  0.32548610083E+02  0.32548610083E+02  0.00000000000E+00 0.  1.
          1   -1    0    0  501    0  0.00000000000E+00 -0.00000000000E+00 -0.71888753619E+03  0.71888753619E+03  0.00000000000E+00 0. -1.
         23    2    1    2    0    0 -0.62232368388E+02  0.82710273458E+02 -0.29458693688E+03  0.33633462926E+03  0.12500264975E+03 0.  0.
         23    2    1    2    0    0  0.62232368388E+02 -0.82710273458E+02 -0.39175198922E+03  0.41510151701E+03  0.90143171438E+02 0.  0.
          5    1    3    3  502    0 -0.58405821479E+02 -0.47675825176E+01 -0.19488157292E+03  0.20355561227E+03  0.47000000000E+01 0. -1.
         -5    1    3    3    0  502 -0.38265469094E+01  0.87477855976E+02 -0.99705363968E+02  0.13277901698E+03  0.47000000000E+01 0. -1.
        -11    1    4    4    0    0 -0.19868879758E+02 -0.27989498074E+02 -0.15226814569E+03  0.15608898928E+03  0.00000000000E+00 0.  1.
         11    1    4    4    0    0  0.82101248146E+02 -0.54720775385E+02 -0.23948384354E+03  0.25901252773E+03  0.00000000000E+00 0. -1.
<mgrwt>
<rscale>  0 0.15563671E+03</rscale>
<asrwt>0</asrwt>
<pdfrwt beam="2">  1        1 0.11059808E+00 0.16229455E+03</pdfrwt>
<pdfrwt beam="1">  1       -1 0.50074787E-02 0.16229455E+03</pdfrwt>
<totfact> 0.46574753E+03</totfact>
</mgrwt>
</event>
<event>
 7    1  0.8504141E-006  0.3018681E+03  0.7546771E-02  0.1109057E+00
          1   -1    0    0  501    0  0.00000000000E+00  0.00000000000E+00  0.10153051553E+04  0.10153051553E+04  0.00000000000E+00 0. -1.
         -1   -1    0    0    0  501 -0.00000000000E+00 -0.00000000000E+00 -0.67997273122E+02  0.67997273122E+02  0.00000000000E+00 0.  1.
         23    2    1    2    0    0 -0.25535980991E+02 -0.12642575396E+03  0.61206977654E+03  0.63218274872E+03  0.91597264312E+02 0.  0.
          5    1    1    2  502    0 -0.98745258267E+02  0.12754722494E+03  0.25924216078E+03  0.30536455024E+03  0.47000000000E+01 0. -1.
         -5    1    1    2    0  502  0.12428123926E+03 -0.11214709858E+01  0.75995944851E+02  0.14575512945E+03  0.47000000000E+01 0.  1.
        -11    1    3    3    0    0  0.14675694318E+02  0.70961125727E+01  0.36721778818E+02  0.40177355026E+02  0.00000000000E+00 0.  1.
         11    1    3    3    0    0 -0.40211675309E+02 -0.13352186653E+03  0.57534799772E+03  0.59200539369E+03  0.00000000000E+00 0. -1.
<mgrwt>
<rscale>  0 0.25683906E+03</rscale>
<asrwt>0</asrwt>
<pdfrwt beam="1">  1        1 0.15620078E+00 0.30186815E+03</pdfrwt>
<pdfrwt beam="2">  1       -1 0.10461120E-01 0.30186815E+03</pdfrwt>
<totfact> 0.88531564E+02</totfact>
</mgrwt>
</event>
<event>
 8    1  0.8504141E-006  0.1431225E+03  0.7546771E-02  0.1219560E+00
          2   -1    0    0  501    0  0.00000000000E+00  0.00000000000E+00  0.18073280157E+03  0.18073280157E+03  0.00000000000E+00 0. -1.
         -2   -1    0    0    0  501 -0.00000000000E+00 -0.00000000000E+00 -0.10365174531E+03  0.10365174531E+03  0.00000000000E+00 0.  1.
         23    2    1    2    0    0  0.33128345354E+02  0.61327952524E+02 -0.49792501187E+01  0.14320903885E+03  0.12500172339E+03 0.  0.
         23    2    1    2    0    0 -0.33128345354E+02 -0.61327952524E+02  0.82060306382E+02  0.14117550803E+03  0.91312787481E+02 0.  0.
          5    1    3    3  502    0 -0.13841607561E+02  0.62857553443E+02 -0.47124808118E+02  0.79909321514E+02  0.47000000000E+01 0. -1.
         -5    1    3    3    0  502  0.46969952915E+02 -0.15296009197E+01  0.42145557999E+02  0.63299717336E+02  0.47000000000E+01 0. -1.
        -11    1    4    4    0    0 -0.42857824054E+02 -0.69010245520E+01  0.73308878638E+02  0.85197470089E+02  0.00000000000E+00 0. -1.
         11    1    4    4    0    0  0.97294786996E+01 -0.54426927972E+02  0.87514277447E+01  0.55978037941E+02  0.00000000000E+00 0.  1.
<mgrwt>
<rscale>  0 0.13546862E+03</rscale>
<asrwt>0</asrwt>
<pdfrwt beam="1">  1        2 0.27805046E-01 0.14312245E+03</pdfrwt>
<pdfrwt beam="2">  1       -2 0.15946422E-01 0.14312245E+03</pdfrwt>
<totfact> 0.56416137E+03</totfact>
</mgrwt>
</event>
<event>
 8    1  0.8504141E-006  0.1890040E+03  0.7546771E-02  0.1165134E+00
          2   -1    0    0  501    0  0.00000000000E+00  0.00000000000E+00  0.99096554107E+03  0.99096554107E+03  0.00000000000E+00 0. -1.
         -2   -1    0    0    0  501 -0.00000000000E+00 -0.00000000000E+00 -0.31694282070E+02  0.31694282070E+02  0.00000000000E+00 0.  1.
         23    2    1    2    0    0 -0.13007634440E+03 -0.56347683988E+02  0.49889109800E+03  0.53349304463E+03  0.12501033610E+03 0.  0.
         23    2    1    2    0    0  0.13007634440E+03  0.56347683988E+02  0.46038016100E+03  0.48916677852E+03  0.85084238851E+02 0.  0.
          5    1    3    3  502    0 -0.10148523366E+03  0.16838848046E+02  0.35309548756E+03  0.36780608041E+03  0.47000000000E+01 0. -1.
         -5    1    3    3    0  502 -0.28591110747E+02 -0.73186532034E+02  0.14579561044E+03  0.16568696421E+03  0.47000000000E+01 0. -1.
        -11    1    4    4    0    0  0.84307773176E+02  0.31542002809E+02  0.39734756271E+03  0.40741598416E+03  0.00000000000E+00 0. -1.
         11    1    4    4    0    0  0.45768571227E+02  0.24805681179E+02  0.63032598289E+02  0.81750794357E+02  0.00000000000E+00 0.  1.
<mgrwt>
<rscale>  0 0.18278543E+03</rscale>
<asrwt>0</asrwt>
<pdfrwt beam="1">  1        2 0.15245621E+00 0.18900397E+03</pdfrwt>
<pdfrwt beam="2">  1       -2 0.48760442E-02 0.18900397E+03</pdfrwt>
<totfact> 0.53395650E+03</totfact>
</mgrwt>
</event>
<event>
 8    1  0.8504141E-006  0.1938212E+03  0.7546771E-02  0.1159312E+00
          2   -1    0    0  501    0  0.00000000000E+00  0.00000000000E+00  0.13440556866E+03  0.13440556866E+03  0.00000000000E+00 0. -1.
         -2   -1    0    0    0  501 -0.00000000000E+00 -0.00000000000E+00 -0.29030553312E+03  0.29030553312E+03  0.00000000000E+00 0.  1.
         23    2    1    2    0    0 -0.14807342571E+03  0.41004895790E+01 -0.15670427755E+03  0.24924461150E+03  0.12499636933E+03 0.  0.
         23    2    1    2    0    0  0.14807342571E+03 -0.41004895790E+01  0.80431308845E+00  0.17546649028E+03  0.94049395924E+02 0.  0.
          5    1    3    3  502    0 -0.10505236724E+03 -0.41150609022E+02 -0.14779913516E+03  0.18600012591E+03  0.47000000000E+01 0.  1.
         -5    1    3    3    0  502 -0.43021058476E+02  0.45251098601E+02 -0.89051423887E+01  0.63244485593E+02  0.47000000000E+01 0.  1.
        -11    1    4    4    0    0  0.15940679003E+03 -0.10994266221E+02  0.87123803678E+01  0.16002282390E+03  0.00000000000E+00 0.  1.
         11    1    4    4    0    0 -0.11333364316E+02  0.68937766418E+01 -0.79080672794E+01  0.15443666378E+02  0.00000000000E+00 0. -1.
<mgrwt>
<rscale>  0 0.18905942E+03</rscale>
<asrwt>0</asrwt>
<pdfrwt beam="1">  1        2 0.20677780E-01 0.19382117E+03</pdfrwt>
<pdfrwt beam="2">  1       -2 0.44662389E-01 0.19382117E+03</pdfrwt>
<totfact> 0.12722437E+03</totfact>
</mgrwt>
</event>
<event>
 8    1  0.8504141E-006  0.1733678E+03  0.7546771E-02  0.1179767E+00
          1   -1    0    0  501    0  0.00000000000E+00  0.00000000000E+00  0.97476072538E+03  0.97476072538E+03  0.00000000000E+00 0. -1.
         -1   -1    0    0    0  501 -0.00000000000E+00 -0.00000000000E+00 -0.28561681494E+02  0.28561681494E+02  0.00000000000E+00 0.  1.
         23    2    1    2    0    0  0.11477876830E+03  0.35509645312E+02  0.39980079449E+03  0.43577180780E+03  0.12498516966E+03 0.  0.
         23    2    1    2    0    0 -0.11477876830E+03 -0.35509645312E+02  0.54639824940E+03  0.56755059908E+03  0.95538133779E+02 0.  0.
          5    1    3    3  502    0  0.84516062467E+02 -0.38677562376E+02  0.21951619153E+03  0.23842895585E+03  0.47000000000E+01 0. -1.
         -5    1    3    3    0  502  0.30262705831E+02  0.74187207689E+02  0.18028460296E+03  0.19734285195E+03  0.47000000000E+01 0. -1.
        -11    1    4    4    0    0 -0.95844898836E+01  0.28464052982E+02  0.12306818682E+03  0.12668008275E+03  0.00000000000E+00 0. -1.
         11    1    4    4    0    0 -0.10519427841E+03 -0.63973698294E+02  0.42333006258E+03  0.44087051633E+03  0.00000000000E+00 0.  1.
<mgrwt>
<rscale>  0 0.16817224E+03</rscale>
<asrwt>0</asrwt>
<pdfrwt beam="1">  1        1 0.14996316E+00 0.17336780E+03</pdfrwt>
<pdfrwt beam="2">  1       -1 0.43941056E-02 0.17336780E+03</pdfrwt>
<totfact> 0.35295557E+03</totfact>
</mgrwt>
</event>
<event>
 8    1  0.8504141E-006  0.1421165E+03  0.7546771E-02  0.1221178E+00
         -4   -1    0    0    0  501 -0.00000000000E+00  0.00000000000E+00  0.55744149536E+02  0.55744149536E+02  0.00000000000E+00 0.  1.
          4   -1    0    0  501    0  0.00000000000E+00 -0.00000000000E+00 -0.29315176583E+03  0.29315176583E+03  0.00000000000E+00 0. -1.
         23    2    1    2    0    0  0.65086187700E+02 -0.18180466237E+02 -0.12636806667E+03  0.19017360654E+03  0.12502148283E+03 0.  0.
         23    2    1    2    0    0 -0.65086187700E+02  0.18180466237E+02 -0.11103954963E+03  0.15872230883E+03  0.91083744736E+02 0.  0.
          5    1    3    3  502    0 -0.17483077975E+02 -0.14521749754E+02 -0.10093827152E+03  0.10357202271E+03  0.47000000000E+01 0.  1.
         -5    1    3    3    0  502  0.82569265675E+02 -0.36587164834E+01 -0.25429795146E+02  0.86601583828E+02  0.47000000000E+01 0.  1.
        -11    1    4    4    0    0 -0.65352360685E+02  0.46076868066E+02 -0.57963876904E+02  0.98761428927E+02  0.00000000000E+00 0.  1.
         11    1    4    4    0    0  0.26617298456E+00 -0.27896401829E+02 -0.53075672724E+02  0.59960879899E+02  0.00000000000E+00 0. -1.
<mgrwt>
<rscale>  0 0.13432326E+03</rscale>
<asrwt>0</asrwt>
<pdfrwt beam="2">  1        4 0.45100272E-01 0.14211654E+03</pdfrwt>
<pdfrwt beam="1">  1       -4 0.85760229E-02 0.14211654E+03</pdfrwt>
<totfact> 0.78540892E+02</totfact>
</mgrwt>
</event>
<event>
 8    1  0.8504141E-006  0.1292252E+03  0.7546771E-02  0.1243031E+00
         -2   -1    0    0    0  501 -0.00000000000E+00  0.00000000000E+00  0.65444426459E+02  0.65444426459E+02  0.00000000000E+00 0.  1.
          2   -1    0    0  501    0  0.00000000000E+00 -0.00000000000E+00 -0.20527845984E+03  0.20527845984E+03  0.00000000000E+00 0. -1.
         23    2    1    2    0    0  0.21023456756E+02 -0.25148372046E+02 -0.48407614811E+02  0.13799434119E+03  0.12499885871E+03 0.  0.
         23    2    1    2    0    0 -0.21023456756E+02  0.25148372046E+02 -0.91426418575E+02  0.13272854511E+03  0.90463530347E+02 0.  0.
          5    1    3    3  502    0  0.62111445982E+02 -0.30687137287E+02 -0.63032679109E+02  0.93780279124E+02  0.47000000000E+01 0. -1.
         -5    1    3    3    0  502 -0.41087989226E+02  0.55387652417E+01  0.14625064299E+02  0.44214062070E+02  0.47000000000E+01 0. -1.
        -11    1    4    4    0    0  0.30755629173E+02  0.83042738853E+01 -0.75683742721E+01  0.32743701374E+02  0.00000000000E+00 0.  1.
         11    1    4    4    0    0 -0.51779085928E+02  0.16844098160E+02 -0.83858044303E+02  0.99984843735E+02  0.00000000000E+00 0. -1.
<mgrwt>
<rscale>  0 0.12003984E+03</rscale>
<asrwt>0</asrwt>
<pdfrwt beam="2">  1        2 0.31581301E-01 0.12922516E+03</pdfrwt>
<pdfrwt beam="1">  1       -2 0.10068374E-01 0.12922516E+03</pdfrwt>
<totfact> 0.10211825E+04</totfact>
</mgrwt>
</event>
<event>
 8    1  0.8504141E-006  0.1305711E+03  0.7546771E-02  0.1241111E+00
         -1   -1    0    0    0  501 -0.00000000000E+00  0.00000000000E+00  0.19303734577E+03  0.19303734577E+03  0.00000000000E+00 0.  1.
          1   -1    0    0  501    0  0.00000000000E+00 -0.00000000000E+00 -0.69469496561E+02  0.69469496561E+02  0.00000000000E+00 0. -1.
         23    2    1    2    0    0 -0.22523591817E+02  0.30275395052E+02  0.94810308705E+02  0.16136236821E+03  0.12499963002E+03 0.  0.
         23    2    1    2    0    0  0.22523591817E+02 -0.30275395052E+02  0.28757540509E+02  0.10114447412E+03  0.89326909584E+02 0.  0.
          5    1    3    3  502    0 -0.46614026978E+02 -0.33212479132E+02  0.65894782452E+02  0.87407943779E+02  0.47000000000E+01 0.  1.
         -5    1    3    3    0  502  0.24090435161E+02  0.63487874184E+02  0.28915526253E+02  0.73954424433E+02  0.47000000000E+01 0.  1.
        -11    1    4    4    0    0 -0.28250478951E+02  0.95700063424E+01  0.20232292193E+02  0.36041923225E+02  0.00000000000E+00 0.  1.
         11    1    4    4    0    0  0.50774070769E+02 -0.39845401395E+02  0.85252483152E+01  0.65102550899E+02  0.00000000000E+00 0. -1.
<mgrwt>
<rscale>  0 0.12121179E+03</rscale>
<asrwt>0</asrwt>
<pdfrwt beam="2">  1        1 0.10687615E-01 0.13057113E+03</pdfrwt>
<pdfrwt beam="1">  1       -1 0.29698053E-01 0.13057113E+03</pdfrwt>
<totfact> 0.57813853E+03</totfact>
</mgrwt>
</event>
<event>
 8    1  0.8504141E-006  0.2113193E+03  0.7546771E-02  0.1143916E+00
          1   -1    0    0  501    0  0.00000000000E+00  0.00000000000E+00  0.65828722236E+03  0.65828722236E+03  0.00000000000E+00 0. -1.
         -1   -1    0    0    0  501 -0.00000000000E+00 -0.00000000000E+00 -0.66628814981E+02  0.66628814981E+02  0.00000000000E+00 0.  1.
         23    2    1    2    0    0  0.93490742837E+02 -0.14244584927E+03  0.21845549065E+03  0.30393854336E+03  0.12499799108E+03 0.  0.
         23    2    1    2    0    0 -0.93490742837E+02  0.14244584927E+03  0.37320291673E+03  0.42097749398E+03  0.94394355821E+02 0.  0.
          5    1    3    3  502    0 -0.30660966105E+02 -0.23450002290E+02  0.47788814405E+02  0.61610536697E+02  0.47000000000E+01 0. -1.
         -5    1    3    3    0  502  0.12415170894E+03 -0.11899584698E+03  0.17066667624E+03  0.24232800666E+03  0.47000000000E+01 0. -1.
        -11    1    4    4    0    0 -0.43133848645E+02  0.65345396703E+02  0.73298138476E+02  0.10725281755E+03  0.00000000000E+00 0.  1.
         11    1    4    4    0    0 -0.50356894192E+02  0.77100452571E+02  0.29990477826E+03  0.31372467643E+03  0.00000000000E+00 0. -1.
<mgrwt>
<rscale>  0 0.20705887E+03</rscale>
<asrwt>0</asrwt>
<pdfrwt beam="1">  1        1 0.10127495E+00 0.21131928E+03</pdfrwt>
<pdfrwt beam="2">  1       -1 0.10250587E-01 0.21131928E+03</pdfrwt>
<totfact> 0.18004420E+03</totfact>
</mgrwt>
</event>
<event>
 8    1  0.8504141E-006  0.3261042E+03  0.7546771E-02  0.1074174E+00
         -2   -1    0    0    0  501 -0.00000000000E+00  0.00000000000E+00  0.30541220954E+03  0.30541220954E+03  0.00000000000E+00 0.  1.
          2   -1    0    0  501    0  0.00000000000E+00 -0.00000000000E+00 -0.35525588363E+03  0.35525588363E+03  0.00000000000E+00 0. -1.
         23    2    1    2    0    0 -0.28433280694E+03 -0.99377741736E+02  0.51213424591E+02  0.33010118395E+03  0.12499158424E+03 0.  0.
         23    2    1    2    0    0  0.28433280694E+03  0.99377741736E+02 -0.10105709868E+03  0.33056690923E+03  0.91328328745E+02 0.  0.
          5    1    3    3  502    0 -0.91992134679E+02 -0.27511729377E+02 -0.41567288482E+02  0.10473479636E+03  0.47000000000E+01 0.  1.
         -5    1    3    3    0  502 -0.19234067226E+03 -0.71866012359E+02  0.92780713073E+02  0.22536638759E+03  0.47000000000E+01 0.  1.
        -11    1    4    4    0    0  0.25906609482E+03  0.79859521745E+02 -0.11653956443E+03  0.29508347086E+03  0.00000000000E+00 0. -1.
         11    1    4    4    0    0  0.25266712116E+02  0.19518219991E+02  0.15482465748E+02  0.35483438368E+02  0.00000000000E+00 0.  1.
<mgrwt>
<rscale>  0 0.32322556E+03</rscale>
<asrwt>0</asrwt>
<pdfrwt beam="2">  1        2 0.54654751E-01 0.32610424E+03</pdfrwt>
<pdfrwt beam="1">  1       -2 0.46986494E-01 0.32610424E+03</pdfrwt>
<totfact> 0.39704938E+02</totfact>
</mgrwt>
</event>
<event>
 8    1  0.8504141E-006  0.1336011E+03  0.7546771E-02  0.1235703E+00
          1   -1    0    0  501    0  0.00000000000E+00  0.00000000000E+00  0.72386072116E+03  0.72386072116E+03  0.00000000000E+00 0. -1.
         -1   -1    0    0    0  501 -0.00000000000E+00 -0.00000000000E+00 -0.19793922040E+02  0.19793922040E+02  0.00000000000E+00 0.  1.
         23    2    1    2    0    0  0.20010455266E+02 -0.42711865532E+02  0.32600997436E+03  0.35232338121E+03  0.12499815915E+03 0.  0.
         23    2    1    2    0    0 -0.20010455266E+02  0.42711865532E+02  0.37805682476E+03  0.39133126199E+03  0.89378252850E+02 0.  0.
          5    1    3    3  502    0  0.53834582448E+02  0.12315341208E+02  0.22950170457E+03  0.23609945425E+03  0.47000000000E+01 0.  1.
         -5    1    3    3    0  502 -0.33824127182E+02 -0.55027206740E+02  0.96508269791E+02  0.11622392697E+03  0.47000000000E+01 0.  1.
        -11    1    4    4    0    0  0.32387385527E+02  0.12799443856E+02  0.80351979258E+02  0.87574020548E+02  0.00000000000E+00 0.  1.
         11    1    4    4    0    0 -0.52397840793E+02  0.29912421676E+02  0.29770484550E+03  0.30375724144E+03  0.00000000000E+00 0. -1.
<mgrwt>
<rscale>  0 0.12459562E+03</rscale>
<asrwt>0</asrwt>
<pdfrwt beam="1">  1        1 0.11136317E+00 0.13360113E+03</pdfrwt>
<pdfrwt beam="2">  1       -1 0.30452193E-02 0.13360113E+03</pdfrwt>
<totfact> 0.94856414E+03</totfact>
</mgrwt>
</event>
<event>
 8    1  0.8504141E-006  0.1234265E+03  0.7546771E-02  0.1259824E+00
          2   -1    0    0  501    0  0.00000000000E+00  0.00000000000E+00  0.27257617278E+03  0.27257617278E+03  0.00000000000E+00 0. -1.
         -2   -1    0    0    0  501 -0.00000000000E+00 -0.00000000000E+00 -0.42350087654E+02  0.42350087654E+02  0.00000000000E+00 0.  1.
         23    2    1    2    0    0 -0.50009986010E+02 -0.14922948923E+02  0.85866841114E+02  0.15035694991E+03  0.11184992123E+03 0.  0.
         23    2    1    2    0    0  0.50009986010E+02  0.14922948923E+02  0.14435924401E+03  0.16456931052E+03  0.59327679283E+02 0.  0.
          5    1    3    3  502    0  0.27102804030E+02 -0.34081997213E+02  0.28827858368E+02  0.52433576441E+02  0.47000000000E+01 0. -1.
         -5    1    3    3    0  502 -0.77112790039E+02  0.19159048290E+02  0.57038982746E+02  0.97923373470E+02  0.47000000000E+01 0.  1.
        -11    1    4    4    0    0  0.44293642054E+02  0.56585962899E+01  0.14677607608E+03  0.15341826146E+03  0.00000000000E+00 0. -1.
         11    1    4    4    0    0  0.57163439560E+01  0.92643526334E+01 -0.24168320737E+01  0.11151049063E+02  0.00000000000E+00 0.  1.
<mgrwt>
<rscale>  0 0.11040392E+03</rscale>
<asrwt>0</asrwt>
<pdfrwt beam="1">  1        2 0.41934795E-01 0.12342649E+03</pdfrwt>
<pdfrwt beam="2">  1       -2 0.65153983E-02 0.12342649E+03</pdfrwt>
<totfact> 0.14718536E+04</totfact>
</mgrwt>
</event>
<event>
 8    1  0.8504141E-006  0.2251958E+03  0.7546771E-02  0.1133597E+00
         -1   -1    0    0    0  501 -0.00000000000E+00  0.00000000000E+00  0.15096082113E+03  0.15096082113E+03  0.00000000000E+00 0. -1.
          1   -1    0    0  501    0  0.00000000000E+00 -0.00000000000E+00 -0.36158035112E+03  0.36158035112E+03  0.00000000000E+00 0.  1.
         23    2    1    2    0    0 -0.54069536873E+02  0.17934941828E+03 -0.11273713559E+02  0.22547785626E+03  0.12499375341E+03 0.  0.
         23    2    1    2    0    0  0.54069536873E+02 -0.17934941828E+03 -0.19934581643E+03  0.28706331598E+03  0.87045184811E+02 0.  0.
          5    1    3    3  502    0  0.22715215115E+02  0.45562627229E+02 -0.44307415931E+02  0.67654793653E+02  0.47000000000E+01 0.  1.
         -5    1    3    3    0  502 -0.76784751988E+02  0.13378679105E+03  0.33033702372E+02  0.15782306261E+03  0.47000000000E+01 0.  1.
        -11    1    4    4    0    0 -0.11987706494E+02 -0.30046475322E+02 -0.75511115503E+02  0.82148793970E+02  0.00000000000E+00 0.  1.
         11    1    4    4    0    0  0.66057243367E+02 -0.14930294296E+03 -0.12383470093E+03  0.20491452201E+03  0.00000000000E+00 0. -1.
<mgrwt>
<rscale>  0 0.22038461E+03</rscale>
<asrwt>0</asrwt>
<pdfrwt beam="2">  1        1 0.55627745E-01 0.22519584E+03</pdfrwt>
<pdfrwt beam="1">  1       -1 0.23224742E-01 0.22519584E+03</pdfrwt>
<totfact> 0.10864403E+03</totfact>
</mgrwt>
</event>
<event>
 8    1  0.8504141E-006  0.1707511E+03  0.7546771E-02  0.1183072E+00
          3   -1    0    0  501    0  0.00000000000E+00  0.00000000000E+00  0.14829694759E+03  0.14829694759E+03  0.00000000000E+00 0. -1.
         -3   -1    0    0    0  501 -0.00000000000E+00 -0.00000000000E+00 -0.21517157413E+03  0.21517157413E+03  0.00000000000E+00 0.  1.
         23    2    1    2    0    0 -0.85243478177E+02  0.79161829392E+02 -0.11596561264E+03  0.20640726752E+03  0.12499156358E+03 0.  0.
         23    2    1    2    0    0  0.85243478177E+02 -0.79161829392E+02  0.49090986099E+02  0.15706125420E+03  0.93409136869E+02 0.  0.
          5    1    3    3  502    0 -0.43799569354E+02  0.85509797662E+02 -0.13020261347E+03  0.16188001213E+03  0.47000000000E+01 0.  1.
         -5    1    3    3    0  502 -0.41443908823E+02 -0.63479682705E+01  0.14237000839E+02  0.44527255390E+02  0.47000000000E+01 0.  1.
        -11    1    4    4    0    0  0.36694021273E+01 -0.39832030914E+02 -0.18486780551E+02  0.44066044228E+02  0.00000000000E+00 0.  1.
         11    1    4    4    0    0  0.81574076050E+02 -0.39329798477E+02  0.67577766649E+02  0.11299520997E+03  0.00000000000E+00 0. -1.
<mgrwt>
<rscale>  0 0.16508559E+03</rscale>
<asrwt>0</asrwt>
<pdfrwt beam="1">  1        3 0.22814915E-01 0.17075110E+03</pdfrwt>
<pdfrwt beam="2">  1       -3 0.33103319E-01 0.17075110E+03</pdfrwt>
<totfact> 0.37908659E+02</totfact>
</mgrwt>
</event>
<event>
 8    1  0.8504141E-006  0.1500707E+03  0.7546771E-02  0.1215429E+00
         -2   -1    0    0    0  501 -0.00000000000E+00  0.00000000000E+00  0.71013960709E+02  0.71013960709E+02  0.00000000000E+00 0.  1.
          2   -1    0    0  501    0  0.00000000000E+00 -0.00000000000E+00 -0.23651800168E+03  0.23651800168E+03  0.00000000000E+00 0. -1.
         23    2    1    2    0    0  0.82412564312E+02 -0.10214440955E+02 -0.10449374137E+03  0.18286653178E+03  0.12500024360E+03 0.  0.
         23    2    1    2    0    0 -0.82412564312E+02  0.10214440955E+02 -0.61010299601E+02  0.12466543060E+03  0.70164430938E+02 0.  0.
          5    1    3    3  502    0  0.16597283434E+02  0.27735833533E+02 -0.10156972717E+03  0.10669229473E+03  0.47000000000E+01 0. -1.
         -5    1    3    3    0  502  0.65815280879E+02 -0.37950274488E+02 -0.29240142002E+01  0.76174237049E+02  0.47000000000E+01 0. -1.
        -11    1    4    4    0    0 -0.60591839286E+02  0.39042122725E+02 -0.35016975468E+02  0.80136426835E+02  0.00000000000E+00 0.  1.
         11    1    4    4    0    0 -0.21820725026E+02 -0.28827681770E+02 -0.25993324133E+02  0.44529003766E+02  0.00000000000E+00 0. -1.
<mgrwt>
<rscale>  0 0.13845084E+03</rscale>
<asrwt>0</asrwt>
<pdfrwt beam="2">  1        2 0.36387385E-01 0.15007074E+03</pdfrwt>
<pdfrwt beam="1">  1       -2 0.10925225E-01 0.15007074E+03</pdfrwt>
<totfact> 0.77944036E+03</totfact>
</mgrwt>
</event>
<event>
 8    1  0.8504141E-006  0.1875349E+03  0.7546771E-02  0.1165290E+00
         -1   -1    0    0    0  501 -0.00000000000E+00  0.00000000000E+00  0.49992823905E+02  0.49992823905E+02  0.00000000000E+00 0.  1.
          1   -1    0    0  501    0  0.00000000000E+00 -0.00000000000E+00 -0.63675861822E+03  0.63675861822E+03  0.00000000000E+00 0. -1.
         23    2    1    2    0    0 -0.42053339334E+02 -0.13333659646E+03 -0.28798294099E+03  0.34366194001E+03  0.12498889315E+03 0.  0.
         23    2    1    2    0    0  0.42053339334E+02  0.13333659646E+03 -0.29878285333E+03  0.34308950211E+03  0.94297835134E+02 0.  0.
          5    1    3    3  502    0 -0.80828792424E+02 -0.49161257941E+02 -0.14315018027E+03  0.17165135326E+03  0.47000000000E+01 0. -1.
         -5    1    3    3    0  502  0.38775453089E+02 -0.84175338516E+02 -0.14483276072E+03  0.17201058675E+03  0.47000000000E+01 0. -1.
        -11    1    4    4    0    0  0.47954654559E+02  0.17640541343E+02 -0.70197779181E+02  0.86824914597E+02  0.00000000000E+00 0.  1.
         11    1    4    4    0    0 -0.59013152249E+01  0.11569605511E+03 -0.22858507415E+03  0.25626458751E+03  0.00000000000E+00 0. -1.
<mgrwt>
<rscale>  0 0.18262126E+03</rscale>
<asrwt>0</asrwt>
<pdfrwt beam="2">  1        1 0.97962861E-01 0.18753494E+03</pdfrwt>
<pdfrwt beam="1">  1       -1 0.76912040E-02 0.18753494E+03</pdfrwt>
<totfact> 0.29218565E+03</totfact>
</mgrwt>
</event>
<event>
 8    1  0.8504141E-006  0.2978380E+03  0.7546771E-02  0.1087854E+00
         -2   -1    0    0    0  501 -0.00000000000E+00  0.00000000000E+00  0.58931779776E+02  0.58931779776E+02  0.00000000000E+00 0.  1.
          2   -1    0    0  501    0  0.00000000000E+00 -0.00000000000E+00 -0.14475442186E+04  0.14475442186E+04  0.00000000000E+00 0. -1.
         23    2    1    2    0    0  0.22315203191E+03  0.15259291206E+03 -0.73326828371E+03  0.79144792753E+03  0.12500407969E+03 0.  0.
         23    2    1    2    0    0 -0.22315203191E+03 -0.15259291206E+03 -0.65534415509E+03  0.71502807083E+03  0.93315348654E+02 0.  0.
          5    1    3    3  502    0  0.86507447485E+02  0.13298833081E+03 -0.42415647258E+03  0.45287993755E+03  0.47000000000E+01 0. -1.
         -5    1    3    3    0  502  0.13664458443E+03  0.19604581244E+02 -0.30911181114E+03  0.33856798999E+03  0.47000000000E+01 0. -1.
        -11    1    4    4    0    0 -0.20238674777E+03 -0.16168731554E+03 -0.62911888745E+03  0.68036296066E+03  0.00000000000E+00 0. -1.
         11    1    4    4    0    0 -0.20765284142E+02  0.90944034849E+01 -0.26225267640E+02  0.34665110170E+02  0.00000000000E+00 0.  1.
<mgrwt>
<rscale>  0 0.29483023E+03</rscale>
<asrwt>0</asrwt>
<pdfrwt beam="2">  1        2 0.22269913E+00 0.29783795E+03</pdfrwt>
<pdfrwt beam="1">  1       -2 0.90664267E-02 0.29783795E+03</pdfrwt>
<totfact> 0.11294418E+03</totfact>
</mgrwt>
</event>
<event>
 8    1  0.8504141E-006  0.1356076E+03  0.7546771E-02  0.1231884E+00
         -1   -1    0    0    0  501 -0.00000000000E+00  0.00000000000E+00  0.26319705785E+02  0.26319705785E+02  0.00000000000E+00 0.  1.
          1   -1    0    0  501    0  0.00000000000E+00 -0.00000000000E+00 -0.58803873410E+03  0.58803873410E+03  0.00000000000E+00 0. -1.
         23    2    1    2    0    0 -0.94458855430E+01 -0.50076147527E+02 -0.23489429306E+03  0.27122820399E+03  0.12566847028E+03 0.  0.
         23    2    1    2    0    0  0.94458855430E+01  0.50076147527E+02 -0.32682473526E+03  0.34313023590E+03  0.91252977531E+02 0.  0.
          5    1    3    3  502    0 -0.26295642188E+02  0.37573248793E+02 -0.85597579947E+02  0.97222659476E+02  0.47000000000E+01 0. -1.
         -5    1    3    3    0  502  0.16849756645E+02 -0.87649396319E+02 -0.14929671311E+03  0.17400554451E+03  0.47000000000E+01 0.  1.
        -11    1    4    4    0    0 -0.99441370143E+01 -0.24915785387E+02 -0.74417756922E+02  0.79105529311E+02  0.00000000000E+00 0.  1.
         11    1    4    4    0    0  0.19390022557E+02  0.74991932914E+02 -0.25240697834E+03  0.26402470659E+03  0.00000000000E+00 0. -1.
<mgrwt>
<rscale>  0 0.12706045E+03</rscale>
<asrwt>0</asrwt>
<pdfrwt beam="2">  1        1 0.90467489E-01 0.13560756E+03</pdfrwt>
<pdfrwt beam="1">  1       -1 0.40491859E-02 0.13560756E+03</pdfrwt>
<totfact> 0.83671447E+03</totfact>
</mgrwt>
</event>
<event>
 8    1  0.8504141E-006  0.2124461E+03  0.7546771E-02  0.1143310E+00
         -2   -1    0    0    0  501 -0.00000000000E+00  0.00000000000E+00  0.21655949315E+03  0.21655949315E+03  0.00000000000E+00 0.  1.
          2   -1    0    0  501    0  0.00000000000E+00 -0.00000000000E+00 -0.19338878703E+03  0.19338878703E+03  0.00000000000E+00 0. -1.
         23    2    1    2    0    0  0.14523489217E+03  0.91743328178E+02 -0.97691657863E+01  0.21267062759E+03  0.12499338810E+03 0.  0.
         23    2    1    2    0    0 -0.14523489217E+03 -0.91743328178E+02  0.32939871903E+02  0.19727765260E+03  0.91232805965E+02 0.  0.
          5    1    3    3  502    0  0.71518703301E+02  0.11432211818E+03 -0.10061432723E+01  0.13493544364E+03  0.47000000000E+01 0.  1.
         -5    1    3    3    0  502  0.73716188872E+02 -0.22578789999E+02 -0.87630225141E+01  0.77735183946E+02  0.47000000000E+01 0.  1.
        -11    1    4    4    0    0 -0.40450505053E+02 -0.16844603457E+02 -0.30808670504E+02  0.53564523734E+02  0.00000000000E+00 0.  1.
         11    1    4    4    0    0 -0.10478438712E+03 -0.74898724721E+02  0.63748542407E+02  0.14371312886E+03  0.00000000000E+00 0. -1.
<mgrwt>
<rscale>  0 0.20781223E+03</rscale>
<asrwt>0</asrwt>
<pdfrwt beam="2">  1        2 0.29752121E-01 0.21244613E+03</pdfrwt>
<pdfrwt beam="1">  1       -2 0.33316845E-01 0.21244613E+03</pdfrwt>
<totfact> 0.14802842E+03</totfact>
</mgrwt>
</event>
<event>
 7    1  0.8504141E-006  0.4720042E+03  0.7546771E-02  0.1021356E+00
         -3   -1    0    0    0  501 -0.00000000000E+00  0.00000000000E+00  0.17999951928E+04  0.17999951928E+04  0.00000000000E+00 0.  1.
          3   -1    0    0  501    0  0.00000000000E+00 -0.00000000000E+00 -0.30942853381E+02  0.30942853381E+02  0.00000000000E+00 0. -1.
         23    2    1    2    0    0 -0.67515850510E+01 -0.35851012336E+02  0.16153155511E+04  0.16205542348E+04  0.12498327562E+03 0.  0.
          5    1    3    3  502    0 -0.37103227744E+02  0.21744597547E+02  0.11349546149E+04  0.11357788274E+04  0.47000000000E+01 0. -1.
         -5    1    3    3    0  502  0.30351642693E+02 -0.57595609883E+02  0.48036093626E+03  0.48477540736E+03  0.47000000000E+01 0. -1.
        -11    1    1    2    0    0 -0.62616882094E+02  0.34952495487E+02  0.97763456335E+02  0.12124456383E+03  0.00000000000E+00 0.  1.
         11    1    1    2    0    0  0.69368467145E+02  0.89851684907E+00  0.55973331967E+02  0.89139247574E+02  0.00000000000E+00 0. -1.
<mgrwt>
<rscale>  0 0.47200418E+03</rscale>
<asrwt>0</asrwt>
<pdfrwt beam="2">  1        3 0.47604404E-02 0.47200418E+03</pdfrwt>
<pdfrwt beam="1">  1       -3 0.27692226E+00 0.47200418E+03</pdfrwt>
<totfact> 0.36479669E+01</totfact>
</mgrwt>
</event>
<event>
 7    1  0.8504141E-006  0.1288659E+03  0.7546771E-02  0.1245325E+00
         -1   -1    0    0    0  501 -0.00000000000E+00  0.00000000000E+00  0.47933384837E+03  0.47933384837E+03  0.00000000000E+00 0.  1.
          1   -1    0    0  501    0  0.00000000000E+00 -0.00000000000E+00 -0.31427847784E+02  0.31427847784E+02  0.00000000000E+00 0. -1.
         23    2    1    2    0    0  0.61234940689E+01  0.73276252370E+01  0.85268134136E+02  0.12590764919E+03  0.92146026253E+02 0.  0.
          5    1    1    2  502    0  0.63458384867E+01  0.56520426184E+02  0.23097875992E+03  0.23792458002E+03  0.47000000000E+01 0. -1.
         -5    1    1    2    0  502 -0.12469332556E+02 -0.63848051421E+02  0.13165910653E+03  0.14692946694E+03  0.47000000000E+01 0.  1.
        -11    1    3    3    0    0  0.11218526453E+02 -0.25567971412E+02 -0.61737223373E+01  0.28595302855E+02  0.00000000000E+00 0.  1.
         11    1    3    3    0    0 -0.50950323844E+01  0.32895596649E+02  0.91441856473E+02  0.97312346335E+02  0.00000000000E+00 0. -1.
<mgrwt>
<rscale>  0 0.11865951E+03</rscale>
<asrwt>0</asrwt>
<pdfrwt beam="2">  1        1 0.48350539E-02 0.12886588E+03</pdfrwt>
<pdfrwt beam="1">  1       -1 0.73743663E-01 0.12886588E+03</pdfrwt>
<totfact> 0.32289291E+03</totfact>
</mgrwt>
</event>
<event>
 8    1  0.8504141E-006  0.1217741E+03  0.7546771E-02  0.1247592E+00
         -2   -1    0    0    0  501 -0.00000000000E+00  0.00000000000E+00  0.71773519526E+02  0.71773519526E+02  0.00000000000E+00 0.  1.
          2   -1    0    0  501    0  0.00000000000E+00 -0.00000000000E+00 -0.17918544262E+03  0.17918544262E+03  0.00000000000E+00 0. -1.
         23    2    1    2    0    0 -0.51779059771E+01 -0.51697116180E+02 -0.53291146450E+02  0.13292435396E+03  0.11013416842E+03 0.  0.
         23    2    1    2    0    0  0.51779059771E+01  0.51697116180E+02 -0.54120776645E+02  0.11803460819E+03  0.91124682357E+02 0.  0.
          5    1    3    3  502    0 -0.14379273817E+02  0.10535321621E+02 -0.66039939053E+02  0.68564714448E+02  0.47000000000E+01 0. -1.
         -5    1    3    3    0  502  0.92013678398E+01 -0.62232437800E+02  0.12748792603E+02  0.64359639507E+02  0.47000000000E+01 0.  1.
        -11    1    4    4    0    0  0.21041132929E+02 -0.18814092499E+02 -0.31517291331E+02  0.42308852553E+02  0.00000000000E+00 0. -1.
         11    1    4    4    0    0 -0.15863226952E+02  0.70511208679E+02 -0.22603485314E+02  0.75725755638E+02  0.00000000000E+00 0.  1.
<mgrwt>
<rscale>  0 0.11731558E+03</rscale>
<asrwt>0</asrwt>
<pdfrwt beam="2">  1        2 0.27566991E-01 0.12177413E+03</pdfrwt>
<pdfrwt beam="1">  1       -2 0.11042080E-01 0.12177413E+03</pdfrwt>
<totfact> 0.10179652E+04</totfact>
</mgrwt>
</event>
<event>
 8    1  0.8504141E-006  0.1540988E+03  0.7546771E-02  0.1203947E+00
         -1   -1    0    0    0  501 -0.00000000000E+00  0.00000000000E+00  0.11281384904E+03  0.11281384904E+03  0.00000000000E+00 0.  1.
          1   -1    0    0  501    0  0.00000000000E+00 -0.00000000000E+00 -0.17679358407E+03  0.17679358407E+03  0.00000000000E+00 0. -1.
         23    2    1    2    0    0 -0.10163512137E+02 -0.89544959518E+02 -0.33038294856E+02  0.15760065201E+03  0.12499935933E+03 0.  0.
         23    2    1    2    0    0  0.10163512137E+02  0.89544959518E+02 -0.30941440170E+02  0.13200678110E+03  0.91360936855E+02 0.  0.
          5    1    3    3  502    0 -0.53448184855E+00 -0.49173513176E+01 -0.65851469153E+02  0.66204018039E+02  0.47000000000E+01 0. -1.
         -5    1    3    3    0  502 -0.96290302882E+01 -0.84627608200E+02  0.32813174298E+02  0.91396633973E+02  0.47000000000E+01 0. -1.
        -11    1    4    4    0    0  0.10154769780E+02  0.44469104597E+01  0.26911687775E+02  0.29105554467E+02  0.00000000000E+00 0.  1.
         11    1    4    4    0    0  0.87423566725E-02  0.85098049058E+02 -0.57853127945E+02  0.10290122664E+03  0.00000000000E+00 0. -1.
<mgrwt>
<rscale>  0 0.14720783E+03</rscale>
<asrwt>0</asrwt>
<pdfrwt beam="2">  1        1 0.27199013E-01 0.15409879E+03</pdfrwt>
<pdfrwt beam="1">  1       -1 0.17355977E-01 0.15409879E+03</pdfrwt>
<totfact> 0.42158835E+03</totfact>
</mgrwt>
</event>
<event>
 8    1  0.8504141E-006  0.2736906E+03  0.7546771E-02  0.1101154E+00
          2   -1    0    0  501    0  0.00000000000E+00  0.00000000000E+00  0.48094551289E+03  0.48094551289E+03  0.00000000000E+00 0. -1.
         -2   -1    0    0    0  501 -0.00000000000E+00 -0.00000000000E+00 -0.19780395795E+03  0.19780395795E+03  0.00000000000E+00 0.  1.
         23    2    1    2    0    0 -0.18840386657E+03 -0.15422898168E+03 -0.25813644255E+02  0.27490524504E+03  0.12499581509E+03 0.  0.
         23    2    1    2    0    0  0.18840386657E+03  0.15422898168E+03  0.30895519920E+03  0.40384422580E+03  0.91401574756E+02 0.  0.
          5    1    3    3  502    0 -0.91713803617E+02 -0.20225734436E+02 -0.52120681389E+02  0.10751352257E+03  0.47000000000E+01 0. -1.
         -5    1    3    3    0  502 -0.96690062956E+02 -0.13400324725E+03  0.26307037135E+02  0.16739172247E+03  0.47000000000E+01 0. -1.
        -11    1    4    4    0    0  0.47219195949E+02  0.96577225595E+02  0.13224607244E+03  0.17042839155E+03  0.00000000000E+00 0. -1.
         11    1    4    4    0    0  0.14118467062E+03  0.57651756089E+02  0.17670912676E+03  0.23341583425E+03  0.00000000000E+00 0.  1.
<mgrwt>
<rscale>  0 0.27022022E+03</rscale>
<asrwt>0</asrwt>
<pdfrwt beam="1">  1        2 0.73991617E-01 0.27369061E+03</pdfrwt>
<pdfrwt beam="2">  1       -2 0.30431378E-01 0.27369061E+03</pdfrwt>
<totfact> 0.65048320E+02</totfact>
</mgrwt>
</event>
<event>
 8    1  0.8504141E-006  0.1668116E+03  0.7546771E-02  0.1188322E+00
         -1   -1    0    0    0  501 -0.00000000000E+00  0.00000000000E+00  0.35434360586E+02  0.35434360586E+02  0.00000000000E+00 0.  1.
          1   -1    0    0  501    0  0.00000000000E+00 -0.00000000000E+00 -0.71154482483E+03  0.71154482483E+03  0.00000000000E+00 0. -1.
         23    2    1    2    0    0 -0.77474646486E+02 -0.78726158595E+02 -0.27833172100E+03  0.32449137439E+03  0.12500390491E+03 0.  0.
         23    2    1    2    0    0  0.77474646486E+02  0.78726158595E+02 -0.39777874324E+03  0.42248781103E+03  0.89821450641E+02 0.  0.
          5    1    3    3  502    0 -0.49646375819E+02 -0.68443960881E+02 -0.28180502651E+03  0.29425414420E+03  0.47000000000E+01 0. -1.
         -5    1    3    3    0  502 -0.27828270667E+02 -0.10282197713E+02  0.34733055117E+01  0.30237230186E+02  0.47000000000E+01 0. -1.
        -11    1    4    4    0    0  0.95992404086E+02  0.64662268339E+02 -0.35978559210E+03  0.37794367685E+03  0.00000000000E+00 0. -1.
         11    1    4    4    0    0 -0.18517757600E+02  0.14063890256E+02 -0.37993151139E+02  0.44544134172E+02  0.00000000000E+00 0.  1.
<mgrwt>
<rscale>  0 0.16033232E+03</rscale>
<asrwt>0</asrwt>
<pdfrwt beam="2">  1        1 0.10946843E+00 0.16681159E+03</pdfrwt>
<pdfrwt beam="1">  1       -1 0.54514405E-02 0.16681159E+03</pdfrwt>
<totfact> 0.41701305E+03</totfact>
</mgrwt>
</event>
<event>
 8    1  0.8504141E-006  0.1276782E+03  0.7546771E-02  0.1245765E+00
         -1   -1    0    0    0  501 -0.00000000000E+00  0.00000000000E+00  0.83133309885E+02  0.83133309885E+02  0.00000000000E+00 0.  1.
          1   -1    0    0  501    0  0.00000000000E+00 -0.00000000000E+00 -0.14840380408E+03  0.14840380408E+03  0.00000000000E+00 0. -1.
         23    2    1    2    0    0 -0.67064342235E+01 -0.25346499110E+02 -0.34889525906E+02  0.13235940182E+03  0.12495723651E+03 0.  0.
         23    2    1    2    0    0  0.67064342235E+01  0.25346499110E+02 -0.30380968292E+02  0.99177712144E+02  0.90696163506E+02 0.  0.
          5    1    3    3  502    0 -0.58778477820E+02  0.45605150840E+00  0.86411229324E+01  0.59597621122E+02  0.47000000000E+01 0.  1.
         -5    1    3    3    0  502  0.52072043597E+02 -0.25802550618E+02 -0.43530648838E+02  0.72761780702E+02  0.47000000000E+01 0.  1.
        -11    1    4    4    0    0  0.37847223925E+01 -0.12959258606E+02  0.26963254334E+02  0.30154329564E+02  0.00000000000E+00 0.  1.
         11    1    4    4    0    0  0.29217118310E+01  0.38305757716E+02 -0.57344222626E+02  0.69023382580E+02  0.00000000000E+00 0. -1.
<mgrwt>
<rscale>  0 0.11839734E+03</rscale>
<asrwt>0</asrwt>
<pdfrwt beam="2">  1        1 0.22831354E-01 0.12767824E+03</pdfrwt>
<pdfrwt beam="1">  1       -1 0.12789740E-01 0.12767824E+03</pdfrwt>
<totfact> 0.83750640E+03</totfact>
</mgrwt>
</event>
<event>
 8    1  0.8504141E-006  0.1645166E+03  0.7546771E-02  0.1190574E+00
         -2   -1    0    0    0  501 -0.00000000000E+00  0.00000000000E+00  0.16114479550E+03  0.16114479550E+03  0.00000000000E+00 0.  1.
          2   -1    0    0  501    0  0.00000000000E+00 -0.00000000000E+00 -0.14816828880E+03  0.14816828880E+03  0.00000000000E+00 0. -1.
         23    2    1    2    0    0  0.97783447538E+02 -0.43343017958E+02  0.29543263148E+02  0.16714821597E+03  0.12500200753E+03 0.  0.
         23    2    1    2    0    0 -0.97783447538E+02  0.43343017958E+02 -0.16566756452E+02  0.14216486833E+03  0.92174684973E+02 0.  0.
          5    1    3    3  502    0 -0.18086586335E+02 -0.21428847106E+02  0.39547248927E+02  0.48707237565E+02  0.47000000000E+01 0. -1.
         -5    1    3    3    0  502  0.11587003387E+03 -0.21914170852E+02 -0.10003985779E+02  0.11844097840E+03  0.47000000000E+01 0. -1.
        -11    1    4    4    0    0 -0.11858480070E+02 -0.20801563405E+02  0.17498476256E+02  0.29656791144E+02  0.00000000000E+00 0.  1.
         11    1    4    4    0    0 -0.85924967468E+02  0.64144581364E+02 -0.34065232708E+02  0.11250807719E+03  0.00000000000E+00 0. -1.
<mgrwt>
<rscale>  0 0.15834822E+03</rscale>
<asrwt>0</asrwt>
<pdfrwt beam="2">  1        2 0.22795121E-01 0.16451663E+03</pdfrwt>
<pdfrwt beam="1">  1       -2 0.24791507E-01 0.16451663E+03</pdfrwt>
<totfact> 0.33508923E+03</totfact>
</mgrwt>
</event>
<event>
 8    1  0.8504141E-006  0.1510620E+03  0.7546771E-02  0.1207885E+00
          2   -1    0    0  501    0  0.00000000000E+00  0.00000000000E+00  0.18129840512E+04  0.18129840512E+04  0.00000000000E+00 0. -1.
         -2   -1    0    0    0  501 -0.00000000000E+00 -0.00000000000E+00 -0.10720749941E+02  0.10720749941E+02  0.00000000000E+00 0.  1.
         23    2    1    2    0    0  0.28632029659E+02 -0.79862044705E+02  0.11078067444E+04  0.11180588185E+04  0.12498799645E+03 0.  0.
         23    2    1    2    0    0 -0.28632029659E+02  0.79862044705E+02  0.69445655679E+03  0.70564598262E+03  0.92025019548E+02 0.  0.
          5    1    3    3  502    0 -0.20985056457E+00 -0.37441644722E+02  0.97321703278E+03  0.97394835781E+03  0.47000000000E+01 0. -1.
         -5    1    3    3    0  502  0.28841880223E+02 -0.42420399983E+02  0.13458971165E+03  0.14411046066E+03  0.47000000000E+01 0. -1.
        -11    1    4    4    0    0 -0.61719420547E+02  0.40932682019E+02  0.41634621156E+03  0.42288170829E+03  0.00000000000E+00 0. -1.
         11    1    4    4    0    0  0.33087390888E+02  0.38929362686E+02  0.27811034523E+03  0.28276427433E+03  0.00000000000E+00 0.  1.
<mgrwt>
<rscale>  0 0.14412438E+03</rscale>
<asrwt>0</asrwt>
<pdfrwt beam="1">  1        2 0.27892038E+00 0.15106204E+03</pdfrwt>
<pdfrwt beam="2">  1       -2 0.16493476E-02 0.15106204E+03</pdfrwt>
<totfact> 0.94149866E+03</totfact>
</mgrwt>
</event>
<event>
 8    1  0.8504141E-006  0.1666129E+03  0.7546771E-02  0.1188749E+00
         -1   -1    0    0    0  501 -0.00000000000E+00  0.00000000000E+00  0.40401528559E+03  0.40401528559E+03  0.00000000000E+00 0.  1.
          1   -1    0    0  501    0  0.00000000000E+00 -0.00000000000E+00 -0.59547339186E+02  0.59547339186E+02  0.00000000000E+00 0. -1.
         23    2    1    2    0    0 -0.10286239896E+03 -0.39418659355E+02  0.21269587609E+03  0.27018398800E+03  0.12500139136E+03 0.  0.
         23    2    1    2    0    0  0.10286239896E+03  0.39418659355E+02  0.13177207031E+03  0.19337863677E+03  0.88864586989E+02 0.  0.
          5    1    3    3  502    0 -0.42905557046E+02 -0.40128828866E+02  0.11311972502E+02  0.60010502860E+02  0.47000000000E+01 0. -1.
         -5    1    3    3    0  502 -0.59956841912E+02  0.71016951152E+00  0.20138390359E+03  0.21017348514E+03  0.47000000000E+01 0. -1.
        -11    1    4    4    0    0  0.89807505596E+02  0.10103332163E+02  0.13353184773E+03  0.16123963452E+03  0.00000000000E+00 0.  1.
         11    1    4    4    0    0  0.13054893362E+02  0.29315327192E+02 -0.17597774195E+01  0.32139002250E+02  0.00000000000E+00 0. -1.
<mgrwt>
<rscale>  0 0.15995411E+03</rscale>
<asrwt>0</asrwt>
<pdfrwt beam="2">  1        1 0.91611294E-02 0.16661288E+03</pdfrwt>
<pdfrwt beam="1">  1       -1 0.62156196E-01 0.16661288E+03</pdfrwt>
<totfact> 0.19235994E+03</totfact>
</mgrwt>
</event>
<event>
 8    1  0.8504141E-006  0.1529302E+03  0.7546771E-02  0.1201123E+00
         -1   -1    0    0    0  501 -0.00000000000E+00  0.00000000000E+00  0.22726447162E+03  0.22726447162E+03  0.00000000000E+00 0.  1.
          1   -1    0    0  501    0  0.00000000000E+00 -0.00000000000E+00 -0.29021220550E+03  0.29021220550E+03  0.00000000000E+00 0. -1.
         23    2    1    2    0    0 -0.10286264009E+03 -0.12159999998E+01  0.18067654630E+03  0.23671009136E+03  0.11316117527E+03 0.  0.
         23    2    1    2    0    0  0.10286264009E+03  0.12159999998E+01 -0.24362428018E+03  0.28076658576E+03  0.94312694829E+02 0.  0.
          5    1    3    3  502    0  0.86909020979E+01  0.38532458704E+01  0.95754788997E+02  0.96340276619E+02  0.47000000000E+01 0. -1.
         -5    1    3    3    0  502 -0.11155354219E+03 -0.50692458701E+01  0.84921757300E+02  0.14036981474E+03  0.47000000000E+01 0.  1.
        -11    1    4    4    0    0  0.67581577248E+02  0.40836485555E+02 -0.98456510108E+02  0.12620844868E+03  0.00000000000E+00 0. -1.
         11    1    4    4    0    0  0.35281062842E+02 -0.39620485555E+02 -0.14516777007E+03  0.15455813708E+03  0.00000000000E+00 0.  1.
<mgrwt>
<rscale>  0 0.14947222E+03</rscale>
<asrwt>0</asrwt>
<pdfrwt beam="2">  1        1 0.44648032E-01 0.15293022E+03</pdfrwt>
<pdfrwt beam="1">  1       -1 0.34963765E-01 0.15293022E+03</pdfrwt>
<totfact> 0.71687467E+02</totfact>
</mgrwt>
</event>
<event>
 8    1  0.8504141E-006  0.1213468E+03  0.7546771E-02  0.1250779E+00
         -2   -1    0    0    0  501 -0.00000000000E+00  0.00000000000E+00  0.14971681878E+03  0.14971681878E+03  0.00000000000E+00 0.  1.
          2   -1    0    0  501    0  0.00000000000E+00 -0.00000000000E+00 -0.24158523505E+03  0.24158523505E+03  0.00000000000E+00 0. -1.
         23    2    1    2    0    0  0.37413906457E+00 -0.32254812435E+02  0.11157603111E+03  0.16484613562E+03  0.11698087367E+03 0.  0.
         23    2    1    2    0    0 -0.37413906457E+00  0.32254812435E+02 -0.20344444737E+03  0.22645591821E+03  0.94085741862E+02 0.  0.
          5    1    3    3  502    0  0.56710825085E+02 -0.29274349714E+02  0.50076472613E+02  0.81257912491E+02  0.47000000000E+01 0. -1.
         -5    1    3    3    0  502 -0.56336686021E+02 -0.29804627214E+01  0.61499558497E+02  0.83588223124E+02  0.47000000000E+01 0.  1.
        -11    1    4    4    0    0  0.18652424790E+02  0.57351305071E+02 -0.87216961665E+02  0.10603718002E+03  0.00000000000E+00 0. -1.
         11    1    4    4    0    0 -0.19026563855E+02 -0.25096492636E+02 -0.11622748571E+03  0.12041873820E+03  0.00000000000E+00 0.  1.
<mgrwt>
<rscale>  0 0.11546096E+03</rscale>
<asrwt>0</asrwt>
<pdfrwt beam="2">  1        2 0.37166959E-01 0.12134677E+03</pdfrwt>
<pdfrwt beam="1">  1       -2 0.23033357E-01 0.12134677E+03</pdfrwt>
<totfact> 0.22041020E+03</totfact>
</mgrwt>
</event>
<event>
 8    1  0.8504141E-006  0.1268598E+03  0.7546771E-02  0.1246933E+00
         -2   -1    0    0    0  501 -0.00000000000E+00  0.00000000000E+00  0.43200555774E+02  0.43200555774E+02  0.00000000000E+00 0.  1.
          2   -1    0    0  501    0  0.00000000000E+00 -0.00000000000E+00 -0.28844256417E+03  0.28844256417E+03  0.00000000000E+00 0. -1.
         23    2    1    2    0    0  0.19266520194E+02 -0.98988739156E+01 -0.11657189577E+03  0.17228586382E+03  0.12499690190E+03 0.  0.
         23    2    1    2    0    0 -0.19266520194E+02  0.98988739156E+01 -0.12867011263E+03  0.15935725613E+03  0.91485248488E+02 0.  0.
          5    1    3    3  502    0 -0.44902005374E+02  0.22053148016E+02 -0.71813328441E+02  0.87645739006E+02  0.47000000000E+01 0. -1.
         -5    1    3    3    0  502  0.64168525568E+02 -0.31952021932E+02 -0.44758567324E+02  0.84640124811E+02  0.47000000000E+01 0. -1.
        -11    1    4    4    0    0  0.13773363601E+01 -0.36020600155E+02 -0.86403067822E+02  0.93620888802E+02  0.00000000000E+00 0. -1.
         11    1    4    4    0    0 -0.20643856554E+02  0.45919474071E+02 -0.42267044811E+02  0.65736367328E+02  0.00000000000E+00 0.  1.
<mgrwt>
<rscale>  0 0.11770416E+03</rscale>
<asrwt>0</asrwt>
<pdfrwt beam="2">  1        2 0.44375780E-01 0.12685981E+03</pdfrwt>
<pdfrwt beam="1">  1       -2 0.66462392E-02 0.12685981E+03</pdfrwt>
<totfact> 0.13482898E+04</totfact>
</mgrwt>
</event>
<event>
 8    1  0.8504141E-006  0.1547423E+03  0.7546771E-02  0.1199450E+00
          2   -1    0    0  501    0  0.00000000000E+00  0.00000000000E+00  0.60207064777E+03  0.60207064777E+03  0.00000000000E+00 0. -1.
         -2   -1    0    0    0  501 -0.00000000000E+00 -0.00000000000E+00 -0.40805875581E+02  0.40805875581E+02  0.00000000000E+00 0.  1.
         23    2    1    2    0    0  0.73674249740E+02  0.53789756355E+02  0.18308286679E+03  0.23971758844E+03  0.12499581246E+03 0.  0.
         23    2    1    2    0    0 -0.73674249740E+02 -0.53789756355E+02  0.37818190540E+03  0.40315893492E+03  0.10580330933E+03 0.  0.
          5    1    3    3  502    0  0.10344182410E+03  0.47498112216E+02  0.10172468080E+03  0.15272944156E+03  0.47000000000E+01 0.  1.
         -5    1    3    3    0  502 -0.29767574358E+02  0.62916441386E+01  0.81358185987E+02  0.86988146872E+02  0.47000000000E+01 0.  1.
        -11    1    4    4    0    0 -0.61984364217E+02 -0.15280716673E+02  0.34540714893E+03  0.35125725650E+03  0.00000000000E+00 0. -1.
         11    1    4    4    0    0 -0.11689885523E+02 -0.38509039681E+02  0.32774756471E+02  0.51901678416E+02  0.00000000000E+00 0.  1.
<mgrwt>
<rscale>  0 0.15083582E+03</rscale>
<asrwt>0</asrwt>
<pdfrwt beam="1">  1        2 0.92626247E-01 0.15474232E+03</pdfrwt>
<pdfrwt beam="2">  1       -2 0.62778274E-02 0.15474232E+03</pdfrwt>
<totfact> 0.67187606E+03</totfact>
</mgrwt>
</event>
<event>
 8    1  0.8504141E-006  0.1927632E+03  0.7546771E-02  0.1160486E+00
          1   -1    0    0  501    0  0.00000000000E+00  0.00000000000E+00  0.11162052738E+03  0.11162052738E+03  0.00000000000E+00 0. -1.
         -1   -1    0    0    0  501 -0.00000000000E+00 -0.00000000000E+00 -0.33996175143E+03  0.33996175143E+03  0.00000000000E+00 0.  1.
         23    2    1    2    0    0  0.38178898153E+02  0.14168828711E+03 -0.19623912074E+03  0.27507718869E+03  0.12499787302E+03 0.  0.
         23    2    1    2    0    0 -0.38178898153E+02 -0.14168828711E+03 -0.32102103301E+02  0.17650509012E+03  0.92683886594E+02 0.  0.
          5    1    3    3  502    0  0.12646946379E+02 -0.15993513806E+02 -0.65013888843E+02  0.68298122075E+02  0.47000000000E+01 0.  1.
         -5    1    3    3    0  502  0.25531951774E+02  0.15768180092E+03 -0.13122523190E+03  0.20677906661E+03  0.47000000000E+01 0.  1.
        -11    1    4    4    0    0 -0.55711354954E+02 -0.11342880293E+03  0.52659398133E+01  0.12648153433E+03  0.00000000000E+00 0. -1.
         11    1    4    4    0    0  0.17532456801E+02 -0.28259484180E+02 -0.37368043114E+02  0.50023555789E+02  0.00000000000E+00 0.  1.
<mgrwt>
<rscale>  0 0.18777222E+03</rscale>
<asrwt>0</asrwt>
<pdfrwt beam="1">  1        1 0.17172389E-01 0.19276324E+03</pdfrwt>
<pdfrwt beam="2">  1       -1 0.52301807E-01 0.19276324E+03</pdfrwt>
<totfact> 0.11691739E+03</totfact>
</mgrwt>
</event>
<event>
 8    1  0.8504141E-006  0.1294210E+03  0.7546771E-02  0.1241845E+00
          3   -1    0    0  501    0  0.00000000000E+00  0.00000000000E+00  0.48792505406E+02  0.48792505406E+02  0.00000000000E+00 0. -1.
         -3   -1    0    0    0  501 -0.00000000000E+00 -0.00000000000E+00 -0.27083435601E+03  0.27083435601E+03  0.00000000000E+00 0.  1.
         23    2    1    2    0    0  0.30416111147E+02  0.14119811060E+02 -0.14870725344E+03  0.19713864098E+03  0.12500115063E+03 0.  0.
         23    2    1    2    0    0 -0.30416111147E+02 -0.14119811060E+02 -0.73334597155E+02  0.12248822043E+03  0.92200282662E+02 0.  0.
          5    1    3    3  502    0 -0.41992137288E+02 -0.11574783050E+02 -0.22353558266E+02  0.49184212546E+02  0.47000000000E+01 0. -1.
         -5    1    3    3    0  502  0.72408248435E+02  0.25694594110E+02 -0.12635369518E+03  0.14795442843E+03  0.47000000000E+01 0. -1.
        -11    1    4    4    0    0 -0.41326847010E+02 -0.34331992377E+02 -0.81920307161E+02  0.97966987857E+02  0.00000000000E+00 0.  1.
         11    1    4    4    0    0  0.10910735863E+02  0.20212181317E+02  0.85857100065E+01  0.24521232575E+02  0.00000000000E+00 0. -1.
<mgrwt>
<rscale>  0 0.12076218E+03</rscale>
<asrwt>0</asrwt>
<pdfrwt beam="1">  1        3 0.75065393E-02 0.12942101E+03</pdfrwt>
<pdfrwt beam="2">  1       -3 0.41666824E-01 0.12942101E+03</pdfrwt>
<totfact> 0.15477312E+03</totfact>
</mgrwt>
</event>
<event>
 8    1  0.8504141E-006  0.1321356E+03  0.7546771E-02  0.1237613E+00
         -1   -1    0    0    0  501 -0.00000000000E+00  0.00000000000E+00  0.18336133078E+03  0.18336133078E+03  0.00000000000E+00 0.  1.
          1   -1    0    0  501    0  0.00000000000E+00 -0.00000000000E+00 -0.86134345885E+02  0.86134345885E+02  0.00000000000E+00 0. -1.
         23    2    1    2    0    0  0.34164661480E+02  0.25894498359E+02  0.10493920670E+03  0.16873667029E+03  0.12498831009E+03 0.  0.
         23    2    1    2    0    0 -0.34164661480E+02 -0.25894498359E+02 -0.77122218026E+01  0.10075900637E+03  0.90857855253E+02 0.  0.
          5    1    3    3  502    0  0.76623193160E+01  0.73993185285E+02  0.43940931312E+02  0.86525129590E+02  0.47000000000E+01 0. -1.
         -5    1    3    3    0  502  0.26502342164E+02 -0.48098686926E+02  0.60998275384E+02  0.82211540699E+02  0.47000000000E+01 0. -1.
        -11    1    4    4    0    0  0.43090007962E+01  0.27977407304E+02 -0.18314934395E+02  0.33715569537E+02  0.00000000000E+00 0.  1.
         11    1    4    4    0    0 -0.38473662277E+02 -0.53871905663E+02  0.10602712592E+02  0.67043436838E+02  0.00000000000E+00 0. -1.
<mgrwt>
<rscale>  0 0.12338631E+03</rscale>
<asrwt>0</asrwt>
<pdfrwt beam="2">  1        1 0.13251438E-01 0.13213564E+03</pdfrwt>
<pdfrwt beam="1">  1       -1 0.28209435E-01 0.13213564E+03</pdfrwt>
<totfact> 0.47559077E+03</totfact>
</mgrwt>
</event>
<event>
 8    1  0.8504141E-006  0.1411256E+03  0.7546771E-02  0.1221424E+00
          1   -1    0    0  501    0  0.00000000000E+00  0.00000000000E+00  0.19408974719E+03  0.19408974719E+03  0.00000000000E+00 0. -1.
         -1   -1    0    0    0  501 -0.00000000000E+00 -0.00000000000E+00 -0.92921036052E+02  0.92921036052E+02  0.00000000000E+00 0.  1.
         23    2    1    2    0    0 -0.24166454047E+02 -0.60861845791E+02  0.12614579487E+02  0.14168825956E+03  0.12501301335E+03 0.  0.
         23    2    1    2    0    0  0.24166454047E+02  0.60861845791E+02  0.88554131647E+02  0.14532252368E+03  0.94808332347E+02 0.  0.
          5    1    3    3  502    0 -0.40562407188E+02  0.27848125250E+02  0.13903813018E+02  0.51344259399E+02  0.47000000000E+01 0. -1.
         -5    1    3    3    0  502  0.16395953141E+02 -0.88709971041E+02 -0.12892335308E+01  0.90344000159E+02  0.47000000000E+01 0. -1.
        -11    1    4    4    0    0  0.31306814543E+02  0.83086154400E+02  0.54986802871E+02  0.10443646001E+03  0.00000000000E+00 0.  1.
         11    1    4    4    0    0 -0.71403604958E+01 -0.22224308608E+02  0.33567328776E+02  0.40886063668E+02  0.00000000000E+00 0. -1.
<mgrwt>
<rscale>  0 0.13415011E+03</rscale>
<asrwt>0</asrwt>
<pdfrwt beam="1">  1        1 0.29859961E-01 0.14112560E+03</pdfrwt>
<pdfrwt beam="2">  1       -1 0.14295544E-01 0.14112560E+03</pdfrwt>
<totfact> 0.50683679E+03</totfact>
</mgrwt>
</event>
<event>
 8    1  0.8504141E-006  0.1376008E+03  0.7546771E-02  0.1228347E+00
          1   -1    0    0  501    0  0.00000000000E+00  0.00000000000E+00  0.20012276055E+03  0.20012276055E+03  0.00000000000E+00 0. -1.
         -1   -1    0    0    0  501 -0.00000000000E+00 -0.00000000000E+00 -0.82807943414E+02  0.82807943414E+02  0.00000000000E+00 0.  1.
         23    2    1    2    0    0 -0.55788033084E+02  0.14021845991E+02  0.22353890735E+02  0.13940470331E+03  0.12500023229E+03 0.  0.
         23    2    1    2    0    0  0.55788033084E+02 -0.14021845991E+02  0.94960926399E+02  0.14352600065E+03  0.90957234567E+02 0.  0.
          5    1    3    3  502    0 -0.90142216612E+02 -0.13298528919E+02  0.32298926297E+01  0.91296178965E+02  0.47000000000E+01 0.  1.
         -5    1    3    3    0  502  0.34354183528E+02  0.27320374910E+02  0.19123998105E+02  0.48108524345E+02  0.47000000000E+01 0.  1.
        -11    1    4    4    0    0 -0.11310569962E+02  0.12960840211E+02 -0.69571224592E+01  0.18555697906E+02  0.00000000000E+00 0.  1.
         11    1    4    4    0    0  0.67098603046E+02 -0.26982686202E+02  0.10191804886E+03  0.12497030275E+03  0.00000000000E+00 0. -1.
<mgrwt>
<rscale>  0 0.12940148E+03</rscale>
<asrwt>0</asrwt>
<pdfrwt beam="1">  1        1 0.30788117E-01 0.13760078E+03</pdfrwt>
<pdfrwt beam="2">  1       -1 0.12739684E-01 0.13760078E+03</pdfrwt>
<totfact> 0.58281906E+03</totfact>
</mgrwt>
</event>
<event>
 8    1  0.8504141E-006  0.1298572E+03  0.7546771E-02  0.1241801E+00
         -2   -1    0    0    0  501 -0.00000000000E+00  0.00000000000E+00  0.41051819066E+03  0.41051819066E+03  0.00000000000E+00 0. -1.
          2   -1    0    0  501    0  0.00000000000E+00 -0.00000000000E+00 -0.31400773093E+02  0.31400773093E+02  0.00000000000E+00 0.  1.
         23    2    1    2    0    0 -0.15114762632E+02  0.31786253646E+02  0.21519226548E+03  0.25133760998E+03  0.12499624434E+03 0.  0.
         23    2    1    2    0    0  0.15114762632E+02 -0.31786253646E+02  0.16392515209E+03  0.19058135377E+03  0.90614430124E+02 0.  0.
          5    1    3    3  502    0 -0.54301014981E+01  0.67564964513E+02  0.19960689922E+03  0.21085424977E+03  0.47000000000E+01 0.  1.
         -5    1    3    3    0  502 -0.96846611337E+01 -0.35778710867E+02  0.15585366263E+02  0.40483360213E+02  0.47000000000E+01 0.  1.
        -11    1    4    4    0    0  0.28034974765E+02 -0.51696798395E+02  0.60133521447E+02  0.84110398739E+02  0.00000000000E+00 0.  1.
         11    1    4    4    0    0 -0.12920212133E+02  0.19910544749E+02  0.10379163064E+03  0.10647095503E+03  0.00000000000E+00 0. -1.
<mgrwt>
<rscale>  0 0.12078896E+03</rscale>
<asrwt>0</asrwt>
<pdfrwt beam="2">  1        2 0.48308885E-02 0.12985716E+03</pdfrwt>
<pdfrwt beam="1">  1       -2 0.63156641E-01 0.12985716E+03</pdfrwt>
<totfact> 0.37107005E+03</totfact>
</mgrwt>
</event>
<event>
 8    1  0.8504141E-006  0.2398887E+03  0.7546771E-02  0.1122763E+00
         -1   -1    0    0    0  501 -0.00000000000E+00  0.00000000000E+00  0.29591094555E+03  0.29591094555E+03  0.00000000000E+00 0.  1.
          1   -1    0    0  501    0  0.00000000000E+00 -0.00000000000E+00 -0.21323816041E+03  0.21323816041E+03  0.00000000000E+00 0. -1.
         23    2    1    2    0    0 -0.48109977733E+02  0.19902046875E+03  0.14129988883E+03  0.27841025310E+03  0.12499157374E+03 0.  0.
         23    2    1    2    0    0  0.48109977733E+02 -0.19902046875E+03 -0.58627103691E+02  0.23073885287E+03  0.88766908223E+02 0.  0.
          5    1    3    3  502    0 -0.21826467085E+02  0.18099689048E+03  0.15873976094E+03  0.24177814362E+03  0.47000000000E+01 0.  1.
         -5    1    3    3    0  502 -0.26283510647E+02  0.18023578268E+02 -0.17439872107E+02  0.36632109475E+02  0.47000000000E+01 0.  1.
        -11    1    4    4    0    0  0.35169104650E+02 -0.29496706123E+02 -0.37778002227E+02  0.59448288842E+02  0.00000000000E+00 0. -1.
         11    1    4    4    0    0  0.12940873083E+02 -0.16952376263E+03 -0.20849101464E+02  0.17129056402E+03  0.00000000000E+00 0.  1.
<mgrwt>
<rscale>  0 0.23559423E+03</rscale>
<asrwt>0</asrwt>
<pdfrwt beam="2">  1        1 0.32805871E-01 0.23988875E+03</pdfrwt>
<pdfrwt beam="1">  1       -1 0.45524761E-01 0.23988875E+03</pdfrwt>
<totfact> 0.66208934E+02</totfact>
</mgrwt>
</event>
<event>
 8    1  0.8504141E-006  0.1385011E+03  0.7546771E-02  0.1227642E+00
          1   -1    0    0  501    0  0.00000000000E+00  0.00000000000E+00  0.31793261666E+03  0.31793261666E+03  0.00000000000E+00 0. -1.
         -1   -1    0    0    0  501 -0.00000000000E+00 -0.00000000000E+00 -0.73611299383E+02  0.73611299383E+02  0.00000000000E+00 0.  1.
         23    2    1    2    0    0  0.40423656039E+02 -0.43868500460E+02  0.16082868312E+02  0.13943172300E+03  0.12499611765E+03 0.  0.
         23    2    1    2    0    0 -0.40423656039E+02  0.43868500460E+02  0.22823844896E+03  0.25211219304E+03  0.88933969849E+02 0.  0.
          5    1    3    3  502    0 -0.68797960711E+01 -0.27159943678E+02  0.63922636998E+02  0.69951323471E+02  0.47000000000E+01 0. -1.
         -5    1    3    3    0  502  0.47303452110E+02 -0.16708556782E+02 -0.47839768686E+02  0.69480399532E+02  0.47000000000E+01 0. -1.
        -11    1    4    4    0    0  0.15204861497E+02 -0.13436745627E+02  0.91816461419E+02  0.94031891046E+02  0.00000000000E+00 0. -1.
         11    1    4    4    0    0 -0.55628517536E+02  0.57305246087E+02  0.13642198754E+03  0.15808030199E+03  0.00000000000E+00 0.  1.
<mgrwt>
<rscale>  0 0.12987475E+03</rscale>
<asrwt>0</asrwt>
<pdfrwt beam="1">  1        1 0.48912709E-01 0.13850107E+03</pdfrwt>
<pdfrwt beam="2">  1       -1 0.11324815E-01 0.13850107E+03</pdfrwt>
<totfact> 0.39410993E+03</totfact>
</mgrwt>
</event>
<event>
 7    1  0.8504141E-006  0.1977587E+03  0.7546771E-02  0.1168751E+00
          4   -1    0    0  501    0  0.00000000000E+00  0.00000000000E+00  0.18443520844E+03  0.18443520844E+03  0.00000000000E+00 0. -1.
         -4   -1    0    0    0  501 -0.00000000000E+00 -0.00000000000E+00 -0.14882337570E+03  0.14882337570E+03  0.00000000000E+00 0.  1.
         23    2    1    2    0    0 -0.26237387885E+01  0.94284073530E+02  0.31260562848E+01  0.13284946506E+03  0.93503142257E+02 0.  0.
          5    1    1    2  502    0  0.87270392968E+02 -0.34783514710E+02  0.11963969373E+02  0.94822154308E+02  0.47000000000E+01 0. -1.
         -5    1    1    2    0  502 -0.84646654180E+02 -0.59500558820E+02  0.20521807082E+02  0.10558696477E+03  0.47000000000E+01 0.  1.
        -11    1    3    3    0    0 -0.35342118664E+02  0.24337567410E+02 -0.26166214333E+02  0.50259857855E+02  0.00000000000E+00 0.  1.
         11    1    3    3    0    0  0.32718379876E+02  0.69946506120E+02  0.29292270618E+02  0.82589607204E+02  0.00000000000E+00 0. -1.
<mgrwt>
<rscale>  0 0.17902411E+03</rscale>
<asrwt>0</asrwt>
<pdfrwt beam="1">  1        4 0.28374647E-01 0.19775866E+03</pdfrwt>
<pdfrwt beam="2">  1       -4 0.22895904E-01 0.19775866E+03</pdfrwt>
<totfact> 0.36983735E+02</totfact>
</mgrwt>
</event>
<event>
 8    1  0.8504141E-006  0.1264772E+03  0.7546771E-02  0.1248094E+00
          2   -1    0    0  501    0  0.00000000000E+00  0.00000000000E+00  0.51829005703E+03  0.51829005703E+03  0.00000000000E+00 0. -1.
         -2   -1    0    0    0  501 -0.00000000000E+00 -0.00000000000E+00 -0.32899515728E+02  0.32899515728E+02  0.00000000000E+00 0.  1.
         23    2    1    2    0    0  0.17640619127E+02 -0.77949095203E+01  0.12042573242E+03  0.17463917374E+03  0.12499812766E+03 0.  0.
         23    2    1    2    0    0 -0.17640619127E+02  0.77949095203E+01  0.36496480888E+03  0.37655039902E+03  0.90658365416E+02 0.  0.
          5    1    3    3  502    0 -0.12316269849E+02  0.15015059701E+02 -0.20540334818E+02  0.28655503403E+02  0.47000000000E+01 0.  1.
         -5    1    3    3    0  502  0.29956888976E+02 -0.22809969221E+02  0.14096606724E+03  0.14598367034E+03  0.47000000000E+01 0.  1.
        -11    1    4    4    0    0 -0.43859970669E+02 -0.20421683903E+02  0.13557099931E+03  0.14394526062E+03  0.00000000000E+00 0.  1.
         11    1    4    4    0    0  0.26219351542E+02  0.28216593423E+02  0.22939380957E+03  0.23260513839E+03  0.00000000000E+00 0. -1.
<mgrwt>
<rscale>  0 0.11702105E+03</rscale>
<asrwt>0</asrwt>
<pdfrwt beam="1">  1        2 0.79736926E-01 0.12647721E+03</pdfrwt>
<pdfrwt beam="2">  1       -2 0.50614644E-02 0.12647721E+03</pdfrwt>
<totfact> 0.10870411E+04</totfact>
</mgrwt>
</event>
<event>
 8    1  0.8504141E-006  0.1321090E+03  0.7546771E-02  0.1238406E+00
          2   -1    0    0  501    0  0.00000000000E+00  0.00000000000E+00  0.88589567240E+02  0.88589567240E+02  0.00000000000E+00 0. -1.
         -2   -1    0    0    0  501 -0.00000000000E+00 -0.00000000000E+00 -0.15903538447E+03  0.15903538447E+03  0.00000000000E+00 0.  1.
         23    2    1    2    0    0 -0.38279879857E+02  0.19068500958E+02 -0.68230499950E+02  0.14868823732E+03  0.12499533536E+03 0.  0.
         23    2    1    2    0    0  0.38279879857E+02 -0.19068500958E+02 -0.22153172835E+01  0.98936714397E+02  0.89188614152E+02 0.  0.
          5    1    3    3  502    0 -0.63419254256E+02 -0.32953988280E+02 -0.51935784589E+02  0.88472497844E+02  0.47000000000E+01 0.  1.
         -5    1    3    3    0  502  0.25139374399E+02  0.52022489237E+02 -0.16294715361E+02  0.60215739473E+02  0.47000000000E+01 0.  1.
        -11    1    4    4    0    0  0.18105744425E+02 -0.21354864551E+02  0.41888778566E+02  0.50383707594E+02  0.00000000000E+00 0. -1.
         11    1    4    4    0    0  0.20174135432E+02  0.22863635937E+01 -0.44104095849E+02  0.48553006803E+02  0.00000000000E+00 0.  1.
<mgrwt>
<rscale>  0 0.12288857E+03</rscale>
<asrwt>0</asrwt>
<pdfrwt beam="1">  1        2 0.13629164E-01 0.13210901E+03</pdfrwt>
<pdfrwt beam="2">  1       -2 0.24466982E-01 0.13210901E+03</pdfrwt>
<totfact> 0.61158969E+03</totfact>
</mgrwt>
</event>
<event>
 8    1  0.8504141E-006  0.1577608E+03  0.7546771E-02  0.1198923E+00
         -1   -1    0    0    0  501 -0.00000000000E+00  0.00000000000E+00  0.41417031375E+03  0.41417031375E+03  0.00000000000E+00 0.  1.
          1   -1    0    0  501    0  0.00000000000E+00 -0.00000000000E+00 -0.58877987553E+02  0.58877987553E+02  0.00000000000E+00 0. -1.
         23    2    1    2    0    0 -0.45651226361E+02 -0.84728556878E+02  0.27599485483E+03  0.31790189404E+03  0.12500196606E+03 0.  0.
         23    2    1    2    0    0  0.45651226361E+02  0.84728556878E+02  0.79297471360E+02  0.15514640726E+03  0.92300357007E+02 0.  0.
          5    1    3    3  502    0 -0.66937699482E+02 -0.15844443650E+02  0.20629224960E+03  0.21750927394E+03  0.47000000000E+01 0.  1.
         -5    1    3    3    0  502  0.21286473121E+02 -0.68884113228E+02  0.69702605238E+02  0.10039262010E+03  0.47000000000E+01 0.  1.
        -11    1    4    4    0    0  0.17792898065E+02 -0.33207114328E+00  0.61323032499E+02  0.63853048538E+02  0.00000000000E+00 0.  1.
         11    1    4    4    0    0  0.27858328296E+02  0.85060628021E+02  0.17974438861E+02  0.91293358725E+02  0.00000000000E+00 0. -1.
<mgrwt>
<rscale>  0 0.15126825E+03</rscale>
<asrwt>0</asrwt>
<pdfrwt beam="2">  1        1 0.90581522E-02 0.15776075E+03</pdfrwt>
<pdfrwt beam="1">  1       -1 0.63718508E-01 0.15776075E+03</pdfrwt>
<totfact> 0.18577626E+03</totfact>
</mgrwt>
</event>
<event>
 8    1  0.8504141E-006  0.1313444E+03  0.7546771E-02  0.1240310E+00
         -1   -1    0    0    0  501 -0.00000000000E+00  0.00000000000E+00  0.16619021824E+03  0.16619021824E+03  0.00000000000E+00 0.  1.
          1   -1    0    0  501    0  0.00000000000E+00 -0.00000000000E+00 -0.79008202293E+02  0.79008202293E+02  0.00000000000E+00 0. -1.
         23    2    1    2    0    0 -0.37898727043E+01  0.40159953260E+02  0.38804881414E+02  0.13695682052E+03  0.12499666750E+03 0.  0.
         23    2    1    2    0    0  0.37898727043E+01 -0.40159953260E+02  0.48377134538E+02  0.10824160001E+03  0.88026767784E+02 0.  0.
          5    1    3    3  502    0 -0.27778557464E+02  0.72944982071E+02  0.52090166355E+02  0.93957937903E+02  0.47000000000E+01 0.  1.
         -5    1    3    3    0  502  0.23988684760E+02 -0.32785028811E+02 -0.13285284941E+02  0.42998882620E+02  0.47000000000E+01 0.  1.
        -11    1    4    4    0    0 -0.28951589109E+02 -0.12815555424E+02  0.56547711630E+02  0.64807998452E+02  0.00000000000E+00 0.  1.
         11    1    4    4    0    0  0.32741461813E+02 -0.27344397836E+02 -0.81705770918E+01  0.43433601563E+02  0.00000000000E+00 0. -1.
<mgrwt>
<rscale>  0 0.12170552E+03</rscale>
<asrwt>0</asrwt>
<pdfrwt beam="2">  1        1 0.12155108E-01 0.13134440E+03</pdfrwt>
<pdfrwt beam="1">  1       -1 0.25567726E-01 0.13134440E+03</pdfrwt>
<totfact> 0.62623938E+03</totfact>
</mgrwt>
</event>
<event>
 8    1  0.8504141E-006  0.1324829E+03  0.7546771E-02  0.1237703E+00
         -3   -1    0    0    0  501 -0.00000000000E+00  0.00000000000E+00  0.63365311423E+03  0.63365311423E+03  0.00000000000E+00 0.  1.
          3   -1    0    0  501    0  0.00000000000E+00 -0.00000000000E+00 -0.22519729472E+02  0.22519729472E+02  0.00000000000E+00 0. -1.
         23    2    1    2    0    0  0.51175650350E+02  0.37447351940E+01  0.42425949329E+03  0.44446354690E+03  0.12214236221E+03 0.  0.
         23    2    1    2    0    0 -0.51175650350E+02 -0.37447351940E+01  0.18687389146E+03  0.21170929680E+03  0.85240863496E+02 0.  0.
          5    1    3    3  502    0  0.71800306945E+02 -0.40001069334E+02  0.23256160028E+03  0.24670297434E+03  0.47000000000E+01 0. -1.
         -5    1    3    3    0  502 -0.20624656595E+02  0.43745804528E+02  0.19169789302E+03  0.19776057256E+03  0.47000000000E+01 0.  1.
        -11    1    4    4    0    0 -0.59027942262E+02  0.28426814408E+02  0.11046029725E+03  0.12842841980E+03  0.00000000000E+00 0.  1.
         11    1    4    4    0    0  0.78522919126E+01 -0.32171549602E+02  0.76413594213E+02  0.83280876992E+02  0.00000000000E+00 0. -1.
<mgrwt>
<rscale>  0 0.12333000E+03</rscale>
<asrwt>0</asrwt>
<pdfrwt beam="2">  1        3 0.34645743E-02 0.13248293E+03</pdfrwt>
<pdfrwt beam="1">  1       -3 0.97485081E-01 0.13248293E+03</pdfrwt>
<totfact> 0.89847695E+02</totfact>
</mgrwt>
</event>
<event>
 8    1  0.8504141E-006  0.1259866E+03  0.7546771E-02  0.1247226E+00
          1   -1    0    0  501    0  0.00000000000E+00  0.00000000000E+00  0.96465466069E+02  0.96465466069E+02  0.00000000000E+00 0. -1.
         -1   -1    0    0    0  501 -0.00000000000E+00 -0.00000000000E+00 -0.12731879433E+03  0.12731879433E+03  0.00000000000E+00 0.  1.
         23    2    1    2    0    0  0.61172405714E+01  0.14457875344E+02 -0.22710550134E+02  0.12801715466E+03  0.12500468794E+03 0.  0.
         23    2    1    2    0    0 -0.61172405714E+01 -0.14457875344E+02 -0.81427781222E+01  0.95767105735E+02  0.94120045228E+02 0.  0.
          5    1    3    3  502    0  0.60728850572E+02  0.31066435825E+02 -0.76950452798E+01  0.68807124984E+02  0.47000000000E+01 0. -1.
         -5    1    3    3    0  502 -0.54611610001E+02 -0.16608560481E+02 -0.15015504855E+02  0.59210029676E+02  0.47000000000E+01 0. -1.
        -11    1    4    4    0    0  0.21960463533E+02 -0.21493780930E+02 -0.41476766824E+02  0.51619441720E+02  0.00000000000E+00 0.  1.
         11    1    4    4    0    0 -0.28077704105E+02  0.70359055864E+01  0.33333988702E+02  0.44147664015E+02  0.00000000000E+00 0. -1.
<mgrwt>
<rscale>  0 0.11753128E+03</rscale>
<asrwt>0</asrwt>
<pdfrwt beam="1">  1        1 0.14840841E-01 0.12598660E+03</pdfrwt>
<pdfrwt beam="2">  1       -1 0.19587507E-01 0.12598660E+03</pdfrwt>
<totfact> 0.74166424E+03</totfact>
</mgrwt>
</event>
<event>
 8    1  0.8504141E-006  0.1794078E+03  0.7546771E-02  0.1174387E+00
          3   -1    0    0  501    0  0.00000000000E+00  0.00000000000E+00  0.73235141604E+02  0.73235141604E+02  0.00000000000E+00 0. -1.
         -3   -1    0    0    0  501 -0.00000000000E+00 -0.00000000000E+00 -0.38787034195E+03  0.38787034195E+03  0.00000000000E+00 0.  1.
         23    2    1    2    0    0 -0.64780122514E+02 -0.11119940802E+03 -0.14818302940E+03  0.23269157093E+03  0.12500153744E+03 0.  0.
         23    2    1    2    0    0  0.64780122514E+02  0.11119940802E+03 -0.16645217094E+03  0.22841391262E+03  0.88909041447E+02 0.  0.
          5    1    3    3  502    0  0.22830874814E+02 -0.77258203334E+02 -0.42504261873E+02  0.91207352251E+02  0.47000000000E+01 0. -1.
         -5    1    3    3    0  502 -0.87610997329E+02 -0.33941204687E+02 -0.10567876753E+03  0.14148421868E+03  0.47000000000E+01 0. -1.
        -11    1    4    4    0    0  0.33436306935E+02  0.95668961758E+02 -0.63291048442E+02  0.11948344521E+03  0.00000000000E+00 0. -1.
         11    1    4    4    0    0  0.31343815580E+02  0.15530446264E+02 -0.10316112250E+03  0.10893046742E+03  0.00000000000E+00 0.  1.
<mgrwt>
<rscale>  0 0.17336150E+03</rscale>
<asrwt>0</asrwt>
<pdfrwt beam="1">  1        3 0.11266945E-01 0.17940780E+03</pdfrwt>
<pdfrwt beam="2">  1       -3 0.59672361E-01 0.17940780E+03</pdfrwt>
<totfact> 0.40540196E+02</totfact>
</mgrwt>
</event>
<event>
 8    1  0.8504141E-006  0.1864693E+03  0.7546771E-02  0.1166818E+00
         -2   -1    0    0    0  501 -0.00000000000E+00  0.00000000000E+00  0.34860849643E+03  0.34860849643E+03  0.00000000000E+00 0.  1.
          2   -1    0    0  501    0  0.00000000000E+00 -0.00000000000E+00 -0.92775211707E+02  0.92775211707E+02  0.00000000000E+00 0. -1.
         23    2    1    2    0    0  0.19067606775E+02 -0.13704235740E+03  0.18021452200E+03  0.25932234460E+03  0.12500649231E+03 0.  0.
         23    2    1    2    0    0 -0.19067606775E+02  0.13704235740E+03  0.75618762720E+02  0.18206136353E+03  0.91016270340E+02 0.  0.
          5    1    3    3  502    0  0.56778946710E+02 -0.13076314597E+03  0.16448521751E+03  0.21771615906E+03  0.47000000000E+01 0.  1.
         -5    1    3    3    0  502 -0.37711339935E+02 -0.62792114272E+01  0.15729304488E+02  0.41606185544E+02  0.47000000000E+01 0.  1.
        -11    1    4    4    0    0 -0.33756184818E+02  0.64672412858E+02 -0.45139634826E+01  0.73091564936E+02  0.00000000000E+00 0. -1.
         11    1    4    4    0    0  0.14688578043E+02  0.72369944542E+02  0.80132726202E+02  0.10896979860E+03  0.00000000000E+00 0.  1.
<mgrwt>
<rscale>  0 0.18102147E+03</rscale>
<asrwt>0</asrwt>
<pdfrwt beam="2">  1        2 0.14273110E-01 0.18646931E+03</pdfrwt>
<pdfrwt beam="1">  1       -2 0.53632076E-01 0.18646931E+03</pdfrwt>
<totfact> 0.13604958E+03</totfact>
</mgrwt>
</event>
<event>
 8    1  0.8504141E-006  0.2548695E+03  0.7546771E-02  0.1112848E+00
          1   -1    0    0  501    0  0.00000000000E+00  0.00000000000E+00  0.12908553216E+04  0.12908553216E+04  0.00000000000E+00 0. -1.
         -1   -1    0    0    0  501 -0.00000000000E+00 -0.00000000000E+00 -0.47467993156E+02  0.47467993156E+02  0.00000000000E+00 0.  1.
         23    2    1    2    0    0 -0.18555432235E+03  0.12210959656E+03  0.69427325897E+03  0.73957679144E+03  0.12496924500E+03 0.  0.
         23    2    1    2    0    0  0.18555432235E+03 -0.12210959656E+03  0.54911406947E+03  0.59874652331E+03  0.87349743989E+02 0.  0.
          5    1    3    3  502    0  0.14955533122E+02 -0.61023246448E+01  0.46834165821E+02  0.49763796330E+02  0.47000000000E+01 0. -1.
         -5    1    3    3    0  502 -0.20050985547E+03  0.12821192121E+03  0.64743909315E+03  0.68981299511E+03  0.47000000000E+01 0. -1.
        -11    1    4    4    0    0  0.19073141651E+03 -0.10932467189E+03  0.53747876539E+03  0.58070111105E+03  0.00000000000E+00 0. -1.
         11    1    4    4    0    0 -0.51770941626E+01 -0.12784924666E+02  0.11635304077E+02  0.18045412261E+02  0.00000000000E+00 0.  1.
<mgrwt>
<rscale>  0 0.25072364E+03</rscale>
<asrwt>0</asrwt>
<pdfrwt beam="1">  1        1 0.19859310E+00 0.25486952E+03</pdfrwt>
<pdfrwt beam="2">  1       -1 0.73027692E-02 0.25486952E+03</pdfrwt>
<totfact> 0.98248377E+02</totfact>
</mgrwt>
</event>
<event>
 8    1  0.8504141E-006  0.1252704E+03  0.7546771E-02  0.1249418E+00
         -1   -1    0    0    0  501 -0.00000000000E+00  0.00000000000E+00  0.21092825098E+02  0.21092825098E+02  0.00000000000E+00 0.  1.
          1   -1    0    0  501    0  0.00000000000E+00 -0.00000000000E+00 -0.56579807789E+03  0.56579807789E+03  0.00000000000E+00 0. -1.
         23    2    1    2    0    0 -0.59019861797E+01  0.57720518984E+01 -0.29691961965E+03  0.32226376096E+03  0.12499808426E+03 0.  0.
         23    2    1    2    0    0  0.59019861797E+01 -0.57720518984E+01 -0.24778563314E+03  0.26462714203E+03  0.92529207738E+02 0.  0.
          5    1    3    3  502    0 -0.42597684012E+02  0.50974436362E+02 -0.14773332748E+03  0.16204993642E+03  0.47000000000E+01 0.  1.
         -5    1    3    3    0  502  0.36695697832E+02 -0.45202384463E+02 -0.14918629218E+03  0.16021382454E+03  0.47000000000E+01 0.  1.
        -11    1    4    4    0    0  0.26202618177E+02 -0.33118707274E+02 -0.20805037630E+03  0.21229315827E+03  0.00000000000E+00 0. -1.
         11    1    4    4    0    0 -0.20300631997E+02  0.27346655376E+02 -0.39735256834E+02  0.52333983752E+02  0.00000000000E+00 0.  1.
<mgrwt>
<rscale>  0 0.11624826E+03</rscale>
<asrwt>0</asrwt>
<pdfrwt beam="2">  1        1 0.87045861E-01 0.12527039E+03</pdfrwt>
<pdfrwt beam="1">  1       -1 0.32450499E-02 0.12527039E+03</pdfrwt>
<totfact> 0.12114348E+04</totfact>
</mgrwt>
</event>
<event>
 8    1  0.8504141E-006  0.1521180E+03  0.7546771E-02  0.1206666E+00
         -1   -1    0    0    0  501 -0.00000000000E+00  0.00000000000E+00  0.32504559162E+02  0.32504559162E+02  0.00000000000E+00 0.  1.
          1   -1    0    0  501    0  0.00000000000E+00 -0.00000000000E+00 -0.63852350276E+03  0.63852350276E+03  0.00000000000E+00 0. -1.
         23    2    1    2    0    0 -0.48373753798E+02 -0.71934673195E+02 -0.24161750358E+03  0.28551517150E+03  0.12500111142E+03 0.  0.
         23    2    1    2    0    0  0.48373753798E+02  0.71934673195E+02 -0.36440144002E+03  0.38551289043E+03  0.91198475490E+02 0.  0.
          5    1    3    3  502    0 -0.78310659200E+02 -0.87324218074E+02 -0.17494678412E+03  0.21068114695E+03  0.47000000000E+01 0.  1.
         -5    1    3    3    0  502  0.29936905403E+02  0.15389544879E+02 -0.66670719459E+02  0.74834024547E+02  0.47000000000E+01 0.  1.
        -11    1    4    4    0    0 -0.85192184984E+01  0.96788366716E+01 -0.15470956931E+01  0.12986549512E+02  0.00000000000E+00 0.  1.
         11    1    4    4    0    0  0.56892972296E+02  0.62255836523E+02 -0.36285434433E+03  0.37252634091E+03  0.00000000000E+00 0. -1.
<mgrwt>
<rscale>  0 0.14506971E+03</rscale>
<asrwt>0</asrwt>
<pdfrwt beam="2">  1        1 0.98234378E-01 0.15211803E+03</pdfrwt>
<pdfrwt beam="1">  1       -1 0.50007017E-02 0.15211803E+03</pdfrwt>
<totfact> 0.55074148E+03</totfact>
</mgrwt>
</event>
<event>
 8    1  0.8504141E-006  0.1308703E+03  0.7546771E-02  0.1240497E+00
          2   -1    0    0  501    0  0.00000000000E+00  0.00000000000E+00  0.27556003548E+03  0.27556003548E+03  0.00000000000E+00 0. -1.
         -2   -1    0    0    0  501 -0.00000000000E+00 -0.00000000000E+00 -0.51767360236E+02  0.51767360236E+02  0.00000000000E+00 0.  1.
         23    2    1    2    0    0  0.10485906795E+02 -0.37298647226E+02  0.79340810895E+02  0.15304248372E+03  0.12500357684E+03 0.  0.
         23    2    1    2    0    0 -0.10485906795E+02  0.37298647226E+02  0.14445186435E+03  0.17428491200E+03  0.89486010692E+02 0.  0.
          5    1    3    3  502    0  0.12172041469E+02 -0.82995111997E+02  0.59636560662E+02  0.10302891136E+03  0.47000000000E+01 0. -1.
         -5    1    3    3    0  502 -0.16861346749E+01  0.45696464771E+02  0.19704250233E+02  0.50013572358E+02  0.47000000000E+01 0. -1.
        -11    1    4    4    0    0  0.36177444894E+02  0.17897377709E+02  0.96579096953E+02  0.10467399685E+03  0.00000000000E+00 0. -1.
         11    1    4    4    0    0 -0.46663351688E+02  0.19401269517E+02  0.47872767396E+02  0.69610915149E+02  0.00000000000E+00 0.  1.
<mgrwt>
<rscale>  0 0.12158978E+03</rscale>
<asrwt>0</asrwt>
<pdfrwt beam="1">  1        2 0.42393851E-01 0.13087031E+03</pdfrwt>
<pdfrwt beam="2">  1       -2 0.79642095E-02 0.13087031E+03</pdfrwt>
<totfact> 0.10752114E+04</totfact>
</mgrwt>
</event>
<event>
 8    1  0.8504141E-006  0.1423369E+03  0.7546771E-02  0.1220856E+00
          2   -1    0    0  501    0  0.00000000000E+00  0.00000000000E+00  0.33054640620E+03  0.33054640620E+03  0.00000000000E+00 0. -1.
         -2   -1    0    0    0  501 -0.00000000000E+00 -0.00000000000E+00 -0.52108293255E+02  0.52108293255E+02  0.00000000000E+00 0.  1.
         23    2    1    2    0    0 -0.45431227423E+02 -0.50708317052E+02  0.11202129775E+03  0.18113135712E+03  0.12499787015E+03 0.  0.
         23    2    1    2    0    0  0.45431227423E+02  0.50708317052E+02  0.16641681519E+03  0.20152334233E+03  0.91004237706E+02 0.  0.
          5    1    3    3  502    0 -0.70862581379E+02 -0.32020515423E+02  0.15443417683E+02  0.79419191619E+02  0.47000000000E+01 0.  1.
         -5    1    3    3    0  502  0.25431353956E+02 -0.18687801629E+02  0.96577880064E+02  0.10171216550E+03  0.47000000000E+01 0.  1.
        -11    1    4    4    0    0  0.30080562017E+02  0.18237381371E+01  0.14126716981E+03  0.14444576664E+03  0.00000000000E+00 0. -1.
         11    1    4    4    0    0  0.15350665406E+02  0.48884578915E+02  0.25149645380E+02  0.57077575691E+02  0.00000000000E+00 0.  1.
<mgrwt>
<rscale>  0 0.13455003E+03</rscale>
<asrwt>0</asrwt>
<pdfrwt beam="1">  1        2 0.50853292E-01 0.14233692E+03</pdfrwt>
<pdfrwt beam="2">  1       -2 0.80166607E-02 0.14233692E+03</pdfrwt>
<totfact> 0.88308914E+03</totfact>
</mgrwt>
</event>
<event>
 8    1  0.8504141E-006  0.1290885E+03  0.7546771E-02  0.1241664E+00
          2   -1    0    0  501    0  0.00000000000E+00  0.00000000000E+00  0.46917134080E+03  0.46917134080E+03  0.00000000000E+00 0. -1.
         -2   -1    0    0    0  501 -0.00000000000E+00 -0.00000000000E+00 -0.29455243315E+02  0.29455243315E+02  0.00000000000E+00 0.  1.
         23    2    1    2    0    0 -0.12120615000E+02  0.29857567700E+02  0.18795835600E+03  0.22801792072E+03  0.12500177966E+03 0.  0.
         23    2    1    2    0    0  0.12120615000E+02 -0.29857567700E+02  0.25175774148E+03  0.27060866339E+03  0.93854699689E+02 0.  0.
          5    1    3    3  502    0  0.22890120774E+02 -0.20190435742E+01 -0.92035982240E+01  0.25195840654E+02  0.47000000000E+01 0.  1.
         -5    1    3    3    0  502 -0.35010735774E+02  0.31876611275E+02  0.19716195423E+03  0.20282208006E+03  0.47000000000E+01 0.  1.
        -11    1    4    4    0    0  0.36927814572E+02 -0.28700404120E+00  0.36518555906E+02  0.51936025896E+02  0.00000000000E+00 0.  1.
         11    1    4    4    0    0 -0.24807199571E+02 -0.29570563659E+02  0.21523918557E+03  0.21867263750E+03  0.00000000000E+00 0. -1.
<mgrwt>
<rscale>  0 0.12087292E+03</rscale>
<asrwt>0</asrwt>
<pdfrwt beam="1">  1        2 0.72180201E-01 0.12908845E+03</pdfrwt>
<pdfrwt beam="2">  1       -2 0.45315762E-02 0.12908845E+03</pdfrwt>
<totfact> 0.14323820E+04</totfact>
</mgrwt>
</event>
<event>
 8    1  0.1566620E-005  0.3666685E+03  0.7546771E-02  0.1056867E+00
          2   -1    0    0  501    0  0.00000000000E+00  0.00000000000E+00  0.71646763798E+03  0.71646763798E+03  0.00000000000E+00 0. -1.
         -2   -1    0    0    0  501 -0.00000000000E+00 -0.00000000000E+00 -0.20328553671E+03  0.20328553671E+03  0.00000000000E+00 0.  1.
         23    2    1    2    0    0 -0.30609184272E+02 -0.34334287022E+03  0.11430416835E+03  0.38407191837E+03  0.12499818754E+03 0.  0.
         23    2    1    2    0    0  0.30609184272E+02  0.34334287022E+03  0.39887793292E+03  0.53568125632E+03  0.95023967033E+02 0.  0.
          5    1    3    3  502    0  0.45855351567E+01  0.92264216915E+01 -0.11555612957E+01  0.11383290904E+02  0.47000000000E+01 0.  1.
         -5    1    3    3    0  502 -0.35194719429E+02 -0.35256929191E+03  0.11545972965E+03  0.37268862747E+03  0.47000000000E+01 0.  1.
        -11    1    4    4    0    0 -0.26940748006E+02  0.11995855333E+03  0.17780696884E+03  0.21617394984E+03  0.00000000000E+00 0.  1.
         11    1    4    4    0    0  0.57549932277E+02  0.22338431688E+03  0.22107096407E+03  0.31950730648E+03  0.00000000000E+00 0. -1.
<mgrwt>
<rscale>  0 0.36437044E+03</rscale>
<asrwt>0</asrwt>
<pdfrwt beam="1">  1        2 0.11022579E+00 0.36666851E+03</pdfrwt>
<pdfrwt beam="2">  1       -2 0.31274698E-01 0.36666851E+03</pdfrwt>
<totfact> 0.38624354E+02</totfact>
</mgrwt>
</event>
<event>
 8    1  0.8504141E-006  0.1558462E+03  0.7546771E-02  0.1203125E+00
          3   -1    0    0  501    0  0.00000000000E+00  0.00000000000E+00  0.11164750590E+03  0.11164750590E+03  0.00000000000E+00 0. -1.
         -3   -1    0    0    0  501 -0.00000000000E+00 -0.00000000000E+00 -0.28341233877E+03  0.28341233877E+03  0.00000000000E+00 0.  1.
         23    2    1    2    0    0  0.25969127260E+02 -0.88769442525E+02 -0.21146265785E+03  0.26268705051E+03  0.12543373288E+03 0.  0.
         23    2    1    2    0    0 -0.25969127260E+02  0.88769442525E+02  0.39697824972E+02  0.13237279417E+03  0.85978077620E+02 0.  0.
          5    1    3    3  502    0 -0.16127340870E+02  0.27146147677E+02 -0.52464518674E+02  0.61413517868E+02  0.47000000000E+01 0. -1.
         -5    1    3    3    0  502  0.42096468130E+02 -0.11591559020E+03 -0.15899813917E+03  0.20127353264E+03  0.47000000000E+01 0.  1.
        -11    1    4    4    0    0 -0.32000331057E+02  0.69798953558E+02 -0.11314613185E+02  0.77614016627E+02  0.00000000000E+00 0.  1.
         11    1    4    4    0    0  0.60312037971E+01  0.18970488967E+02  0.51012438157E+02  0.54758777539E+02  0.00000000000E+00 0. -1.
<mgrwt>
<rscale>  0 0.14786172E+03</rscale>
<asrwt>0</asrwt>
<pdfrwt beam="1">  1        3 0.17176539E-01 0.15584618E+03</pdfrwt>
<pdfrwt beam="2">  1       -3 0.43601898E-01 0.15584618E+03</pdfrwt>
<totfact> 0.36463269E+02</totfact>
</mgrwt>
</event>
<event>
 8    1  0.8504141E-006  0.1258295E+03  0.7546771E-02  0.1246592E+00
         -1   -1    0    0    0  501 -0.00000000000E+00  0.00000000000E+00  0.75594959143E+02  0.75594959143E+02  0.00000000000E+00 0.  1.
          1   -1    0    0  501    0  0.00000000000E+00 -0.00000000000E+00 -0.16916414319E+03  0.16916414319E+03  0.00000000000E+00 0. -1.
         23    2    1    2    0    0  0.14162155982E+02  0.28001256242E+01 -0.31899321740E+02  0.12980993955E+03  0.12499858525E+03 0.  0.
         23    2    1    2    0    0 -0.14162155982E+02 -0.28001256242E+01 -0.61669862307E+02  0.11494916278E+03  0.95925652154E+02 0.  0.
          5    1    3    3  502    0  0.46592125080E+02  0.46882986827E+02  0.53452744109E-01  0.66264118725E+02  0.47000000000E+01 0. -1.
         -5    1    3    3    0  502 -0.32429969098E+02 -0.44082861203E+02 -0.31952774484E+02  0.63545820828E+02  0.47000000000E+01 0. -1.
        -11    1    4    4    0    0 -0.65259638789E+00 -0.12486181940E+02  0.24331482513E+02  0.27356016939E+02  0.00000000000E+00 0.  1.
         11    1    4    4    0    0 -0.13509559594E+02  0.96860563155E+01 -0.86001344820E+02  0.87593145840E+02  0.00000000000E+00 0. -1.
<mgrwt>
<rscale>  0 0.11790610E+03</rscale>
<asrwt>0</asrwt>
<pdfrwt beam="2">  1        1 0.26025253E-01 0.12582946E+03</pdfrwt>
<pdfrwt beam="1">  1       -1 0.11629994E-01 0.12582946E+03</pdfrwt>
<totfact> 0.82190279E+03</totfact>
</mgrwt>
</event>
<event>
 7    1  0.8504141E-006  0.1508650E+03  0.7546771E-02  0.1219423E+00
          1   -1    0    0  501    0  0.00000000000E+00  0.00000000000E+00  0.33322345750E+03  0.33322345750E+03  0.00000000000E+00 0. -1.
         -1   -1    0    0    0  501 -0.00000000000E+00 -0.00000000000E+00 -0.46716231868E+02  0.46716231868E+02  0.00000000000E+00 0.  1.
         23    2    1    2    0    0 -0.40334072382E+02  0.60018500172E+01  0.10394727497E+03  0.14310985795E+03  0.89512769313E+02 0.  0.
          5    1    1    2  502    0  0.39393520072E+02  0.85569502477E+00  0.20711829219E+03  0.21088541580E+03  0.47000000000E+01 0. -1.
         -5    1    1    2    0  502  0.94055230974E+00 -0.68575450419E+01 -0.24558341534E+02  0.25944415614E+02  0.47000000000E+01 0.  1.
        -11    1    3    3    0    0 -0.15293937261E+02  0.33197104453E+02  0.42711738995E+01  0.36799391129E+02  0.00000000000E+00 0. -1.
         11    1    3    3    0    0 -0.25040135121E+02 -0.27195254436E+02  0.99676101075E+02  0.10631046682E+03  0.00000000000E+00 0.  1.
<mgrwt>
<rscale>  0 0.13556571E+03</rscale>
<asrwt>0</asrwt>
<pdfrwt beam="1">  1        1 0.51265146E-01 0.15086495E+03</pdfrwt>
<pdfrwt beam="2">  1       -1 0.71871128E-02 0.15086495E+03</pdfrwt>
<totfact> 0.74582797E+03</totfact>
</mgrwt>
</event>
<event>
 8    1  0.8504141E-006  0.1897007E+03  0.7546771E-02  0.1163617E+00
         -3   -1    0    0    0  501 -0.00000000000E+00  0.00000000000E+00  0.16039819892E+03  0.16039819892E+03  0.00000000000E+00 0.  1.
          3   -1    0    0  501    0  0.00000000000E+00 -0.00000000000E+00 -0.20118958416E+03  0.20118958416E+03  0.00000000000E+00 0. -1.
         23    2    1    2    0    0 -0.19034751896E+00  0.14269530981E+03 -0.15074512298E+02  0.19029868190E+03  0.12499743893E+03 0.  0.
         23    2    1    2    0    0  0.19034751896E+00 -0.14269530981E+03 -0.25716872941E+02  0.17128910119E+03  0.91195454704E+02 0.  0.
          5    1    3    3  502    0  0.21956202867E+02 -0.51485715388E+01 -0.32374851217E+02  0.39734161933E+02  0.47000000000E+01 0.  1.
         -5    1    3    3    0  502 -0.22146550386E+02  0.14784388135E+03  0.17300338919E+02  0.15056451997E+03  0.47000000000E+01 0.  1.
        -11    1    4    4    0    0 -0.23576377094E+02 -0.77151860085E+02 -0.52885455845E+02  0.96463083671E+02  0.00000000000E+00 0. -1.
         11    1    4    4    0    0  0.23766724613E+02 -0.65543449723E+02  0.27168582904E+02  0.74826017517E+02  0.00000000000E+00 0.  1.
<mgrwt>
<rscale>  0 0.18439384E+03</rscale>
<asrwt>0</asrwt>
<pdfrwt beam="2">  1        3 0.30952244E-01 0.18970068E+03</pdfrwt>
<pdfrwt beam="1">  1       -3 0.24676646E-01 0.18970068E+03</pdfrwt>
<totfact> 0.37809279E+02</totfact>
</mgrwt>
</event>
<event>
 8    1  0.8504141E-006  0.1655582E+03  0.7546771E-02  0.1189398E+00
          2   -1    0    0  501    0  0.00000000000E+00  0.00000000000E+00  0.37389819726E+03  0.37389819726E+03  0.00000000000E+00 0. -1.
         -2   -1    0    0    0  501 -0.00000000000E+00 -0.00000000000E+00 -0.91618535512E+02  0.91618535512E+02  0.00000000000E+00 0.  1.
         23    2    1    2    0    0 -0.10767688334E+03 -0.13802240894E+02  0.19462689069E+02  0.16669827675E+03  0.12499882458E+03 0.  0.
         23    2    1    2    0    0  0.10767688334E+03  0.13802240894E+02  0.26281697268E+03  0.29881845603E+03  0.91841687008E+02 0.  0.
          5    1    3    3  502    0 -0.90904672179E+02  0.46499287839E+02  0.18790138592E+02  0.10392787163E+03  0.47000000000E+01 0. -1.
         -5    1    3    3    0  502 -0.16772211159E+02 -0.60301528733E+02  0.67255047768E+00  0.62770405119E+02  0.47000000000E+01 0. -1.
        -11    1    4    4    0    0  0.12319725473E+02 -0.31767776152E+02  0.42568827519E+02  0.54525886638E+02  0.00000000000E+00 0.  1.
         11    1    4    4    0    0  0.95357157865E+02  0.45570017046E+02  0.22024814516E+03  0.24429256939E+03  0.00000000000E+00 0. -1.
<mgrwt>
<rscale>  0 0.15938039E+03</rscale>
<asrwt>0</asrwt>
<pdfrwt beam="1">  1        2 0.57522799E-01 0.16555820E+03</pdfrwt>
<pdfrwt beam="2">  1       -2 0.14095160E-01 0.16555820E+03</pdfrwt>
<totfact> 0.31910534E+03</totfact>
</mgrwt>
</event>
<event>
 8    1  0.8504141E-006  0.1589018E+03  0.7546771E-02  0.1197143E+00
         -4   -1    0    0    0  501 -0.00000000000E+00  0.00000000000E+00  0.55645018278E+03  0.55645018278E+03  0.00000000000E+00 0.  1.
          4   -1    0    0  501    0  0.00000000000E+00 -0.00000000000E+00 -0.39102559124E+02  0.39102559124E+02  0.00000000000E+00 0. -1.
         23    2    1    2    0    0  0.64325247687E+01 -0.97826285554E+02  0.29546891836E+03  0.33548721768E+03  0.12505371640E+03 0.  0.
         23    2    1    2    0    0 -0.64325247687E+01  0.97826285554E+02  0.22187870530E+03  0.26006552423E+03  0.93768638198E+02 0.  0.
          5    1    3    3  502    0  0.50828517041E+02 -0.38322048255E+02  0.56623912721E+02  0.85325699639E+02  0.47000000000E+01 0. -1.
         -5    1    3    3    0  502 -0.44395992272E+02 -0.59504237299E+02  0.23884500564E+03  0.25016151804E+03  0.47000000000E+01 0. -1.
        -11    1    4    4    0    0  0.15018806805E+02  0.40639862360E+02  0.17450953641E+02  0.46708658228E+02  0.00000000000E+00 0. -1.
         11    1    4    4    0    0 -0.21451331574E+02  0.57186423195E+02  0.20442775166E+03  0.21335686600E+03  0.00000000000E+00 0.  1.
<mgrwt>
<rscale>  0 0.15274270E+03</rscale>
<asrwt>0</asrwt>
<pdfrwt beam="2">  1        4 0.60157787E-02 0.15890183E+03</pdfrwt>
<pdfrwt beam="1">  1       -4 0.85607715E-01 0.15890183E+03</pdfrwt>
<totfact> 0.36980828E+02</totfact>
</mgrwt>
</event>
<event>
 8    1  0.8504141E-006  0.2608477E+03  0.7546771E-02  0.1108845E+00
          2   -1    0    0  501    0  0.00000000000E+00  0.00000000000E+00  0.12473768727E+04  0.12473768727E+04  0.00000000000E+00 0. -1.
         -2   -1    0    0    0  501 -0.00000000000E+00 -0.00000000000E+00 -0.52009606925E+02  0.52009606925E+02  0.00000000000E+00 0.  1.
         23    2    1    2    0    0  0.22660528789E+03  0.32653123707E+02  0.67269968387E+03  0.72150287512E+03  0.12500140452E+03 0.  0.
         23    2    1    2    0    0 -0.22660528789E+03 -0.32653123707E+02  0.52266758194E+03  0.57788360454E+03  0.91388599936E+02 0.  0.
          5    1    3    3  502    0  0.98340203749E+02  0.76975120803E+02  0.31308800846E+03  0.33710852250E+03  0.47000000000E+01 0.  1.
         -5    1    3    3    0  502  0.12826508415E+03 -0.44321997096E+02  0.35961167541E+03  0.38439435262E+03  0.47000000000E+01 0.  1.
        -11    1    4    4    0    0 -0.10657300061E+03  0.23464074599E+02  0.18006957316E+03  0.21055502471E+03  0.00000000000E+00 0.  1.
         11    1    4    4    0    0 -0.12003228729E+03 -0.56117198305E+02  0.34259800878E+03  0.36732857983E+03  0.00000000000E+00 0. -1.
<mgrwt>
<rscale>  0 0.25718741E+03</rscale>
<asrwt>0</asrwt>
<pdfrwt beam="1">  1        2 0.19190411E+00 0.26084772E+03</pdfrwt>
<pdfrwt beam="2">  1       -2 0.80014789E-02 0.26084772E+03</pdfrwt>
<totfact> 0.17756623E+03</totfact>
</mgrwt>
</event>
<event>
 8    1  0.8504141E-006  0.1573145E+03  0.7546771E-02  0.1199417E+00
         -4   -1    0    0    0  501 -0.00000000000E+00  0.00000000000E+00  0.10028834916E+03  0.10028834916E+03  0.00000000000E+00 0. -1.
          4   -1    0    0  501    0  0.00000000000E+00 -0.00000000000E+00 -0.22659162299E+03  0.22659162299E+03  0.00000000000E+00 0.  1.
         23    2    1    2    0    0 -0.59117377124E+02 -0.75018379299E+02 -0.24198610467E+02  0.15916479337E+03  0.12500094875E+03 0.  0.
         23    2    1    2    0    0  0.59117377124E+02  0.75018379299E+02 -0.10210466337E+03  0.16771517879E+03  0.92630434547E+02 0.  0.
          5    1    3    3  502    0 -0.92721880173E+02 -0.70695320150E+02  0.97013851986E+00  0.11669707161E+03  0.47000000000E+01 0. -1.
         -5    1    3    3    0  502  0.33604503049E+02 -0.43230591491E+01 -0.25168748987E+02  0.42467721756E+02  0.47000000000E+01 0. -1.
        -11    1    4    4    0    0 -0.47785318269E+01  0.10808103951E+02 -0.70942400282E+02  0.71919911257E+02  0.00000000000E+00 0.  1.
         11    1    4    4    0    0  0.63895908951E+02  0.64210275348E+02 -0.31162263083E+02  0.95795267531E+02  0.00000000000E+00 0. -1.
<mgrwt>
<rscale>  0 0.15086293E+03</rscale>
<asrwt>0</asrwt>
<pdfrwt beam="2">  1        4 0.34860250E-01 0.15731452E+03</pdfrwt>
<pdfrwt beam="1">  1       -4 0.15428977E-01 0.15731452E+03</pdfrwt>
<totfact> 0.48754511E+02</totfact>
</mgrwt>
</event>
<event>
 8    1  0.8504141E-006  0.1294697E+03  0.7546771E-02  0.1251664E+00
          2   -1    0    0  501    0  0.00000000000E+00  0.00000000000E+00  0.82402762565E+02  0.82402762565E+02  0.00000000000E+00 0. -1.
         -2   -1    0    0    0  501 -0.00000000000E+00 -0.00000000000E+00 -0.14281311956E+03  0.14281311956E+03  0.00000000000E+00 0.  1.
         23    2    1    2    0    0  0.13782921492E+02 -0.30778614343E+02 -0.64513597885E+02  0.14465274991E+03  0.12500048687E+03 0.  0.
         23    2    1    2    0    0 -0.13782921492E+02  0.30778614343E+02  0.41032408942E+01  0.80563132213E+02  0.73049912118E+02 0.  0.
          5    1    3    3  502    0  0.64347548897E+01  0.45617044413E+02 -0.46611567946E+02  0.65704254640E+02  0.47000000000E+01 0.  1.
         -5    1    3    3    0  502  0.73481666022E+01 -0.76395658755E+02 -0.17902029939E+02  0.78948495268E+02  0.47000000000E+01 0.  1.
        -11    1    4    4    0    0 -0.90876605307E+01  0.15357215421E+02 -0.34437873294E+02  0.38786553810E+02  0.00000000000E+00 0.  1.
         11    1    4    4    0    0 -0.46952609612E+01  0.15421398922E+02  0.38541114188E+02  0.41776578403E+02  0.00000000000E+00 0. -1.
<mgrwt>
<rscale>  0 0.11495273E+03</rscale>
<asrwt>0</asrwt>
<pdfrwt beam="1">  1        2 0.12677348E-01 0.12946974E+03</pdfrwt>
<pdfrwt beam="2">  1       -2 0.21971249E-01 0.12946974E+03</pdfrwt>
<totfact> 0.80123246E+03</totfact>
</mgrwt>
</event>
<event>
 8    1  0.8504141E-006  0.1475976E+03  0.7546771E-02  0.1212927E+00
          4   -1    0    0  501    0  0.00000000000E+00  0.00000000000E+00  0.15951997197E+03  0.15951997197E+03  0.00000000000E+00 0. -1.
         -4   -1    0    0    0  501 -0.00000000000E+00 -0.00000000000E+00 -0.11275972815E+03  0.11275972815E+03  0.00000000000E+00 0.  1.
         23    2    1    2    0    0 -0.35380084212E+02 -0.69978141395E+02  0.30104348445E+02  0.15063640501E+03  0.12504544808E+03 0.  0.
         23    2    1    2    0    0  0.35380084212E+02  0.69978141395E+02  0.16655895374E+02  0.12164329512E+03  0.91493069487E+02 0.  0.
          5    1    3    3  502    0  0.40674866893E+02 -0.73173266882E+00 -0.62850937133E+01  0.41431541517E+02  0.47000000000E+01 0.  1.
         -5    1    3    3    0  502 -0.76054951105E+02 -0.69246408726E+02  0.36389442158E+02  0.10920486349E+03  0.47000000000E+01 0.  1.
        -11    1    4    4    0    0  0.36747000787E+02 -0.11771446015E+02  0.81820945493E+01  0.39444336467E+02  0.00000000000E+00 0. -1.
         11    1    4    4    0    0 -0.13669165748E+01  0.81749587410E+02  0.84738008246E+01  0.82198958649E+02  0.00000000000E+00 0.  1.
<mgrwt>
<rscale>  0 0.14029885E+03</rscale>
<asrwt>0</asrwt>
<pdfrwt beam="1">  1        4 0.24541534E-01 0.14759761E+03</pdfrwt>
<pdfrwt beam="2">  1       -4 0.17347650E-01 0.14759761E+03</pdfrwt>
<totfact> 0.75984496E+02</totfact>
</mgrwt>
</event>
<event>
 8    1  0.8504141E-006  0.2682366E+03  0.7546771E-02  0.1104471E+00
          2   -1    0    0  501    0  0.00000000000E+00  0.00000000000E+00  0.68020031151E+03  0.68020031151E+03  0.00000000000E+00 0. -1.
         -2   -1    0    0    0  501 -0.00000000000E+00 -0.00000000000E+00 -0.10185473133E+03  0.10185473133E+03  0.00000000000E+00 0.  1.
         23    2    1    2    0    0  0.22824692175E+03 -0.64927420955E+02  0.24558143911E+03  0.36367720608E+03  0.12505454692E+03 0.  0.
         23    2    1    2    0    0 -0.22824692175E+03  0.64927420955E+02  0.33276414107E+03  0.41837783676E+03  0.89419312391E+02 0.  0.
          5    1    3    3  502    0  0.61603027882E+02 -0.79730128099E+02  0.93391797793E+02  0.13746251949E+03  0.47000000000E+01 0.  1.
         -5    1    3    3    0  502  0.16664389386E+03  0.14802707143E+02  0.15218964132E+03  0.22621468658E+03  0.47000000000E+01 0.  1.
        -11    1    4    4    0    0 -0.15613140942E+03  0.23989475664E+02  0.27559639764E+03  0.31765686887E+03  0.00000000000E+00 0. -1.
         11    1    4    4    0    0 -0.72115512325E+02  0.40937945292E+02  0.57167743434E+02  0.10072096789E+03  0.00000000000E+00 0.  1.
<mgrwt>
<rscale>  0 0.26449756E+03</rscale>
<asrwt>0</asrwt>
<pdfrwt beam="1">  1        2 0.10464620E+00 0.26823659E+03</pdfrwt>
<pdfrwt beam="2">  1       -2 0.15669959E-01 0.26823659E+03</pdfrwt>
<totfact> 0.13826704E+03</totfact>
</mgrwt>
</event>
<event>
 8    1  0.8504141E-006  0.1321330E+03  0.7546771E-02  0.1237686E+00
         -2   -1    0    0    0  501 -0.00000000000E+00  0.00000000000E+00  0.11501813533E+02  0.11501813533E+02  0.00000000000E+00 0.  1.
          2   -1    0    0  501    0  0.00000000000E+00 -0.00000000000E+00 -0.11766640506E+04  0.11766640506E+04  0.00000000000E+00 0. -1.
         23    2    1    2    0    0  0.94984396332E+01  0.41799776456E+02 -0.63676397460E+03  0.65032875274E+03  0.12498674180E+03 0.  0.
         23    2    1    2    0    0 -0.94984396332E+01 -0.41799776456E+02 -0.52839826249E+03  0.53783711141E+03  0.90700567503E+02 0.  0.
          5    1    3    3  502    0  0.14776729158E+02 -0.18134439641E+02 -0.21517311230E+02  0.32129337190E+02  0.47000000000E+01 0. -1.
         -5    1    3    3    0  502 -0.52782895248E+01  0.59934216096E+02 -0.61524666337E+03  0.61819941555E+03  0.47000000000E+01 0. -1.
        -11    1    4    4    0    0 -0.45472328919E+02 -0.45197300994E+02 -0.32803009889E+03  0.33423685388E+03  0.00000000000E+00 0. -1.
         11    1    4    4    0    0  0.35973889286E+02  0.33975245383E+01 -0.20036816360E+03  0.20360025754E+03  0.00000000000E+00 0.  1.
<mgrwt>
<rscale>  0 0.12334029E+03</rscale>
<asrwt>0</asrwt>
<pdfrwt beam="2">  1        2 0.18102531E+00 0.13213299E+03</pdfrwt>
<pdfrwt beam="1">  1       -2 0.17695090E-02 0.13213299E+03</pdfrwt>
<totfact> 0.18266523E+04</totfact>
</mgrwt>
</event>
<event>
 8    1  0.8504141E-006  0.1251720E+03  0.7546771E-02  0.1253566E+00
          1   -1    0    0  501    0  0.00000000000E+00  0.00000000000E+00  0.28704919961E+02  0.28704919961E+02  0.00000000000E+00 0. -1.
         -1   -1    0    0    0  501 -0.00000000000E+00 -0.00000000000E+00 -0.40679374956E+03  0.40679374956E+03  0.00000000000E+00 0.  1.
         23    2    1    2    0    0  0.65433891145E+01  0.61787550165E-01 -0.26948260332E+03  0.29713448895E+03  0.12500084510E+03 0.  0.
         23    2    1    2    0    0 -0.65433891145E+01 -0.61787550165E-01 -0.10860622628E+03  0.13836418057E+03  0.85478151120E+02 0.  0.
          5    1    3    3  502    0 -0.21218957218E+00  0.27117894028E+02 -0.13938506980E+01  0.27558265923E+02  0.47000000000E+01 0.  1.
         -5    1    3    3    0  502  0.67555786867E+01 -0.27056106478E+02 -0.26808875262E+03  0.26957622303E+03  0.47000000000E+01 0.  1.
        -11    1    4    4    0    0 -0.26367963711E+01  0.39918518159E+02 -0.78697227622E+02  0.88281903143E+02  0.00000000000E+00 0.  1.
         11    1    4    4    0    0 -0.39065927434E+01 -0.39980305709E+02 -0.29908998659E+02  0.50082277427E+02  0.00000000000E+00 0. -1.
<mgrwt>
<rscale>  0 0.11387055E+03</rscale>
<asrwt>0</asrwt>
<pdfrwt beam="1">  1        1 0.44161421E-02 0.12517201E+03</pdfrwt>
<pdfrwt beam="2">  1       -1 0.62583646E-01 0.12517201E+03</pdfrwt>
<totfact> 0.50277611E+03</totfact>
</mgrwt>
</event>
<event>
 8    1  0.8504141E-006  0.2318232E+03  0.7546771E-02  0.1128343E+00
         -2   -1    0    0    0  501 -0.00000000000E+00  0.00000000000E+00  0.63519611465E+03  0.63519611465E+03  0.00000000000E+00 0.  1.
          2   -1    0    0  501    0  0.00000000000E+00 -0.00000000000E+00 -0.84910362965E+02  0.84910362965E+02  0.00000000000E+00 0. -1.
         23    2    1    2    0    0 -0.16103565238E+03  0.11038712841E+03  0.38176129576E+03  0.44663594202E+03  0.12499671320E+03 0.  0.
         23    2    1    2    0    0  0.16103565238E+03 -0.11038712841E+03  0.16852445593E+03  0.27347053559E+03  0.90927675287E+02 0.  0.
          5    1    3    3  502    0 -0.11926017206E+03  0.94639879905E+02  0.16211023764E+03  0.22244440801E+03  0.47000000000E+01 0.  1.
         -5    1    3    3    0  502 -0.41775480327E+02  0.15747248509E+02  0.21965105811E+03  0.22419153401E+03  0.47000000000E+01 0.  1.
        -11    1    4    4    0    0  0.73965225444E+02 -0.80483980056E+02  0.13891244140E+03  0.17676309568E+03  0.00000000000E+00 0.  1.
         11    1    4    4    0    0  0.87070426939E+02 -0.29903148358E+02  0.29612014531E+02  0.96707439909E+02  0.00000000000E+00 0. -1.
<mgrwt>
<rscale>  0 0.22759649E+03</rscale>
<asrwt>0</asrwt>
<pdfrwt beam="2">  1        2 0.13063133E-01 0.23182316E+03</pdfrwt>
<pdfrwt beam="1">  1       -2 0.97722476E-01 0.23182316E+03</pdfrwt>
<totfact> 0.41655782E+02</totfact>
</mgrwt>
</event>
<event>
 8    1  0.8504141E-006  0.1630119E+03  0.7546771E-02  0.1192934E+00
         -2   -1    0    0    0  501 -0.00000000000E+00  0.00000000000E+00  0.69503160036E+03  0.69503160036E+03  0.00000000000E+00 0. -1.
          2   -1    0    0  501    0  0.00000000000E+00 -0.00000000000E+00 -0.32558397747E+02  0.32558397747E+02  0.00000000000E+00 0.  1.
         23    2    1    2    0    0  0.85721339348E+00  0.10463837052E+03  0.36609124145E+03  0.40074390908E+03  0.12499184052E+03 0.  0.
         23    2    1    2    0    0 -0.85721339348E+00 -0.10463837052E+03  0.29638196117E+03  0.32684608903E+03  0.89644718812E+02 0.  0.
          5    1    3    3  502    0 -0.56703602930E+02  0.83947506209E+02  0.21716889354E+03  0.23968083091E+03  0.47000000000E+01 0.  1.
         -5    1    3    3    0  502  0.57560816324E+02  0.20690864315E+02  0.14892234791E+03  0.16106307817E+03  0.47000000000E+01 0.  1.
        -11    1    4    4    0    0  0.24527881330E+02 -0.46798200867E+02  0.50891952670E+02  0.73359930571E+02  0.00000000000E+00 0.  1.
         11    1    4    4    0    0 -0.25385094723E+02 -0.57840169657E+02  0.24549000850E+03  0.25348615846E+03  0.00000000000E+00 0. -1.
<mgrwt>
<rscale>  0 0.15630360E+03</rscale>
<asrwt>0</asrwt>
<pdfrwt beam="2">  1        2 0.50089848E-02 0.16301191E+03</pdfrwt>
<pdfrwt beam="1">  1       -2 0.10692793E+00 0.16301191E+03</pdfrwt>
<totfact> 0.11231768E+03</totfact>
</mgrwt>
</event>
<event>
 8    1  0.8504141E-006  0.1380621E+03  0.7546771E-02  0.1226208E+00
         -1   -1    0    0    0  501 -0.00000000000E+00  0.00000000000E+00  0.13059870213E+03  0.13059870213E+03  0.00000000000E+00 0.  1.
          1   -1    0    0  501    0  0.00000000000E+00 -0.00000000000E+00 -0.12235671805E+03  0.12235671805E+03  0.00000000000E+00 0. -1.
         23    2    1    2    0    0 -0.25611455551E+02  0.52706660283E+02  0.25054163482E+02  0.14031694438E+03  0.12500878000E+03 0.  0.
         23    2    1    2    0    0  0.25611455551E+02 -0.52706660283E+02 -0.16812179401E+02  0.11263847580E+03  0.94714508716E+02 0.  0.
          5    1    3    3  502    0 -0.69743410002E+02  0.47424914639E+02 -0.78229751835E+01  0.84832509736E+02  0.47000000000E+01 0.  1.
         -5    1    3    3    0  502  0.44131954451E+02  0.52817456433E+01  0.32877138666E+02  0.55484434642E+02  0.47000000000E+01 0.  1.
        -11    1    4    4    0    0 -0.24304685940E+02  0.68194451937E+01 -0.23730113876E+02  0.34645936211E+02  0.00000000000E+00 0. -1.
         11    1    4    4    0    0  0.49916141491E+02 -0.59526105476E+02  0.69179344749E+01  0.77992539591E+02  0.00000000000E+00 0.  1.
<mgrwt>
<rscale>  0 0.13084417E+03</rscale>
<asrwt>0</asrwt>
<pdfrwt beam="2">  1        1 0.18824110E-01 0.13806206E+03</pdfrwt>
<pdfrwt beam="1">  1       -1 0.20092108E-01 0.13806206E+03</pdfrwt>
<totfact> 0.52800603E+03</totfact>
</mgrwt>
</event>
<event>
 7    1  0.8504141E-006  0.1486573E+03  0.7546771E-02  0.1217336E+00
          1   -1    0    0  501    0  0.00000000000E+00  0.00000000000E+00  0.33727308591E+02  0.33727308591E+02  0.00000000000E+00 0. -1.
         -1   -1    0    0    0  501 -0.00000000000E+00 -0.00000000000E+00 -0.48617724972E+03  0.48617724972E+03  0.00000000000E+00 0.  1.
         23    2    1    2    0    0 -0.45084055561E+02  0.33813188320E+02 -0.18671530115E+03  0.21541502093E+03  0.91461050674E+02 0.  0.
          5    1    1    2  502    0  0.68281007060E+02  0.46392565173E+01 -0.52115775681E+02  0.86150813699E+02  0.47000000000E+01 0. -1.
         -5    1    1    2    0  502 -0.23196951499E+02 -0.38452444838E+02 -0.21361886430E+03  0.21833872368E+03  0.47000000000E+01 0.  1.
        -11    1    3    3    0    0  0.26502048654E+02  0.32180158361E+01 -0.71889887932E+02  0.76686831957E+02  0.00000000000E+00 0. -1.
         11    1    3    3    0    0 -0.71586104215E+02  0.30595172484E+02 -0.11482541322E+03  0.13872818897E+03  0.00000000000E+00 0.  1.
<mgrwt>
<rscale>  0 0.13706297E+03</rscale>
<asrwt>0</asrwt>
<pdfrwt beam="1">  1        1 0.51888167E-02 0.14865726E+03</pdfrwt>
<pdfrwt beam="2">  1       -1 0.74796501E-01 0.14865726E+03</pdfrwt>
<totfact> 0.28725026E+03</totfact>
</mgrwt>
</event>
<event>
 8    1  0.8504141E-006  0.1313960E+03  0.7546771E-02  0.1238205E+00
         -1   -1    0    0    0  501 -0.00000000000E+00  0.00000000000E+00  0.40534415426E+02  0.40534415426E+02  0.00000000000E+00 0.  1.
          1   -1    0    0  501    0  0.00000000000E+00 -0.00000000000E+00 -0.36093758200E+03  0.36093758200E+03  0.00000000000E+00 0. -1.
         23    2    1    2    0    0  0.39787356179E+02 -0.75518213720E+01 -0.12410538256E+03  0.18074031314E+03  0.12499940438E+03 0.  0.
         23    2    1    2    0    0 -0.39787356179E+02  0.75518213720E+01 -0.19629778401E+03  0.22073168428E+03  0.92464007714E+02 0.  0.
          5    1    3    3  502    0  0.83025253523E+02  0.14066081413E+00 -0.10120897933E+03  0.13099068671E+03  0.47000000000E+01 0.  1.
         -5    1    3    3    0  502 -0.43237897344E+02 -0.76924821861E+01 -0.22896403234E+02  0.49749626430E+02  0.47000000000E+01 0.  1.
        -11    1    4    4    0    0 -0.51981419629E+02  0.31635209449E+02 -0.17801605644E+03  0.18812913335E+03  0.00000000000E+00 0. -1.
         11    1    4    4    0    0  0.12194063450E+02 -0.24083388077E+02 -0.18281727567E+02  0.32602550936E+02  0.00000000000E+00 0.  1.
<mgrwt>
<rscale>  0 0.12301459E+03</rscale>
<asrwt>0</asrwt>
<pdfrwt beam="2">  1        1 0.55528861E-01 0.13139602E+03</pdfrwt>
<pdfrwt beam="1">  1       -1 0.62360636E-02 0.13139602E+03</pdfrwt>
<totfact> 0.82732006E+03</totfact>
</mgrwt>
</event>
<event>
 8    1  0.8504141E-006  0.1180869E+03  0.7546771E-02  0.1253015E+00
         -2   -1    0    0    0  501 -0.00000000000E+00  0.00000000000E+00  0.85648720961E+02  0.85648720961E+02  0.00000000000E+00 0.  1.
          2   -1    0    0  501    0  0.00000000000E+00 -0.00000000000E+00 -0.14566082019E+03  0.14566082019E+03  0.00000000000E+00 0. -1.
         23    2    1    2    0    0  0.26477042819E+02  0.11786959619E+02 -0.16291192892E+02  0.11920531507E+03  0.11447505388E+03 0.  0.
         23    2    1    2    0    0 -0.26477042819E+02 -0.11786959619E+02 -0.43720906338E+02  0.11210422608E+03  0.99075090921E+02 0.  0.
          5    1    3    3  502    0  0.54336444863E+02  0.64423921436E+01 -0.50437183833E+02  0.74565093509E+02  0.47000000000E+01 0. -1.
         -5    1    3    3    0  502 -0.27859402044E+02  0.53445674750E+01  0.34145990941E+02  0.44640221562E+02  0.47000000000E+01 0.  1.
        -11    1    4    4    0    0  0.26874160592E+02  0.25346015520E+02 -0.24474970877E+02  0.44313262232E+02  0.00000000000E+00 0.  1.
         11    1    4    4    0    0 -0.53351203411E+02 -0.37132975138E+02 -0.19245935462E+02  0.67790963850E+02  0.00000000000E+00 0. -1.
<mgrwt>
<rscale>  0 0.11418252E+03</rscale>
<asrwt>0</asrwt>
<pdfrwt beam="2">  1        2 0.22409357E-01 0.11808685E+03</pdfrwt>
<pdfrwt beam="1">  1       -2 0.13176726E-01 0.11808685E+03</pdfrwt>
<totfact> 0.96229868E+03</totfact>
</mgrwt>
</event>
<event>
 8    1  0.8504141E-006  0.2696864E+03  0.7546771E-02  0.1103540E+00
          1   -1    0    0  501    0  0.00000000000E+00  0.00000000000E+00  0.18685553935E+04  0.18685553935E+04  0.00000000000E+00 0. -1.
         -1   -1    0    0    0  501 -0.00000000000E+00 -0.00000000000E+00 -0.51074792294E+02  0.51074792294E+02  0.00000000000E+00 0.  1.
         23    2    1    2    0    0  0.76661509634E+02  0.22633128014E+03  0.42111968916E+03  0.50007256446E+03  0.12501176621E+03 0.  0.
         23    2    1    2    0    0 -0.76661509634E+02 -0.22633128014E+03  0.13963609121E+04  0.14195576214E+04  0.90648817893E+02 0.  0.
          5    1    3    3  502    0  0.17376309988E+02  0.61598989101E+02  0.23874850552E+03  0.24722319975E+03  0.47000000000E+01 0. -1.
         -5    1    3    3    0  502  0.59285199646E+02  0.16473229104E+03  0.18237118364E+03  0.25284936470E+03  0.47000000000E+01 0. -1.
        -11    1    4    4    0    0 -0.45661647954E+02 -0.25523220659E+02  0.27179363452E+03  0.27678186474E+03  0.00000000000E+00 0.  1.
         11    1    4    4    0    0 -0.30999861680E+02 -0.20080805948E+03  0.11245672776E+04  0.11427757566E+04  0.00000000000E+00 0. -1.
<mgrwt>
<rscale>  0 0.26608791E+03</rscale>
<asrwt>0</asrwt>
<pdfrwt beam="1">  1        1 0.28747001E+00 0.26968644E+03</pdfrwt>
<pdfrwt beam="2">  1       -1 0.78576618E-02 0.26968644E+03</pdfrwt>
<totfact> 0.36393653E+02</totfact>
</mgrwt>
</event>
<event>
 8    1  0.8504141E-006  0.2502791E+03  0.7546771E-02  0.1115564E+00
          2   -1    0    0  501    0  0.00000000000E+00  0.00000000000E+00  0.18453539695E+04  0.18453539695E+04  0.00000000000E+00 0. -1.
         -2   -1    0    0    0  501 -0.00000000000E+00 -0.00000000000E+00 -0.35586025875E+02  0.35586025875E+02  0.00000000000E+00 0.  1.
         23    2    1    2    0    0  0.18254997203E+03 -0.11699899667E+03  0.62932673525E+03  0.67726786002E+03  0.12500542789E+03 0.  0.
         23    2    1    2    0    0 -0.18254997203E+03  0.11699899667E+03  0.11804412084E+04  0.12036721354E+04  0.91498117459E+02 0.  0.
          5    1    3    3  502    0  0.14380327173E+02  0.19870394658E+02  0.13744508143E+03  0.13969562198E+03  0.47000000000E+01 0.  1.
         -5    1    3    3    0  502  0.16816964486E+03 -0.13686939133E+03  0.49188165383E+03  0.53757223803E+03  0.47000000000E+01 0.  1.
        -11    1    4    4    0    0 -0.91759187296E+02  0.10326588888E+03  0.82910883796E+03  0.84053855203E+03  0.00000000000E+00 0. -1.
         11    1    4    4    0    0 -0.90790784735E+02  0.13733107794E+02  0.35133237042E+03  0.36313358334E+03  0.00000000000E+00 0.  1.
<mgrwt>
<rscale>  0 0.24645781E+03</rscale>
<asrwt>0</asrwt>
<pdfrwt beam="1">  1        2 0.28390054E+00 0.25027907E+03</pdfrwt>
<pdfrwt beam="2">  1       -2 0.54747747E-02 0.25027907E+03</pdfrwt>
<totfact> 0.15290416E+03</totfact>
</mgrwt>
</event>
<event>
 8    1  0.8504141E-006  0.1539757E+03  0.7546771E-02  0.1204905E+00
          2   -1    0    0  501    0  0.00000000000E+00  0.00000000000E+00  0.35115397027E+03  0.35115397027E+03  0.00000000000E+00 0. -1.
         -2   -1    0    0    0  501 -0.00000000000E+00 -0.00000000000E+00 -0.60622591786E+02  0.60622591786E+02  0.00000000000E+00 0.  1.
         23    2    1    2    0    0 -0.84338898363E+02  0.31109215215E+02  0.10087404986E+03  0.18407635162E+03  0.12501078451E+03 0.  0.
         23    2    1    2    0    0  0.84338898363E+02 -0.31109215215E+02  0.18965732863E+03  0.22770021044E+03  0.88298643710E+02 0.  0.
          5    1    3    3  502    0 -0.24545436160E+02 -0.48120970966E+02  0.29504076374E+02  0.61730760612E+02  0.47000000000E+01 0. -1.
         -5    1    3    3    0  502 -0.59793462203E+02  0.79230186182E+02  0.71369973482E+02  0.12234559101E+03  0.47000000000E+01 0. -1.
        -11    1    4    4    0    0  0.56802149711E+02  0.19955178572E+02  0.56984182942E+02  0.82896866462E+02  0.00000000000E+00 0.  1.
         11    1    4    4    0    0  0.27536748652E+02 -0.51064393788E+02  0.13267314569E+03  0.14480334397E+03  0.00000000000E+00 0. -1.
<mgrwt>
<rscale>  0 0.14644918E+03</rscale>
<asrwt>0</asrwt>
<pdfrwt beam="1">  1        2 0.54023687E-01 0.15397574E+03</pdfrwt>
<pdfrwt beam="2">  1       -2 0.93265527E-02 0.15397574E+03</pdfrwt>
<totfact> 0.65758212E+03</totfact>
</mgrwt>
</event>
<event>
 8    1  0.8504141E-006  0.1847296E+03  0.7546771E-02  0.1168521E+00
         -1   -1    0    0    0  501 -0.00000000000E+00  0.00000000000E+00  0.45634597600E+03  0.45634597600E+03  0.00000000000E+00 0.  1.
          1   -1    0    0  501    0  0.00000000000E+00 -0.00000000000E+00 -0.67602614149E+02  0.67602614149E+02  0.00000000000E+00 0. -1.
         23    2    1    2    0    0  0.39298581375E+02  0.13022171464E+03  0.23852196060E+03  0.30169151234E+03  0.12499187761E+03 0.  0.
         23    2    1    2    0    0 -0.39298581375E+02 -0.13022171464E+03  0.15022140126E+03  0.22225707781E+03  0.91267002687E+02 0.  0.
          5    1    3    3  502    0 -0.56094820865E+01  0.18644077639E+02 -0.12285019618E+02  0.23496374769E+02  0.47000000000E+01 0. -1.
         -5    1    3    3    0  502  0.44908063462E+02  0.11157763700E+03  0.25080698021E+03  0.27819513757E+03  0.47000000000E+01 0. -1.
        -11    1    4    4    0    0 -0.62346890345E+02 -0.74173236790E+02  0.12088989791E+03  0.15492956854E+03  0.00000000000E+00 0.  1.
         11    1    4    4    0    0  0.23048308969E+02 -0.56048477853E+02  0.29331503343E+02  0.67327509268E+02  0.00000000000E+00 0. -1.
<mgrwt>
<rscale>  0 0.17926007E+03</rscale>
<asrwt>0</asrwt>
<pdfrwt beam="2">  1        1 0.10400402E-01 0.18472965E+03</pdfrwt>
<pdfrwt beam="1">  1       -1 0.70207071E-01 0.18472965E+03</pdfrwt>
<totfact> 0.12834714E+03</totfact>
</mgrwt>
</event>
<event>
 8    1  0.8504141E-006  0.1334043E+03  0.7546771E-02  0.1236812E+00
          1   -1    0    0  501    0  0.00000000000E+00  0.00000000000E+00  0.45092825216E+03  0.45092825216E+03  0.00000000000E+00 0. -1.
         -1   -1    0    0    0  501 -0.00000000000E+00 -0.00000000000E+00 -0.31648303421E+02  0.31648303421E+02  0.00000000000E+00 0.  1.
         23    2    1    2    0    0  0.17660353226E+02  0.43121340112E+02  0.18441811352E+03  0.22761093662E+03  0.12500143929E+03 0.  0.
         23    2    1    2    0    0 -0.17660353226E+02 -0.43121340112E+02  0.23486183522E+03  0.25496561896E+03  0.87613053612E+02 0.  0.
          5    1    3    3  502    0 -0.53771622119E+01  0.34304176880E+02 -0.59952993155E+01  0.35548896449E+02  0.47000000000E+01 0.  1.
         -5    1    3    3    0  502  0.23037515438E+02  0.88171632324E+01  0.19041341284E+03  0.19206204017E+03  0.47000000000E+01 0.  1.
        -11    1    4    4    0    0  0.18167926947E+02 -0.33938315395E+02  0.20153757711E+03  0.20518108541E+03  0.00000000000E+00 0. -1.
         11    1    4    4    0    0 -0.35828280173E+02 -0.91830247172E+01  0.33324258106E+02  0.49784533556E+02  0.00000000000E+00 0.  1.
<mgrwt>
<rscale>  0 0.12389175E+03</rscale>
<asrwt>0</asrwt>
<pdfrwt beam="1">  1        1 0.69373573E-01 0.13340426E+03</pdfrwt>
<pdfrwt beam="2">  1       -1 0.48689701E-02 0.13340426E+03</pdfrwt>
<totfact> 0.90279599E+03</totfact>
</mgrwt>
</event>
<event>
 8    1  0.8504141E-006  0.1404345E+03  0.7546771E-02  0.1224291E+00
         -1   -1    0    0    0  501 -0.00000000000E+00  0.00000000000E+00  0.12197968278E+03  0.12197968278E+03  0.00000000000E+00 0.  1.
          1   -1    0    0  501    0  0.00000000000E+00 -0.00000000000E+00 -0.13766693180E+03  0.13766693180E+03  0.00000000000E+00 0. -1.
         23    2    1    2    0    0  0.55979493480E+02  0.31041119067E+02  0.24213370981E+02  0.14250662118E+03  0.12499837993E+03 0.  0.
         23    2    1    2    0    0 -0.55979493480E+02 -0.31041119067E+02 -0.39900619997E+02  0.11713999340E+03  0.89624013604E+02 0.  0.
          5    1    3    3  502    0  0.42470429553E+02 -0.38826620903E+02 -0.16938548107E+02  0.60168499143E+02  0.47000000000E+01 0. -1.
         -5    1    3    3    0  502  0.13509063927E+02  0.69867739969E+02  0.41151919089E+02  0.82338122041E+02  0.47000000000E+01 0. -1.
        -11    1    4    4    0    0  0.15172807032E+02 -0.23329516900E+02  0.10349648255E+02  0.29691676460E+02  0.00000000000E+00 0.  1.
         11    1    4    4    0    0 -0.71152300513E+02 -0.77116021664E+01 -0.50250268252E+02  0.87448316940E+02  0.00000000000E+00 0. -1.
<mgrwt>
<rscale>  0 0.13215595E+03</rscale>
<asrwt>0</asrwt>
<pdfrwt beam="2">  1        1 0.21179528E-01 0.14043450E+03</pdfrwt>
<pdfrwt beam="1">  1       -1 0.18766105E-01 0.14043450E+03</pdfrwt>
<totfact> 0.50754424E+03</totfact>
</mgrwt>
</event>
<event>
 8    1  0.8504141E-006  0.1359350E+03  0.7546771E-02  0.1230875E+00
         -2   -1    0    0    0  501 -0.00000000000E+00  0.00000000000E+00  0.26328647435E+03  0.26328647435E+03  0.00000000000E+00 0.  1.
          2   -1    0    0  501    0  0.00000000000E+00 -0.00000000000E+00 -0.57016415842E+02  0.57016415842E+02  0.00000000000E+00 0. -1.
         23    2    1    2    0    0 -0.47746484687E+02  0.23947782854E+02  0.14106146000E+03  0.19589961193E+03  0.12500039742E+03 0.  0.
         23    2    1    2    0    0  0.47746484687E+02 -0.23947782854E+02  0.65208598509E+02  0.12440327826E+03  0.91492028173E+02 0.  0.
          5    1    3    3  502    0 -0.78677410393E+02 -0.14586571608E+02  0.57281033364E+02  0.98519590746E+02  0.47000000000E+01 0. -1.
         -5    1    3    3    0  502  0.30930925706E+02  0.38534354462E+02  0.83780426634E+02  0.97380021184E+02  0.47000000000E+01 0. -1.
        -11    1    4    4    0    0 -0.80135971975E+01 -0.23506875095E+02  0.63976478720E+02  0.68627842355E+02  0.00000000000E+00 0.  1.
         11    1    4    4    0    0  0.55760081885E+02 -0.44090775865E+00  0.12321197882E+01  0.55775435907E+02  0.00000000000E+00 0. -1.
<mgrwt>
<rscale>  0 0.12772237E+03</rscale>
<asrwt>0</asrwt>
<pdfrwt beam="2">  1        2 0.87717564E-02 0.13593499E+03</pdfrwt>
<pdfrwt beam="1">  1       -2 0.40505611E-01 0.13593499E+03</pdfrwt>
<totfact> 0.41926436E+03</totfact>
</mgrwt>
</event>
<event>
 8    1  0.8504141E-006  0.1524368E+03  0.7546771E-02  0.1207555E+00
         -1   -1    0    0    0  501 -0.00000000000E+00  0.00000000000E+00  0.12797144064E+03  0.12797144064E+03  0.00000000000E+00 0.  1.
          1   -1    0    0  501    0  0.00000000000E+00 -0.00000000000E+00 -0.15282662294E+03  0.15282662294E+03  0.00000000000E+00 0. -1.
         23    2    1    2    0    0 -0.85721187648E+02 -0.16206729014E+02  0.11445633274E+02  0.15286587177E+03  0.12500476853E+03 0.  0.
         23    2    1    2    0    0  0.85721187648E+02  0.16206729014E+02 -0.36300815573E+02  0.12793219181E+03  0.86244515258E+02 0.  0.
          5    1    3    3  502    0 -0.20897902336E+02  0.44736634679E+02 -0.26255595739E+02  0.56120719098E+02  0.47000000000E+01 0.  1.
         -5    1    3    3    0  502 -0.64823285312E+02 -0.60943363693E+02  0.37701229013E+02  0.96745152674E+02  0.47000000000E+01 0.  1.
        -11    1    4    4    0    0  0.47918427878E+02 -0.33728050260E+02 -0.27346544471E+02  0.64665219394E+02  0.00000000000E+00 0. -1.
         11    1    4    4    0    0  0.37802759770E+02  0.49934779274E+02 -0.89542711014E+01  0.63266972413E+02  0.00000000000E+00 0.  1.
<mgrwt>
<rscale>  0 0.14437946E+03</rscale>
<asrwt>0</asrwt>
<pdfrwt beam="2">  1        1 0.23511788E-01 0.15243678E+03</pdfrwt>
<pdfrwt beam="1">  1       -1 0.19687914E-01 0.15243678E+03</pdfrwt>
<totfact> 0.41375138E+03</totfact>
</mgrwt>
</event>
<event>
 8    1  0.8504141E-006  0.1305201E+03  0.7546771E-02  0.1239827E+00
          1   -1    0    0  501    0  0.00000000000E+00  0.00000000000E+00  0.78916990698E+03  0.78916990698E+03  0.00000000000E+00 0.  1.
         -1   -1    0    0    0  501 -0.00000000000E+00 -0.00000000000E+00 -0.17005714965E+02  0.17005714965E+02  0.00000000000E+00 0. -1.
         23    2    1    2    0    0 -0.20963816005E+02  0.31109233261E+02  0.39143324864E+03  0.41262026032E+03  0.12501289978E+03 0.  0.
         23    2    1    2    0    0  0.20963816005E+02 -0.31109233261E+02  0.38073094338E+03  0.39355536162E+03  0.92317416791E+02 0.  0.
          5    1    3    3  502    0  0.46880849646E+02  0.92989239466E+01  0.24543908163E+03  0.25009341623E+03  0.47000000000E+01 0. -1.
         -5    1    3    3    0  502 -0.67844665651E+02  0.21810309314E+02  0.14599416701E+03  0.16252684409E+03  0.47000000000E+01 0. -1.
        -11    1    4    4    0    0  0.49244013823E+02  0.52772910521E+01  0.25209093891E+03  0.25690983667E+03  0.00000000000E+00 0.  1.
         11    1    4    4    0    0 -0.28280197818E+02 -0.36386524313E+02  0.12864000446E+03  0.13664552495E+03  0.00000000000E+00 0. -1.
<mgrwt>
<rscale>  0 0.12200437E+03</rscale>
<asrwt>0</asrwt>
<pdfrwt beam="1">  1        1 0.12141073E+00 0.13052008E+03</pdfrwt>
<pdfrwt beam="2">  1       -1 0.26162644E-02 0.13052008E+03</pdfrwt>
<totfact> 0.10400827E+04</totfact>
</mgrwt>
</event>
<event>
 8    1  0.8504141E-006  0.1829798E+03  0.7546771E-02  0.1169771E+00
         -1   -1    0    0    0  501 -0.00000000000E+00  0.00000000000E+00  0.68363115313E+02  0.68363115313E+02  0.00000000000E+00 0.  1.
          1   -1    0    0  501    0  0.00000000000E+00 -0.00000000000E+00 -0.74297787368E+03  0.74297787368E+03  0.00000000000E+00 0. -1.
         23    2    1    2    0    0  0.79206277077E+02  0.10761484129E+03 -0.89426715725E+02  0.20366334680E+03  0.12500813154E+03 0.  0.
         23    2    1    2    0    0 -0.79206277077E+02 -0.10761484129E+03 -0.58518804265E+03  0.60767764219E+03  0.94723192353E+02 0.  0.
          5    1    3    3  502    0  0.10074271651E+03  0.10680235169E+03 -0.44291606921E+02  0.15342644394E+03  0.47000000000E+01 0. -1.
         -5    1    3    3    0  502 -0.21536439433E+02  0.81248960482E+00 -0.45135108804E+02  0.50236902866E+02  0.47000000000E+01 0. -1.
        -11    1    4    4    0    0 -0.55036836305E+02 -0.10554547839E+02 -0.12889863658E+03  0.14055358531E+03  0.00000000000E+00 0.  1.
         11    1    4    4    0    0 -0.24169440772E+02 -0.97060293454E+02 -0.45628940607E+03  0.46712405689E+03  0.00000000000E+00 0. -1.
<mgrwt>
<rscale>  0 0.17798118E+03</rscale>
<asrwt>0</asrwt>
<pdfrwt beam="2">  1        1 0.11430428E+00 0.18297984E+03</pdfrwt>
<pdfrwt beam="1">  1       -1 0.10517403E-01 0.18297984E+03</pdfrwt>
<totfact> 0.14495348E+03</totfact>
</mgrwt>
</event>
<event>
 7    1  0.8504141E-006  0.2231464E+03  0.7546771E-02  0.1143865E+00
         -2   -1    0    0    0  501 -0.00000000000E+00  0.00000000000E+00  0.31658883973E+02  0.31658883973E+02  0.00000000000E+00 0.  1.
          2   -1    0    0  501    0  0.00000000000E+00 -0.00000000000E+00 -0.12040957035E+04  0.12040957035E+04  0.00000000000E+00 0. -1.
         23    2    1    2    0    0  0.22100435298E+02  0.13692526225E+03 -0.44309441762E+03  0.47303926344E+03  0.90534662674E+02 0.  0.
          5    1    1    2  502    0 -0.54904183361E+02 -0.31199354665E+01 -0.42550872356E+03  0.42907338203E+03  0.47000000000E+01 0. -1.
         -5    1    1    2    0  502  0.32803748063E+02 -0.13380532678E+03 -0.30383367836E+03  0.33364194201E+03  0.47000000000E+01 0.  1.
        -11    1    3    3    0    0 -0.24434701293E+02  0.72832171223E+02 -0.13918462485E+03  0.15897779589E+03  0.00000000000E+00 0.  1.
         11    1    3    3    0    0  0.46535136590E+02  0.64093091026E+02 -0.30390979277E+03  0.31406146755E+03  0.00000000000E+00 0. -1.
<mgrwt>
<rscale>  0 0.20712264E+03</rscale>
<asrwt>0</asrwt>
<pdfrwt beam="2">  1        2 0.18524549E+00 0.22314642E+03</pdfrwt>
<pdfrwt beam="1">  1       -2 0.48705976E-02 0.22314642E+03</pdfrwt>
<totfact> 0.40320341E+03</totfact>
</mgrwt>
</event>
<event>
 8    1  0.8504141E-006  0.1428989E+03  0.7546771E-02  0.1220058E+00
          3   -1    0    0  501    0  0.00000000000E+00  0.00000000000E+00  0.57511063180E+02  0.57511063180E+02  0.00000000000E+00 0. -1.
         -3   -1    0    0    0  501 -0.00000000000E+00 -0.00000000000E+00 -0.36245474236E+03  0.36245474236E+03  0.00000000000E+00 0.  1.
         23    2    1    2    0    0  0.22532971939E+02  0.65478342711E+02 -0.26105705352E+03  0.29760861520E+03  0.12499981784E+03 0.  0.
         23    2    1    2    0    0 -0.22532971939E+02 -0.65478342711E+02 -0.43886625661E+02  0.12235719034E+03  0.90830049694E+02 0.  0.
          5    1    3    3  502    0  0.48251925813E+02  0.69296638152E+02 -0.86173618428E+02  0.12074044441E+03  0.47000000000E+01 0. -1.
         -5    1    3    3    0  502 -0.25718953874E+02 -0.38182954419E+01 -0.17488343509E+03  0.17686817079E+03  0.47000000000E+01 0. -1.
        -11    1    4    4    0    0  0.82929454971E+01  0.13994313647E+02  0.12187085030E+02  0.20325816121E+02  0.00000000000E+00 0. -1.
         11    1    4    4    0    0 -0.30825917436E+02 -0.79472656358E+02 -0.56073710691E+02  0.10203137422E+03  0.00000000000E+00 0.  1.
<mgrwt>
<rscale>  0 0.13511490E+03</rscale>
<asrwt>0</asrwt>
<pdfrwt beam="1">  1        3 0.88478561E-02 0.14289892E+03</pdfrwt>
<pdfrwt beam="2">  1       -3 0.55762267E-01 0.14289892E+03</pdfrwt>
<totfact> 0.67463712E+02</totfact>
</mgrwt>
</event>
<event>
 8    1  0.8504141E-006  0.2774167E+03  0.7546771E-02  0.1099204E+00
         -2   -1    0    0    0  501 -0.00000000000E+00  0.00000000000E+00  0.11220984028E+03  0.11220984028E+03  0.00000000000E+00 0. -1.
          2   -1    0    0  501    0  0.00000000000E+00 -0.00000000000E+00 -0.78752552315E+03  0.78752552315E+03  0.00000000000E+00 0.  1.
         23    2    1    2    0    0 -0.21997589213E+03  0.11374424206E+03 -0.15726569268E+03  0.31889269247E+03  0.12503161799E+03 0.  0.
         23    2    1    2    0    0  0.21997589213E+03 -0.11374424206E+03 -0.51804999019E+03  0.58084267095E+03  0.87608620258E+02 0.  0.
          5    1    3    3  502    0 -0.18343419019E+03  0.97094573823E+02 -0.17799428575E+03  0.27345843223E+03  0.47000000000E+01 0.  1.
         -5    1    3    3    0  502 -0.36541701942E+02  0.16649668233E+02  0.20728593072E+02  0.45434260243E+02  0.47000000000E+01 0.  1.
        -11    1    4    4    0    0  0.12786152829E+03 -0.99137575076E+02 -0.25757453228E+03  0.30417341910E+03  0.00000000000E+00 0. -1.
         11    1    4    4    0    0  0.92114363840E+02 -0.14606666980E+02 -0.26047545791E+03  0.27666925185E+03  0.00000000000E+00 0.  1.
<mgrwt>
<rscale>  0 0.27365762E+03</rscale>
<asrwt>0</asrwt>
<pdfrwt beam="2">  1        2 0.12115777E+00 0.27741675E+03</pdfrwt>
<pdfrwt beam="1">  1       -2 0.17263052E-01 0.27741675E+03</pdfrwt>
<totfact> 0.98043538E+02</totfact>
</mgrwt>
</event>
<event>
 8    1  0.8504141E-006  0.1411744E+03  0.7546771E-02  0.1222706E+00
          2   -1    0    0  501    0  0.00000000000E+00  0.00000000000E+00  0.19973430378E+03  0.19973430378E+03  0.00000000000E+00 0. -1.
         -2   -1    0    0    0  501 -0.00000000000E+00 -0.00000000000E+00 -0.49672278740E+03  0.49672278740E+03  0.00000000000E+00 0.  1.
         23    2    1    2    0    0 -0.33902190800E+02 -0.56190928987E+02 -0.46976675383E+03  0.49052116972E+03  0.12499374342E+03 0.  0.
         23    2    1    2    0    0  0.33902190800E+02  0.56190928987E+02  0.17277827022E+03  0.20593592146E+03  0.90832230228E+02 0.  0.
          5    1    3    3  502    0 -0.75050428354E+00  0.37777390019E+02 -0.86967621471E+02  0.94937619717E+02  0.47000000000E+01 0. -1.
         -5    1    3    3    0  502 -0.33151686517E+02 -0.93968319005E+02 -0.38279913236E+03  0.39558355000E+03  0.47000000000E+01 0. -1.
        -11    1    4    4    0    0  0.10426072523E+02  0.60794140248E+02  0.17118632153E+03  0.18195985039E+03  0.00000000000E+00 0. -1.
         11    1    4    4    0    0  0.23476118278E+02 -0.46032112617E+01  0.15919486883E+01  0.23976071069E+02  0.00000000000E+00 0.  1.
<mgrwt>
<rscale>  0 0.13325359E+03</rscale>
<asrwt>0</asrwt>
<pdfrwt beam="1">  1        2 0.30728355E-01 0.14117441E+03</pdfrwt>
<pdfrwt beam="2">  1       -2 0.76418889E-01 0.14117441E+03</pdfrwt>
<totfact> 0.27104951E+02</totfact>
</mgrwt>
</event>
<event>
 8    1  0.8504141E-006  0.1316796E+03  0.7546771E-02  0.1237152E+00
          2   -1    0    0  501    0  0.00000000000E+00  0.00000000000E+00  0.73087376811E+02  0.73087376811E+02  0.00000000000E+00 0. -1.
         -2   -1    0    0    0  501 -0.00000000000E+00 -0.00000000000E+00 -0.39023198893E+03  0.39023198893E+03  0.00000000000E+00 0.  1.
         23    2    1    2    0    0 -0.84680235697E+01  0.40541400451E+02 -0.33441346609E+03  0.35940491234E+03  0.12499684853E+03 0.  0.
         23    2    1    2    0    0  0.84680235697E+01 -0.40541400451E+02  0.17268853974E+02  0.10391445339E+03  0.93726665002E+02 0.  0.
          5    1    3    3  502    0  0.56629353909E+02  0.79226550559E+01 -0.12220204220E+03  0.13500030113E+03  0.47000000000E+01 0. -1.
         -5    1    3    3    0  502 -0.65097377479E+02  0.32618745396E+02 -0.21221142389E+03  0.22440461121E+03  0.47000000000E+01 0. -1.
        -11    1    4    4    0    0 -0.42687429527E+02 -0.15829286424E+02  0.10285121144E+02  0.46675118267E+02  0.00000000000E+00 0. -1.
         11    1    4    4    0    0  0.51155453097E+02 -0.24712114027E+02  0.69837328299E+01  0.57239335124E+02  0.00000000000E+00 0.  1.
<mgrwt>
<rscale>  0 0.12367662E+03</rscale>
<asrwt>0</asrwt>
<pdfrwt beam="1">  1        2 0.11244212E-01 0.13167963E+03</pdfrwt>
<pdfrwt beam="2">  1       -2 0.60035691E-01 0.13167963E+03</pdfrwt>
<totfact> 0.14199660E+03</totfact>
</mgrwt>
</event>
<event>
 8    1  0.8504141E-006  0.1795381E+03  0.7546771E-02  0.1173929E+00
         -4   -1    0    0    0  501 -0.00000000000E+00  0.00000000000E+00  0.68624950036E+03  0.68624950036E+03  0.00000000000E+00 0.  1.
          4   -1    0    0  501    0  0.00000000000E+00 -0.00000000000E+00 -0.44633361244E+02  0.44633361244E+02  0.00000000000E+00 0. -1.
         23    2    1    2    0    0 -0.73911682140E+02 -0.10556909015E+03  0.43772872527E+03  0.47311769407E+03  0.12500458378E+03 0.  0.
         23    2    1    2    0    0  0.73911682140E+02  0.10556909015E+03  0.20388741384E+03  0.25776516753E+03  0.90912235245E+02 0.  0.
          5    1    3    3  502    0  0.12338524512E+02  0.57361251951E+01  0.12341576666E+01  0.14448372383E+02  0.47000000000E+01 0.  1.
         -5    1    3    3    0  502 -0.86250206652E+02 -0.11130521534E+03  0.43649456760E+03  0.45866932169E+03  0.47000000000E+01 0.  1.
        -11    1    4    4    0    0 -0.20598643080E+02  0.31284126872E+02  0.51071636404E+02  0.63334925088E+02  0.00000000000E+00 0.  1.
         11    1    4    4    0    0  0.94510325221E+02  0.74284963276E+02  0.15281577744E+03  0.19443024244E+03  0.00000000000E+00 0. -1.
<mgrwt>
<rscale>  0 0.17381329E+03</rscale>
<asrwt>0</asrwt>
<pdfrwt beam="2">  1        4 0.68666715E-02 0.17953806E+03</pdfrwt>
<pdfrwt beam="1">  1       -4 0.10557684E+00 0.17953806E+03</pdfrwt>
<totfact> 0.18749599E+02</totfact>
</mgrwt>
</event>
<event>
 8    1  0.8504141E-006  0.1291778E+03  0.7546771E-02  0.1235624E+00
          2   -1    0    0  501    0  0.00000000000E+00  0.00000000000E+00  0.17787914562E+03  0.17787914562E+03  0.00000000000E+00 0. -1.
         -2   -1    0    0    0  501 -0.00000000000E+00 -0.00000000000E+00 -0.11056365830E+03  0.11056365830E+03  0.00000000000E+00 0.  1.
         23    2    1    2    0    0  0.34221060594E+02  0.56241575223E+02 -0.38069811912E+02  0.13467075328E+03  0.11114272553E+03 0.  0.
         23    2    1    2    0    0 -0.34221060594E+02 -0.56241575223E+02  0.10538529923E+03  0.15377205063E+03  0.90584692363E+02 0.  0.
          5    1    3    3  502    0 -0.19145567466E+02  0.30443066695E+02  0.27973749633E+02  0.45803424894E+02  0.47000000000E+01 0. -1.
         -5    1    3    3    0  502  0.53366628060E+02  0.25798508528E+02 -0.66043561546E+02  0.88867328386E+02  0.47000000000E+01 0.  1.
        -11    1    4    4    0    0  0.27361358406E+02 -0.32159572249E+02  0.60790398282E+02  0.74015907374E+02  0.00000000000E+00 0.  1.
         11    1    4    4    0    0 -0.61582419000E+02 -0.24082002974E+02  0.44594900949E+02  0.79756143261E+02  0.00000000000E+00 0. -1.
<mgrwt>
<rscale>  0 0.12464565E+03</rscale>
<asrwt>0</asrwt>
<pdfrwt beam="1">  1        2 0.27366023E-01 0.12917779E+03</pdfrwt>
<pdfrwt beam="2">  1       -2 0.17009793E-01 0.12917779E+03</pdfrwt>
<totfact> 0.51267479E+03</totfact>
</mgrwt>
</event>
<event>
 8    1  0.8504141E-006  0.1266729E+03  0.7546771E-02  0.1250443E+00
         -2   -1    0    0    0  501 -0.00000000000E+00  0.00000000000E+00  0.62720123022E+02  0.62720123022E+02  0.00000000000E+00 0. -1.
          2   -1    0    0  501    0  0.00000000000E+00 -0.00000000000E+00 -0.20822972379E+03  0.20822972379E+03  0.00000000000E+00 0.  1.
         23    2    1    2    0    0 -0.71786302183E+01 -0.19234959767E+02 -0.38510827368E+02  0.13239750695E+03  0.12499799843E+03 0.  0.
         23    2    1    2    0    0  0.71786302183E+01  0.19234959767E+02 -0.10699877340E+03  0.13855233987E+03  0.85594958756E+02 0.  0.
          5    1    3    3  502    0 -0.12119593846E+02  0.40163175393E+02 -0.55976737032E+02  0.70110272439E+02  0.47000000000E+01 0. -1.
         -5    1    3    3    0  502  0.49409636275E+01 -0.59398135160E+02  0.17465909665E+02  0.62287234506E+02  0.47000000000E+01 0. -1.
        -11    1    4    4    0    0  0.45626239734E+01  0.50619964737E+02 -0.88420395456E+02  0.10198708105E+03  0.00000000000E+00 0.  1.
         11    1    4    4    0    0  0.26160062449E+01 -0.31385004971E+02 -0.18578377943E+02  0.36565258821E+02  0.00000000000E+00 0. -1.
<mgrwt>
<rscale>  0 0.11565423E+03</rscale>
<asrwt>0</asrwt>
<pdfrwt beam="2">  1        2 0.32035342E-01 0.12667287E+03</pdfrwt>
<pdfrwt beam="1">  1       -2 0.96492498E-02 0.12667287E+03</pdfrwt>
<totfact> 0.10731601E+04</totfact>
</mgrwt>
</event>
<event>
 8    1  0.8504141E-006  0.1277080E+03  0.7546771E-02  0.1244105E+00
          1   -1    0    0  501    0  0.00000000000E+00  0.00000000000E+00  0.65231935526E+03  0.65231935526E+03  0.00000000000E+00 0. -1.
         -1   -1    0    0    0  501 -0.00000000000E+00 -0.00000000000E+00 -0.19467686488E+02  0.19467686488E+02  0.00000000000E+00 0.  1.
         23    2    1    2    0    0 -0.23822846588E+02 -0.10852695192E+02  0.34778245119E+03  0.37048880436E+03  0.12499604707E+03 0.  0.
         23    2    1    2    0    0  0.23822846588E+02  0.10852695192E+02  0.28506921758E+03  0.30129823739E+03  0.93972655763E+02 0.  0.
          5    1    3    3  502    0  0.24258884682E+02 -0.13458768554E+02  0.30381118588E+03  0.30511138720E+03  0.47000000000E+01 0. -1.
         -5    1    3    3    0  502 -0.48081731270E+02  0.26060733624E+01  0.43971265319E+02  0.65377417157E+02  0.47000000000E+01 0. -1.
        -11    1    4    4    0    0 -0.18777490060E+02 -0.98927889926E+01  0.12479832959E+02  0.24621284242E+02  0.00000000000E+00 0.  1.
         11    1    4    4    0    0  0.42600336648E+02  0.20745484184E+02  0.27258938462E+03  0.27667695315E+03  0.00000000000E+00 0. -1.
<mgrwt>
<rscale>  0 0.11939090E+03</rscale>
<asrwt>0</asrwt>
<pdfrwt beam="1">  1        1 0.10035681E+00 0.12770795E+03</pdfrwt>
<pdfrwt beam="2">  1       -1 0.29950292E-02 0.12770795E+03</pdfrwt>
<totfact> 0.11229294E+04</totfact>
</mgrwt>
</event>
<event>
 8    1  0.8504141E-006  0.2006957E+03  0.7546771E-02  0.1153271E+00
          1   -1    0    0  501    0  0.00000000000E+00  0.00000000000E+00  0.22528626925E+03  0.22528626925E+03  0.00000000000E+00 0. -1.
         -1   -1    0    0    0  501 -0.00000000000E+00 -0.00000000000E+00 -0.29789251470E+03  0.29789251470E+03  0.00000000000E+00 0.  1.
         23    2    1    2    0    0  0.14510735287E+03 -0.59990390589E+02 -0.21344924901E+03  0.29298349761E+03  0.12499502850E+03 0.  0.
         23    2    1    2    0    0 -0.14510735287E+03  0.59990390589E+02  0.14084300356E+03  0.23019528634E+03  0.92185288303E+02 0.  0.
          5    1    3    3  502    0  0.16083832520E+03 -0.51587165550E+02 -0.21613252501E+03  0.27434569593E+03  0.47000000000E+01 0.  1.
         -5    1    3    3    0  502 -0.15730972333E+02 -0.84032250388E+01  0.26832760011E+01  0.18637801687E+02  0.47000000000E+01 0.  1.
        -11    1    4    4    0    0 -0.76838629878E+02  0.29040406176E+02  0.13095980001E+03  0.15458974562E+03  0.00000000000E+00 0. -1.
         11    1    4    4    0    0 -0.68268722993E+02  0.30949984413E+02  0.98832035481E+01  0.75605540714E+02  0.00000000000E+00 0.  1.
<mgrwt>
<rscale>  0 0.19587050E+03</rscale>
<asrwt>0</asrwt>
<pdfrwt beam="1">  1        1 0.34659426E-01 0.20069566E+03</pdfrwt>
<pdfrwt beam="2">  1       -1 0.45829617E-01 0.20069566E+03</pdfrwt>
<totfact> 0.61030173E+02</totfact>
</mgrwt>
</event>
<event>
 8    1  0.8504141E-006  0.1611415E+03  0.7546771E-02  0.1194835E+00
         -2   -1    0    0    0  501 -0.00000000000E+00  0.00000000000E+00  0.65467715235E+02  0.65467715235E+02  0.00000000000E+00 0.  1.
          2   -1    0    0  501    0  0.00000000000E+00 -0.00000000000E+00 -0.34065467367E+03  0.34065467367E+03  0.00000000000E+00 0. -1.
         23    2    1    2    0    0 -0.99839104571E+02 -0.19609337499E+02 -0.13473731019E+03  0.21004935050E+03  0.12495684842E+03 0.  0.
         23    2    1    2    0    0  0.99839104571E+02  0.19609337499E+02 -0.14044964824E+03  0.19607303841E+03  0.91466714065E+02 0.  0.
          5    1    3    3  502    0 -0.42610098518E+02  0.50793814124E+02 -0.79900745470E+02  0.10393195455E+03  0.47000000000E+01 0.  1.
         -5    1    3    3    0  502 -0.57229006053E+02 -0.70403151624E+02 -0.54836564724E+02  0.10611739595E+03  0.47000000000E+01 0.  1.
        -11    1    4    4    0    0  0.10531403576E+02  0.94839500471E+01  0.12350354344E+02  0.18798590963E+02  0.00000000000E+00 0.  1.
         11    1    4    4    0    0  0.89307700995E+02  0.10125387452E+02 -0.15280000258E+03  0.17727444745E+03  0.00000000000E+00 0. -1.
<mgrwt>
<rscale>  0 0.15468192E+03</rscale>
<asrwt>0</asrwt>
<pdfrwt beam="2">  1        2 0.52408412E-01 0.16114151E+03</pdfrwt>
<pdfrwt beam="1">  1       -2 0.10071956E-01 0.16114151E+03</pdfrwt>
<totfact> 0.60348433E+03</totfact>
</mgrwt>
</event>
<event>
 8    1  0.8504141E-006  0.1316086E+03  0.7546771E-02  0.1233976E+00
          1   -1    0    0  501    0  0.00000000000E+00  0.00000000000E+00  0.50889623261E+03  0.50889623261E+03  0.00000000000E+00 0. -1.
         -1   -1    0    0    0  501 -0.00000000000E+00 -0.00000000000E+00 -0.10095267773E+03  0.10095267773E+03  0.00000000000E+00 0.  1.
         23    2    1    2    0    0  0.45970373162E+02 -0.31696893207E+02 -0.48642585287E+02  0.14031012227E+03  0.11917575701E+03 0.  0.
         23    2    1    2    0    0 -0.45970373162E+02  0.31696893207E+02  0.45658614016E+03  0.46953878807E+03  0.94222088011E+02 0.  0.
          5    1    3    3  502    0  0.75609586276E+02  0.13776092441E+02 -0.25430408972E+02  0.81088753599E+02  0.47000000000E+01 0. -1.
         -5    1    3    3    0  502 -0.29639213113E+02 -0.45472985648E+02 -0.23212176315E+02  0.59221368669E+02  0.47000000000E+01 0.  1.
        -11    1    4    4    0    0  0.29053647271E+02  0.81763694065E+01  0.15206001146E+03  0.15502649619E+03  0.00000000000E+00 0.  1.
         11    1    4    4    0    0 -0.75024020433E+02  0.23520523801E+02  0.30452612871E+03  0.31451229189E+03  0.00000000000E+00 0. -1.
<mgrwt>
<rscale>  0 0.12570188E+03</rscale>
<asrwt>0</asrwt>
<pdfrwt beam="1">  1        1 0.78291727E-01 0.13160862E+03</pdfrwt>
<pdfrwt beam="2">  1       -1 0.15531181E-01 0.13160862E+03</pdfrwt>
<totfact> 0.13279471E+03</totfact>
</mgrwt>
</event>
<event>
 8    1  0.8504141E-006  0.1459029E+03  0.7546771E-02  0.1215483E+00
         -2   -1    0    0    0  501 -0.00000000000E+00  0.00000000000E+00  0.24016013292E+03  0.24016013292E+03  0.00000000000E+00 0.  1.
          2   -1    0    0  501    0  0.00000000000E+00 -0.00000000000E+00 -0.10465254050E+03  0.10465254050E+03  0.00000000000E+00 0. -1.
         23    2    1    2    0    0  0.71038447950E+02  0.24796612782E+02  0.16775271245E+03  0.22232547339E+03  0.12500524185E+03 0.  0.
         23    2    1    2    0    0 -0.71038447950E+02 -0.24796612782E+02 -0.32245120027E+02  0.12248720003E+03  0.91115494368E+02 0.  0.
          5    1    3    3  502    0  0.78824449583E+02  0.24431219454E+02  0.35830034850E+02  0.90089176561E+02  0.47000000000E+01 0.  1.
         -5    1    3    3    0  502 -0.77860016328E+01  0.36539332825E+00  0.13192267760E+03  0.13223629683E+03  0.47000000000E+01 0.  1.
        -11    1    4    4    0    0  0.32032606377E+01 -0.41425771578E+02 -0.58602433309E+01  0.41960670650E+02  0.00000000000E+00 0.  1.
         11    1    4    4    0    0 -0.74241708588E+02  0.16629158796E+02 -0.26384876696E+02  0.80526529383E+02  0.00000000000E+00 0. -1.
<mgrwt>
<rscale>  0 0.13841132E+03</rscale>
<asrwt>0</asrwt>
<pdfrwt beam="2">  1        2 0.16100391E-01 0.14590286E+03</pdfrwt>
<pdfrwt beam="1">  1       -2 0.36947713E-01 0.14590286E+03</pdfrwt>
<totfact> 0.24086772E+03</totfact>
</mgrwt>
</event>
<event>
 8    1  0.8504141E-006  0.1593017E+03  0.7546771E-02  0.1196026E+00
          3   -1    0    0  501    0  0.00000000000E+00  0.00000000000E+00  0.86165026730E+02  0.86165026730E+02  0.00000000000E+00 0. -1.
         -3   -1    0    0    0  501 -0.00000000000E+00 -0.00000000000E+00 -0.27428164619E+03  0.27428164619E+03  0.00000000000E+00 0.  1.
         23    2    1    2    0    0 -0.26793541667E+02 -0.95044316857E+02 -0.14628277740E+03  0.21627687664E+03  0.12500288142E+03 0.  0.
         23    2    1    2    0    0  0.26793541667E+02  0.95044316857E+02 -0.41833842061E+02  0.14416979628E+03  0.96351148284E+02 0.  0.
          5    1    3    3  502    0  0.28172630553E+02  0.10591005889E+02 -0.65694415572E+02  0.72413484624E+02  0.47000000000E+01 0. -1.
         -5    1    3    3    0  502 -0.54966172221E+02 -0.10563532275E+03 -0.80588361825E+02  0.14386339201E+03  0.47000000000E+01 0. -1.
        -11    1    4    4    0    0 -0.29769975838E+02  0.58149112089E+02 -0.40024162647E+02  0.76612690161E+02  0.00000000000E+00 0.  1.
         11    1    4    4    0    0  0.56563517505E+02  0.36895204768E+02 -0.18096794142E+01  0.67557106118E+02  0.00000000000E+00 0. -1.
<mgrwt>
<rscale>  0 0.15367706E+03</rscale>
<asrwt>0</asrwt>
<pdfrwt beam="1">  1        3 0.13256158E-01 0.15930172E+03</pdfrwt>
<pdfrwt beam="2">  1       -3 0.42197176E-01 0.15930172E+03</pdfrwt>
<totfact> 0.60832029E+02</totfact>
</mgrwt>
</event>
<event>
 8    1  0.8504141E-006  0.1365734E+03  0.7546771E-02  0.1224629E+00
          2   -1    0    0  501    0  0.00000000000E+00  0.00000000000E+00  0.34916246017E+03  0.34916246017E+03  0.00000000000E+00 0.  1.
         -2   -1    0    0    0  501 -0.00000000000E+00 -0.00000000000E+00 -0.47655003234E+02  0.47655003234E+02  0.00000000000E+00 0. -1.
         23    2    1    2    0    0 -0.55014230053E+02  0.47583292700E+00  0.13343536200E+03  0.19093793281E+03  0.12500202570E+03 0.  0.
         23    2    1    2    0    0  0.55014230053E+02 -0.47583292700E+00  0.16807209493E+03  0.20587953059E+03  0.10541043636E+03 0.  0.
          5    1    3    3  502    0 -0.29677447842E+02  0.58082668940E+02  0.10009746814E+03  0.11956563248E+03  0.47000000000E+01 0.  1.
         -5    1    3    3    0  502 -0.25336782212E+02 -0.57606836013E+02  0.33337893860E+02  0.71372300336E+02  0.47000000000E+01 0.  1.
        -11    1    4    4    0    0  0.39130098691E+02 -0.21860987048E+02  0.17306638940E+03  0.17877651557E+03  0.00000000000E+00 0.  1.
         11    1    4    4    0    0  0.15884131362E+02  0.21385154121E+02 -0.49942944686E+01  0.27103015019E+02  0.00000000000E+00 0. -1.
<mgrwt>
<rscale>  0 0.13192397E+03</rscale>
<asrwt>0</asrwt>
<pdfrwt beam="1">  1        2 0.53717300E-01 0.13657342E+03</pdfrwt>
<pdfrwt beam="2">  1       -2 0.73315392E-02 0.13657342E+03</pdfrwt>
<totfact> 0.95335281E+03</totfact>
</mgrwt>
</event>
<event>
 8    1  0.8504141E-006  0.1355184E+03  0.7546771E-02  0.1229940E+00
          1   -1    0    0  501    0  0.00000000000E+00  0.00000000000E+00  0.11457926864E+03  0.11457926864E+03  0.00000000000E+00 0. -1.
         -1   -1    0    0    0  501 -0.00000000000E+00 -0.00000000000E+00 -0.17142694512E+03  0.17142694512E+03  0.00000000000E+00 0.  1.
         23    2    1    2    0    0 -0.51544775286E+02 -0.91469969614E+01 -0.10036277457E+03  0.16863545876E+03  0.12499880006E+03 0.  0.
         23    2    1    2    0    0  0.51544775286E+02  0.91469969614E+01  0.43515098096E+02  0.11737075500E+03  0.95612755192E+02 0.  0.
          5    1    3    3  502    0 -0.13126551818E+01 -0.43658729301E+01  0.28984480715E+02  0.29714878973E+02  0.47000000000E+01 0.  1.
         -5    1    3    3    0  502 -0.50232120104E+02 -0.47811240312E+01 -0.12934725529E+03  0.13892057978E+03  0.47000000000E+01 0.  1.
        -11    1    4    4    0    0 -0.57258119711E+01 -0.34536807133E+02  0.24944828685E+02  0.42986282089E+02  0.00000000000E+00 0. -1.
         11    1    4    4    0    0  0.57270587257E+02  0.43683804095E+02  0.18570269411E+02  0.74384472916E+02  0.00000000000E+00 0.  1.
<mgrwt>
<rscale>  0 0.12833980E+03</rscale>
<asrwt>0</asrwt>
<pdfrwt beam="1">  1        1 0.17627580E-01 0.13551838E+03</pdfrwt>
<pdfrwt beam="2">  1       -1 0.26373376E-01 0.13551838E+03</pdfrwt>
<totfact> 0.36830995E+03</totfact>
</mgrwt>
</event>
<event>
 8    1  0.8504141E-006  0.1243959E+03  0.7546771E-02  0.1249251E+00
         -1   -1    0    0    0  501 -0.00000000000E+00  0.00000000000E+00  0.80177098021E+02  0.80177098021E+02  0.00000000000E+00 0.  1.
          1   -1    0    0  501    0  0.00000000000E+00 -0.00000000000E+00 -0.20088315222E+03  0.20088315222E+03  0.00000000000E+00 0. -1.
         23    2    1    2    0    0  0.24676042865E+02 -0.25020476342E+02  0.36580446401E+01  0.12444968155E+03  0.11932900159E+03 0.  0.
         23    2    1    2    0    0 -0.24676042865E+02  0.25020476342E+02 -0.12436409884E+03  0.15661056869E+03  0.88461911672E+02 0.  0.
          5    1    3    3  502    0  0.12390466877E+02  0.48201995073E+02  0.22762580185E+01  0.50042255635E+02  0.47000000000E+01 0.  1.
         -5    1    3    3    0  502  0.12285575988E+02 -0.73222471415E+02  0.13817866216E+01  0.74407425918E+02  0.47000000000E+01 0. -1.
        -11    1    4    4    0    0 -0.55735893411E+01 -0.31961455238E+02 -0.62154995165E+02  0.70113072555E+02  0.00000000000E+00 0. -1.
         11    1    4    4    0    0 -0.19102453524E+02  0.56981931580E+02 -0.62209103672E+02  0.86497496131E+02  0.00000000000E+00 0.  1.
<mgrwt>
<rscale>  0 0.11634514E+03</rscale>
<asrwt>0</asrwt>
<pdfrwt beam="2">  1        1 0.30905100E-01 0.12439591E+03</pdfrwt>
<pdfrwt beam="1">  1       -1 0.12334938E-01 0.12439591E+03</pdfrwt>
<totfact> 0.60572966E+03</totfact>
</mgrwt>
</event>
<event>
 8    1  0.8504141E-006  0.1271052E+03  0.7546771E-02  0.1247146E+00
          2   -1    0    0  501    0  0.00000000000E+00  0.00000000000E+00  0.50037102818E+02  0.50037102818E+02  0.00000000000E+00 0. -1.
         -2   -1    0    0    0  501 -0.00000000000E+00 -0.00000000000E+00 -0.31398272832E+03  0.31398272832E+03  0.00000000000E+00 0.  1.
         23    2    1    2    0    0  0.80885462316E+01  0.21507095475E+02 -0.23392395709E+03  0.26622577194E+03  0.12501105635E+03 0.  0.
         23    2    1    2    0    0 -0.80885462316E+01 -0.21507095475E+02 -0.30021668408E+02  0.97794059191E+02  0.90190895899E+02 0.  0.
          5    1    3    3  502    0  0.28749485036E+02 -0.46813913732E+02 -0.91001072700E+02  0.10640188270E+03  0.47000000000E+01 0. -1.
         -5    1    3    3    0  502 -0.20660938805E+02  0.68321009208E+02 -0.14292288439E+03  0.15982388925E+03  0.47000000000E+01 0. -1.
        -11    1    4    4    0    0 -0.19497922510E+02  0.32483456473E+02 -0.12610236353E+02  0.39929462649E+02  0.00000000000E+00 0. -1.
         11    1    4    4    0    0  0.11409376278E+02 -0.53990551948E+02 -0.17411432055E+02  0.57864596541E+02  0.00000000000E+00 0.  1.
<mgrwt>
<rscale>  0 0.11757832E+03</rscale>
<asrwt>0</asrwt>
<pdfrwt beam="1">  1        2 0.76980159E-02 0.12710525E+03</pdfrwt>
<pdfrwt beam="2">  1       -2 0.48305035E-01 0.12710525E+03</pdfrwt>
<totfact> 0.34989458E+03</totfact>
</mgrwt>
</event>
<event>
 8    1  0.8504141E-006  0.1443433E+03  0.7546771E-02  0.1217950E+00
         -1   -1    0    0    0  501 -0.00000000000E+00  0.00000000000E+00  0.16095532893E+03  0.16095532893E+03  0.00000000000E+00 0.  1.
          1   -1    0    0  501    0  0.00000000000E+00 -0.00000000000E+00 -0.10521405611E+03  0.10521405611E+03  0.00000000000E+00 0. -1.
         23    2    1    2    0    0 -0.39826677713E+02  0.60182701661E+02  0.34208410163E+02  0.14834149663E+03  0.12500744962E+03 0.  0.
         23    2    1    2    0    0  0.39826677713E+02 -0.60182701661E+02  0.21532862656E+02  0.11782788841E+03  0.90618018502E+02 0.  0.
          5    1    3    3  502    0 -0.17108538405E+02 -0.17381632673E+02  0.58716551911E+02  0.63753797605E+02  0.47000000000E+01 0. -1.
         -5    1    3    3    0  502 -0.22718139308E+02  0.77564334334E+02 -0.24508141748E+02  0.84587699024E+02  0.47000000000E+01 0. -1.
        -11    1    4    4    0    0  0.28527568821E+02 -0.68370529305E+02  0.47742964080E+02  0.88134794942E+02  0.00000000000E+00 0.  1.
         11    1    4    4    0    0  0.11299108892E+02  0.81878276441E+01 -0.26210101424E+02  0.29693093472E+02  0.00000000000E+00 0. -1.
<mgrwt>
<rscale>  0 0.13662038E+03</rscale>
<asrwt>0</asrwt>
<pdfrwt beam="2">  1        1 0.16186778E-01 0.14434329E+03</pdfrwt>
<pdfrwt beam="1">  1       -1 0.24762358E-01 0.14434329E+03</pdfrwt>
<totfact> 0.45761731E+03</totfact>
</mgrwt>
</event>
<event>
 8    1  0.8504141E-006  0.1648888E+03  0.7546771E-02  0.1191623E+00
          2   -1    0    0  501    0  0.00000000000E+00  0.00000000000E+00  0.15046126284E+03  0.15046126284E+03  0.00000000000E+00 0.  1.
         -2   -1    0    0    0  501 -0.00000000000E+00 -0.00000000000E+00 -0.15299668242E+03  0.15299668242E+03  0.00000000000E+00 0. -1.
         23    2    1    2    0    0  0.22186164858E+02 -0.10521569219E+03 -0.16500758309E+02  0.16571240587E+03  0.12500303452E+03 0.  0.
         23    2    1    2    0    0 -0.22186164858E+02  0.10521569219E+03  0.13965338727E+02  0.13774553939E+03  0.84948426375E+02 0.  0.
          5    1    3    3  502    0  0.28282249221E+02 -0.12343435374E+03  0.15939157150E+02  0.12771872233E+03  0.47000000000E+01 0. -1.
         -5    1    3    3    0  502 -0.60960843633E+01  0.18218661553E+02 -0.32439915459E+02  0.37993683532E+02  0.47000000000E+01 0. -1.
        -11    1    4    4    0    0 -0.31372981015E+02  0.49006846083E+00  0.83452025508E+01  0.32467622495E+02  0.00000000000E+00 0.  1.
         11    1    4    4    0    0  0.91868161571E+01  0.10472562372E+03  0.56201361760E+01  0.10527791690E+03  0.00000000000E+00 0. -1.
<mgrwt>
<rscale>  0 0.15743523E+03</rscale>
<asrwt>0</asrwt>
<pdfrwt beam="1">  1        2 0.23147887E-01 0.16488883E+03</pdfrwt>
<pdfrwt beam="2">  1       -2 0.23537951E-01 0.16488883E+03</pdfrwt>
<totfact> 0.36062837E+03</totfact>
</mgrwt>
</event>
<event>
 8    1  0.8504141E-006  0.1558554E+03  0.7546771E-02  0.1202506E+00
          2   -1    0    0  501    0  0.00000000000E+00  0.00000000000E+00  0.39552662970E+03  0.39552662970E+03  0.00000000000E+00 0.  1.
         -2   -1    0    0    0  501 -0.00000000000E+00 -0.00000000000E+00 -0.51188065364E+02  0.51188065364E+02  0.00000000000E+00 0. -1.
         23    2    1    2    0    0 -0.89586184047E+02 -0.25258573766E+02  0.20528041019E+03  0.25774201354E+03  0.12500887494E+03 0.  0.
         23    2    1    2    0    0  0.89586184047E+02  0.25258573766E+02  0.13905815414E+03  0.18897268152E+03  0.87805604650E+02 0.  0.
          5    1    3    3  502    0 -0.76322141051E+02  0.12586630896E+02  0.20301334849E+03  0.21730163865E+03  0.47000000000E+01 0.  1.
         -5    1    3    3    0  502 -0.13264042995E+02 -0.37845204662E+02  0.22670616952E+01  0.40440374890E+02  0.47000000000E+01 0.  1.
        -11    1    4    4    0    0  0.32619858366E+02  0.15683753879E+02 -0.22997737212E+01  0.36267399338E+02  0.00000000000E+00 0. -1.
         11    1    4    4    0    0  0.56966325681E+02  0.95748198863E+01  0.14135792787E+03  0.15270528219E+03  0.00000000000E+00 0.  1.
<mgrwt>
<rscale>  0 0.14835734E+03</rscale>
<asrwt>0</asrwt>
<pdfrwt beam="1">  1        2 0.60850249E-01 0.15585538E+03</pdfrwt>
<pdfrwt beam="2">  1       -2 0.78750872E-02 0.15585538E+03</pdfrwt>
<totfact> 0.75404257E+03</totfact>
</mgrwt>
</event>
<event>
 8    1  0.8504141E-006  0.1287562E+03  0.7546771E-02  0.1242774E+00
         -1   -1    0    0    0  501 -0.00000000000E+00  0.00000000000E+00  0.46371455733E+03  0.46371455733E+03  0.00000000000E+00 0.  1.
          1   -1    0    0  501    0  0.00000000000E+00 -0.00000000000E+00 -0.28357900988E+02  0.28357900988E+02  0.00000000000E+00 0. -1.
         23    2    1    2    0    0 -0.10563547832E+02  0.29047206322E+02  0.28475720785E+03  0.31251371521E+03  0.12499130382E+03 0.  0.
         23    2    1    2    0    0  0.10563547832E+02 -0.29047206322E+02  0.15059944849E+03  0.17955874311E+03  0.92767556849E+02 0.  0.
          5    1    3    3  502    0  0.28942940372E+02  0.46900898816E+02  0.25193200445E+03  0.25793257447E+03  0.47000000000E+01 0.  1.
         -5    1    3    3    0  502 -0.39506488204E+02 -0.17853692494E+02  0.32825203405E+02  0.54581140740E+02  0.47000000000E+01 0.  1.
        -11    1    4    4    0    0 -0.19185685702E+02 -0.18113763303E+02  0.14499016750E+03  0.14737146137E+03  0.00000000000E+00 0.  1.
         11    1    4    4    0    0  0.29749233534E+02 -0.10933443019E+02  0.56092809895E+01  0.32187281732E+02  0.00000000000E+00 0. -1.
<mgrwt>
<rscale>  0 0.12019595E+03</rscale>
<asrwt>0</asrwt>
<pdfrwt beam="2">  1        1 0.43627543E-02 0.12875618E+03</pdfrwt>
<pdfrwt beam="1">  1       -1 0.71340696E-01 0.12875618E+03</pdfrwt>
<totfact> 0.39695481E+03</totfact>
</mgrwt>
</event>
<event>
 8    1  0.8504141E-006  0.1354550E+03  0.7546771E-02  0.1231052E+00
         -3   -1    0    0    0  501 -0.00000000000E+00  0.00000000000E+00  0.63064426335E+02  0.63064426335E+02  0.00000000000E+00 0.  1.
          3   -1    0    0  501    0  0.00000000000E+00 -0.00000000000E+00 -0.23495283132E+03  0.23495283132E+03  0.00000000000E+00 0. -1.
         23    2    1    2    0    0 -0.22089567854E+02 -0.47280765663E+02 -0.80703866062E+02  0.15767423704E+03  0.12499852487E+03 0.  0.
         23    2    1    2    0    0  0.22089567854E+02  0.47280765663E+02 -0.91184538919E+02  0.14034302061E+03  0.93049038071E+02 0.  0.
          5    1    3    3  502    0 -0.29887039687E+02  0.29566362266E+02  0.45388365864E+01  0.42545222487E+02  0.47000000000E+01 0. -1.
         -5    1    3    3    0  502  0.77974718321E+01 -0.76847127929E+02 -0.85242702649E+02  0.11512901456E+03  0.47000000000E+01 0. -1.
        -11    1    4    4    0    0 -0.32686328654E+02  0.24003988511E+02 -0.14054308921E+02  0.42919822280E+02  0.00000000000E+00 0.  1.
         11    1    4    4    0    0  0.54775896509E+02  0.23276777152E+02 -0.77130229998E+02  0.97423198328E+02  0.00000000000E+00 0. -1.
<mgrwt>
<rscale>  0 0.12760608E+03</rscale>
<asrwt>0</asrwt>
<pdfrwt beam="2">  1        3 0.36146590E-01 0.13545498E+03</pdfrwt>
<pdfrwt beam="1">  1       -3 0.97022193E-02 0.13545498E+03</pdfrwt>
<totfact> 0.13473254E+03</totfact>
</mgrwt>
</event>
<event>
 8    1  0.8504141E-006  0.1296671E+03  0.7546771E-02  0.1240954E+00
         -4   -1    0    0    0  501 -0.00000000000E+00  0.00000000000E+00  0.49354421860E+03  0.49354421860E+03  0.00000000000E+00 0.  1.
          4   -1    0    0  501    0  0.00000000000E+00 -0.00000000000E+00 -0.27259897567E+02  0.27259897567E+02  0.00000000000E+00 0. -1.
         23    2    1    2    0    0 -0.22510409892E+02 -0.26128486703E+02  0.30453054423E+03  0.33098701927E+03  0.12499655271E+03 0.  0.
         23    2    1    2    0    0  0.22510409892E+02  0.26128486703E+02  0.16175377680E+03  0.18981709689E+03  0.93149501293E+02 0.  0.
          5    1    3    3  502    0 -0.22129318729E+02  0.27689356994E+02  0.25562898388E+03  0.25811755972E+03  0.47000000000E+01 0. -1.
         -5    1    3    3    0  502 -0.38109116349E+00 -0.53817843696E+02  0.48901560347E+02  0.72869459549E+02  0.47000000000E+01 0. -1.
        -11    1    4    4    0    0  0.25832247036E+02 -0.31053029446E+02  0.84375523859E+02  0.93545842511E+02  0.00000000000E+00 0.  1.
         11    1    4    4    0    0 -0.33218371444E+01  0.57181516149E+02  0.77378252946E+02  0.96271254380E+02  0.00000000000E+00 0. -1.
<mgrwt>
<rscale>  0 0.12130852E+03</rscale>
<asrwt>0</asrwt>
<pdfrwt beam="2">  1        4 0.41938307E-02 0.12966709E+03</pdfrwt>
<pdfrwt beam="1">  1       -4 0.75929874E-01 0.12966709E+03</pdfrwt>
<totfact> 0.82943611E+02</totfact>
</mgrwt>
</event>
<event>
 8    1  0.8504141E-006  0.1258930E+03  0.7546771E-02  0.1236162E+00
          1   -1    0    0  501    0  0.00000000000E+00  0.00000000000E+00  0.28041614431E+02  0.28041614431E+02  0.00000000000E+00 0. -1.
         -1   -1    0    0    0  501 -0.00000000000E+00 -0.00000000000E+00 -0.67572277130E+03  0.67572277130E+03  0.00000000000E+00 0.  1.
         23    2    1    2    0    0 -0.53614110207E+01 -0.13852796690E+02 -0.48947552436E+03  0.50540610976E+03  0.12501360778E+03 0.  0.
         23    2    1    2    0    0  0.53614110207E+01  0.13852796690E+02 -0.15820563251E+03  0.19835827597E+03  0.11872800337E+03 0.  0.
          5    1    3    3  502    0  0.40582586862E+02 -0.49084820881E+02 -0.31829268320E+03  0.32463608576E+03  0.47000000000E+01 0. -1.
         -5    1    3    3    0  502 -0.45943997883E+02  0.35232024191E+02 -0.17118284115E+03  0.18077002400E+03  0.47000000000E+01 0. -1.
        -11    1    4    4    0    0  0.91275572178E+01 -0.34069467684E+02 -0.24527244911E+01  0.35356142132E+02  0.00000000000E+00 0. -1.
         11    1    4    4    0    0 -0.37661461971E+01  0.47922264374E+02 -0.15575290802E+03  0.16300213384E+03  0.00000000000E+00 0.  1.
<mgrwt>
<rscale>  0 0.12430329E+03</rscale>
<asrwt>0</asrwt>
<pdfrwt beam="1">  1        1 0.43140944E-02 0.12589300E+03</pdfrwt>
<pdfrwt beam="2">  1       -1 0.10395735E+00 0.12589300E+03</pdfrwt>
<totfact> 0.18302120E+03</totfact>
</mgrwt>
</event>
<event>
 8    1  0.8504141E-006  0.1493735E+03  0.7546771E-02  0.1210460E+00
         -1   -1    0    0    0  501 -0.00000000000E+00  0.00000000000E+00  0.26594979667E+03  0.26594979667E+03  0.00000000000E+00 0.  1.
          1   -1    0    0  501    0  0.00000000000E+00 -0.00000000000E+00 -0.96005998935E+02  0.96005998935E+02  0.00000000000E+00 0. -1.
         23    2    1    2    0    0 -0.81425672137E+02  0.79688865680E+01  0.18581532620E+03  0.23841094746E+03  0.12497520227E+03 0.  0.
         23    2    1    2    0    0  0.81425672137E+02 -0.79688865680E+01 -0.15871528469E+02  0.12354484814E+03  0.91201868677E+02 0.  0.
          5    1    3    3  502    0 -0.68082108574E+02 -0.52407312051E+02  0.12331166637E+03  0.15036474629E+03  0.47000000000E+01 0.  1.
         -5    1    3    3    0  502 -0.13343563563E+02  0.60376198619E+02  0.62503659835E+02  0.88046201173E+02  0.47000000000E+01 0.  1.
        -11    1    4    4    0    0  0.93362674938E+02  0.15182272848E+02 -0.21253031141E+02  0.96947314625E+02  0.00000000000E+00 0. -1.
         11    1    4    4    0    0 -0.11937002800E+02 -0.23151159416E+02  0.53815026725E+01  0.26597533516E+02  0.00000000000E+00 0.  1.
<mgrwt>
<rscale>  0 0.14215362E+03</rscale>
<asrwt>0</asrwt>
<pdfrwt beam="2">  1        1 0.14770154E-01 0.14937351E+03</pdfrwt>
<pdfrwt beam="1">  1       -1 0.40915353E-01 0.14937351E+03</pdfrwt>
<totfact> 0.21992771E+03</totfact>
</mgrwt>
</event>
<event>
 8    1  0.8504141E-006  0.1267484E+03  0.7546771E-02  0.1245868E+00
         -2   -1    0    0    0  501 -0.00000000000E+00  0.00000000000E+00  0.14778713489E+03  0.14778713489E+03  0.00000000000E+00 0.  1.
          2   -1    0    0  501    0  0.00000000000E+00 -0.00000000000E+00 -0.84445861471E+02  0.84445861471E+02  0.00000000000E+00 0. -1.
         23    2    1    2    0    0 -0.21089408794E+02 -0.15877034729E+01  0.42662094634E+02  0.13373555607E+03  0.12497143943E+03 0.  0.
         23    2    1    2    0    0  0.21089408794E+02  0.15877034729E+01  0.20679178783E+02  0.98497440290E+02  0.93951228533E+02 0.  0.
          5    1    3    3  502    0 -0.95743228183E+01  0.38720322901E+02  0.71937141562E+02  0.82389158262E+02  0.47000000000E+01 0.  1.
         -5    1    3    3    0  502 -0.11515085976E+02 -0.40308026374E+02 -0.29275046928E+02  0.51346397807E+02  0.47000000000E+01 0.  1.
        -11    1    4    4    0    0 -0.94610843153E+01 -0.33557023855E+02  0.35372951792E+02  0.49667209352E+02  0.00000000000E+00 0.  1.
         11    1    4    4    0    0  0.30550493110E+02  0.35144727327E+02 -0.14693773009E+02  0.48830230937E+02  0.00000000000E+00 0. -1.
<mgrwt>
<rscale>  0 0.11833571E+03</rscale>
<asrwt>0</asrwt>
<pdfrwt beam="2">  1        2 0.12991671E-01 0.12674835E+03</pdfrwt>
<pdfrwt beam="1">  1       -2 0.22736482E-01 0.12674835E+03</pdfrwt>
<totfact> 0.73255595E+03</totfact>
</mgrwt>
</event>
<event>
 8    1  0.8504141E-006  0.1271006E+03  0.7546771E-02  0.1244406E+00
          2   -1    0    0  501    0  0.00000000000E+00  0.00000000000E+00  0.31308426310E+03  0.31308426310E+03  0.00000000000E+00 0. -1.
         -2   -1    0    0    0  501 -0.00000000000E+00 -0.00000000000E+00 -0.40676001224E+02  0.40676001224E+02  0.00000000000E+00 0.  1.
         23    2    1    2    0    0  0.19754526882E+02 -0.11744623642E+02  0.14543491247E+03  0.19314731485E+03  0.12500557567E+03 0.  0.
         23    2    1    2    0    0 -0.19754526882E+02  0.11744623642E+02  0.12697334941E+03  0.16061294948E+03  0.95635299781E+02 0.  0.
          5    1    3    3  502    0 -0.25830654369E+01 -0.18537044018E+02 -0.18950086516E+02  0.27046071932E+02  0.47000000000E+01 0. -1.
         -5    1    3    3    0  502  0.22337592319E+02  0.67924203766E+01  0.16438499899E+03  0.16610124291E+03  0.47000000000E+01 0. -1.
        -11    1    4    4    0    0  0.11902139365E+02  0.18282686012E+02  0.12641479872E+03  0.12828335381E+03  0.00000000000E+00 0. -1.
         11    1    4    4    0    0 -0.31656666247E+02 -0.65380623702E+01  0.55855068822E+00  0.32329595671E+02  0.00000000000E+00 0.  1.
<mgrwt>
<rscale>  0 0.11921013E+03</rscale>
<asrwt>0</asrwt>
<pdfrwt beam="1">  1        2 0.48166808E-01 0.12710064E+03</pdfrwt>
<pdfrwt beam="2">  1       -2 0.62578466E-02 0.12710064E+03</pdfrwt>
<totfact> 0.13551191E+04</totfact>
</mgrwt>
</event>
<event>
 8    1  0.8504141E-006  0.2161322E+03  0.7546771E-02  0.1140453E+00
          2   -1    0    0  501    0  0.00000000000E+00  0.00000000000E+00  0.87558362289E+03  0.87558362289E+03  0.00000000000E+00 0. -1.
         -2   -1    0    0    0  501 -0.00000000000E+00 -0.00000000000E+00 -0.51851315303E+02  0.51851315303E+02  0.00000000000E+00 0.  1.
         23    2    1    2    0    0 -0.75548059815E+02 -0.15930939366E+03  0.31916521554E+03  0.38546019888E+03  0.12500455135E+03 0.  0.
         23    2    1    2    0    0  0.75548059815E+02  0.15930939366E+03  0.50456709205E+03  0.54197473931E+03  0.89786833250E+02 0.  0.
          5    1    3    3  502    0 -0.19957645248E+02 -0.73067223256E+01 -0.56821024795E+01  0.22496045954E+02  0.47000000000E+01 0.  1.
         -5    1    3    3    0  502 -0.55590414568E+02 -0.15200267134E+03  0.32484731802E+03  0.36296415293E+03  0.47000000000E+01 0.  1.
        -11    1    4    4    0    0  0.18721203966E+02  0.13459666281E+03  0.34656273622E+03  0.37225324076E+03  0.00000000000E+00 0.  1.
         11    1    4    4    0    0  0.56826855849E+02  0.24712730855E+02  0.15800435583E+03  0.16972149856E+03  0.00000000000E+00 0. -1.
<mgrwt>
<rscale>  0 0.21141181E+03</rscale>
<asrwt>0</asrwt>
<pdfrwt beam="1">  1        2 0.13470516E+00 0.21613221E+03</pdfrwt>
<pdfrwt beam="2">  1       -2 0.79771261E-02 0.21613221E+03</pdfrwt>
<totfact> 0.29752389E+03</totfact>
</mgrwt>
</event>
<event>
 8    1  0.8504141E-006  0.3266105E+03  0.7546771E-02  0.1073930E+00
          1   -1    0    0  501    0  0.00000000000E+00  0.00000000000E+00  0.94138603689E+02  0.94138603689E+02  0.00000000000E+00 0. -1.
         -1   -1    0    0    0  501 -0.00000000000E+00 -0.00000000000E+00 -0.11088670322E+04  0.11088670322E+04  0.00000000000E+00 0.  1.
         23    2    1    2    0    0 -0.29148031803E+03 -0.78094585298E+02 -0.58456926556E+03  0.66962351098E+03  0.12495951414E+03 0.  0.
         23    2    1    2    0    0  0.29148031803E+03  0.78094585298E+02 -0.43015916296E+03  0.53338212491E+03  0.91651762918E+02 0.  0.
          5    1    3    3  502    0 -0.74795396024E+02 -0.59690969830E+02 -0.10008718008E+03  0.13855286631E+03  0.47000000000E+01 0. -1.
         -5    1    3    3    0  502 -0.21668492201E+03 -0.18403615468E+02 -0.48448208547E+03  0.53107064467E+03  0.47000000000E+01 0. -1.
        -11    1    4    4    0    0  0.15889654961E+03 -0.16005172649E+01 -0.18968296358E+03  0.24744757386E+03  0.00000000000E+00 0.  1.
         11    1    4    4    0    0  0.13258376842E+03  0.79695102563E+02 -0.24047619937E+03  0.28593455105E+03  0.00000000000E+00 0. -1.
<mgrwt>
<rscale>  0 0.32376391E+03</rscale>
<asrwt>0</asrwt>
<pdfrwt beam="1">  1        1 0.14482861E-01 0.32661050E+03</pdfrwt>
<pdfrwt beam="2">  1       -1 0.17059494E+00 0.32661050E+03</pdfrwt>
<totfact> 0.10369573E+02</totfact>
</mgrwt>
</event>
<event>
 8    1  0.8504141E-006  0.1537267E+03  0.7546771E-02  0.1204368E+00
         -2   -1    0    0    0  501 -0.00000000000E+00  0.00000000000E+00  0.31553169339E+03  0.31553169339E+03  0.00000000000E+00 0.  1.
          2   -1    0    0  501    0  0.00000000000E+00 -0.00000000000E+00 -0.76806297373E+02  0.76806297373E+02  0.00000000000E+00 0. -1.
         23    2    1    2    0    0  0.89050388158E+02  0.87792412231E+01  0.21136019202E+03  0.26135230470E+03  0.12499939876E+03 0.  0.
         23    2    1    2    0    0 -0.89050388158E+02 -0.87792412231E+01  0.27365203995E+02  0.13098568607E+03  0.91658872224E+02 0.  0.
          5    1    3    3  502    0 -0.22575444929E+02 -0.52533759406E+01  0.10083109319E+03  0.10356760124E+03  0.47000000000E+01 0.  1.
         -5    1    3    3    0  502  0.11162583309E+03  0.14032617164E+02  0.11052909884E+03  0.15778470346E+03  0.47000000000E+01 0.  1.
        -11    1    4    4    0    0 -0.74119518432E+02  0.17152991451E+02  0.52062228059E+02  0.92186787116E+02  0.00000000000E+00 0.  1.
         11    1    4    4    0    0 -0.14930869727E+02 -0.25932232674E+02 -0.24697024064E+02  0.38798898952E+02  0.00000000000E+00 0. -1.
<mgrwt>
<rscale>  0 0.14687410E+03</rscale>
<asrwt>0</asrwt>
<pdfrwt beam="2">  1        2 0.11816354E-01 0.15372669E+03</pdfrwt>
<pdfrwt beam="1">  1       -2 0.48543337E-01 0.15372669E+03</pdfrwt>
<totfact> 0.20648908E+03</totfact>
</mgrwt>
</event>
<event>
 8    1  0.8504141E-006  0.1335088E+03  0.7546771E-02  0.1235425E+00
          3   -1    0    0  501    0  0.00000000000E+00  0.00000000000E+00  0.12254985995E+02  0.12254985995E+02  0.00000000000E+00 0. -1.
         -3   -1    0    0    0  501 -0.00000000000E+00 -0.00000000000E+00 -0.11386189221E+04  0.11386189221E+04  0.00000000000E+00 0.  1.
         23    2    1    2    0    0  0.83302499171E+01  0.46156688448E+02 -0.68798827461E+03  0.70082269842E+03  0.12499902269E+03 0.  0.
         23    2    1    2    0    0 -0.83302499171E+01 -0.46156688448E+02 -0.43837566146E+03  0.45005120964E+03  0.90404854861E+02 0.  0.
          5    1    3    3  502    0  0.40984132791E+00  0.89113251947E+02 -0.48386806996E+03  0.49202818899E+03  0.47000000000E+01 0.  1.
         -5    1    3    3    0  502  0.79204085891E+01 -0.42956563500E+02 -0.20412020465E+03  0.20879450943E+03  0.47000000000E+01 0.  1.
        -11    1    4    4    0    0  0.40724368523E+02 -0.19546929825E+02 -0.16734597626E+03  0.17333560635E+03  0.00000000000E+00 0. -1.
         11    1    4    4    0    0 -0.49054618440E+02 -0.26609758622E+02 -0.27102968521E+03  0.27671560329E+03  0.00000000000E+00 0.  1.
<mgrwt>
<rscale>  0 0.12477273E+03</rscale>
<asrwt>0</asrwt>
<pdfrwt beam="1">  1        3 0.18853820E-02 0.13350876E+03</pdfrwt>
<pdfrwt beam="2">  1       -3 0.17517219E+00 0.13350876E+03</pdfrwt>
<totfact> 0.55628862E+02</totfact>
</mgrwt>
</event>
<event>
 8    1  0.8504141E-006  0.2099267E+03  0.7546771E-02  0.1145488E+00
          2   -1    0    0  501    0  0.00000000000E+00  0.00000000000E+00  0.20037104012E+03  0.20037104012E+03  0.00000000000E+00 0. -1.
         -2   -1    0    0    0  501 -0.00000000000E+00 -0.00000000000E+00 -0.26856825980E+03  0.26856825980E+03  0.00000000000E+00 0.  1.
         23    2    1    2    0    0  0.10422608947E+03  0.13259415247E+03 -0.15286575919E+03  0.25968664980E+03  0.12499971502E+03 0.  0.
         23    2    1    2    0    0 -0.10422608947E+03 -0.13259415247E+03  0.84668539518E+02  0.20925265012E+03  0.90408091472E+02 0.  0.
          5    1    3    3  502    0  0.10945090889E+03  0.14919803847E+03 -0.11544675645E+03  0.21815040617E+03  0.47000000000E+01 0. -1.
         -5    1    3    3    0  502 -0.52248194158E+01 -0.16603885999E+02 -0.37419002742E+02  0.41536243625E+02  0.47000000000E+01 0. -1.
        -11    1    4    4    0    0 -0.10541664042E+03 -0.92833540594E+02  0.33436496555E+02  0.14439090566E+03  0.00000000000E+00 0.  1.
         11    1    4    4    0    0  0.11905509453E+01 -0.39760611874E+02  0.51232042963E+02  0.64861744459E+02  0.00000000000E+00 0. -1.
<mgrwt>
<rscale>  0 0.20512209E+03</rscale>
<asrwt>0</asrwt>
<pdfrwt beam="1">  1        2 0.30826314E-01 0.20992669E+03</pdfrwt>
<pdfrwt beam="2">  1       -2 0.41318194E-01 0.20992669E+03</pdfrwt>
<totfact> 0.94918020E+02</totfact>
</mgrwt>
</event>
<event>
 8    1  0.8504141E-006  0.1286031E+03  0.7546771E-02  0.1245625E+00
         -4   -1    0    0    0  501 -0.00000000000E+00  0.00000000000E+00  0.10181018675E+03  0.10181018675E+03  0.00000000000E+00 0.  1.
          4   -1    0    0  501    0  0.00000000000E+00 -0.00000000000E+00 -0.24954272030E+03  0.24954272030E+03  0.00000000000E+00 0. -1.
         23    2    1    2    0    0  0.30219873277E+02  0.55339628304E+00  0.46019913517E+02  0.13658913974E+03  0.12500085466E+03 0.  0.
         23    2    1    2    0    0 -0.30219873277E+02 -0.55339628304E+00 -0.19375244706E+03  0.21476376731E+03  0.87578068127E+02 0.  0.
          5    1    3    3  502    0 -0.91793276718E+00  0.13619027387E+02  0.84184849866E+02  0.85413695942E+02  0.47000000000E+01 0. -1.
         -5    1    3    3    0  502  0.31137806044E+02 -0.13065631104E+02 -0.38164936349E+02  0.51175443798E+02  0.47000000000E+01 0. -1.
        -11    1    4    4    0    0 -0.36269180575E+02  0.38507336521E+02 -0.10347483951E+03  0.11621235234E+03  0.00000000000E+00 0.  1.
         11    1    4    4    0    0  0.60493072984E+01 -0.39060732804E+02 -0.90277607555E+02  0.98551414966E+02  0.00000000000E+00 0. -1.
<mgrwt>
<rscale>  0 0.11848038E+03</rscale>
<asrwt>0</asrwt>
<pdfrwt beam="2">  1        4 0.38391187E-01 0.12860311E+03</pdfrwt>
<pdfrwt beam="1">  1       -4 0.15663106E-01 0.12860311E+03</pdfrwt>
<totfact> 0.37897364E+02</totfact>
</mgrwt>
</event>
<event>
 8    1  0.8504141E-006  0.1448029E+03  0.7546771E-02  0.1215270E+00
          4   -1    0    0  501    0  0.00000000000E+00  0.00000000000E+00  0.59284743148E+02  0.59284743148E+02  0.00000000000E+00 0. -1.
         -4   -1    0    0    0  501 -0.00000000000E+00 -0.00000000000E+00 -0.33609116102E+03  0.33609116102E+03  0.00000000000E+00 0.  1.
         23    2    1    2    0    0 -0.70957926701E+02  0.17549527708E+02 -0.21476069161E+03  0.25901742948E+03  0.12499944333E+03 0.  0.
         23    2    1    2    0    0  0.70957926701E+02 -0.17549527708E+02 -0.62045726264E+02  0.13635847468E+03  0.96958486920E+02 0.  0.
          5    1    3    3  502    0 -0.71880798227E+02 -0.31793635787E+02 -0.67754284375E+02  0.10387693431E+03  0.47000000000E+01 0. -1.
         -5    1    3    3    0  502  0.92287152561E+00  0.49343163495E+02 -0.14700640723E+03  0.15514049517E+03  0.47000000000E+01 0. -1.
        -11    1    4    4    0    0  0.63939816509E+02 -0.37934003954E+02 -0.40167462722E+01  0.74454167391E+02  0.00000000000E+00 0. -1.
         11    1    4    4    0    0  0.70181101917E+01  0.20384476246E+02 -0.58028979992E+02  0.61904307293E+02  0.00000000000E+00 0.  1.
<mgrwt>
<rscale>  0 0.13856696E+03</rscale>
<asrwt>0</asrwt>
<pdfrwt beam="1">  1        4 0.91207296E-02 0.14480288E+03</pdfrwt>
<pdfrwt beam="2">  1       -4 0.51706333E-01 0.14480288E+03</pdfrwt>
<totfact> 0.53900912E+02</totfact>
</mgrwt>
</event>
<event>
 7    1  0.8504141E-006  0.1593217E+03  0.7546771E-02  0.1203391E+00
          2   -1    0    0  501    0  0.00000000000E+00  0.00000000000E+00  0.18269900809E+02  0.18269900809E+02  0.00000000000E+00 0. -1.
         -2   -1    0    0    0  501 -0.00000000000E+00 -0.00000000000E+00 -0.16873084614E+04  0.16873084614E+04  0.00000000000E+00 0.  1.
         23    2    1    2    0    0  0.28972742534E+02 -0.68756053825E+02 -0.23529591690E+03  0.26301073271E+03  0.90794615847E+02 0.  0.
          5    1    1    2  502    0  0.44296115990E+02 -0.59713323672E+01 -0.69274224236E+03  0.69419860778E+03  0.47000000000E+01 0. -1.
         -5    1    1    2    0  502 -0.73268858525E+02  0.74727386192E+02 -0.74100040133E+03  0.74836902170E+03  0.47000000000E+01 0.  1.
        -11    1    3    3    0    0  0.40582986686E+01 -0.86700155220E+02 -0.17170603202E+03  0.19239633088E+03  0.00000000000E+00 0. -1.
         11    1    3    3    0    0  0.24914443866E+02  0.17944101395E+02 -0.63589884872E+02  0.70614401831E+02  0.00000000000E+00 0.  1.
<mgrwt>
<rscale>  0 0.14764959E+03</rscale>
<asrwt>0</asrwt>
<pdfrwt beam="1">  1        2 0.28107529E-02 0.15932168E+03</pdfrwt>
<pdfrwt beam="2">  1       -2 0.25958601E+00 0.15932168E+03</pdfrwt>
<totfact> 0.21515678E+02</totfact>
</mgrwt>
</event>
<event>
 8    1  0.8504141E-006  0.1707911E+03  0.7546771E-02  0.1183387E+00
         -2   -1    0    0    0  501 -0.00000000000E+00  0.00000000000E+00  0.23723458457E+03  0.23723458457E+03  0.00000000000E+00 0.  1.
          2   -1    0    0  501    0  0.00000000000E+00 -0.00000000000E+00 -0.13750173172E+03  0.13750173172E+03  0.00000000000E+00 0. -1.
         23    2    1    2    0    0 -0.43498047260E+01 -0.11629077767E+03  0.14053086695E+03  0.22117531051E+03  0.12500851028E+03 0.  0.
         23    2    1    2    0    0  0.43498047260E+01  0.11629077767E+03 -0.40798014107E+02  0.15356100578E+03  0.91509774173E+02 0.  0.
          5    1    3    3  502    0  0.12409948809E+01 -0.11433353285E+03  0.16204026313E+03  0.19837548658E+03  0.47000000000E+01 0. -1.
         -5    1    3    3    0  502 -0.55907996068E+01 -0.19572448233E+01 -0.21509396174E+02  0.22799823932E+02  0.47000000000E+01 0. -1.
        -11    1    4    4    0    0  0.18830290285E+02  0.16094046935E+02 -0.45940088044E+02  0.52192814337E+02  0.00000000000E+00 0. -1.
         11    1    4    4    0    0 -0.14480485559E+02  0.10019673074E+03  0.51420739375E+01  0.10136819144E+03  0.00000000000E+00 0.  1.
<mgrwt>
<rscale>  0 0.16479548E+03</rscale>
<asrwt>0</asrwt>
<pdfrwt beam="2">  1        2 0.21154113E-01 0.17079108E+03</pdfrwt>
<pdfrwt beam="1">  1       -2 0.36497628E-01 0.17079108E+03</pdfrwt>
<totfact> 0.18143090E+03</totfact>
</mgrwt>
</event>
<event>
 8    1  0.8504141E-006  0.1387153E+03  0.7546771E-02  0.1226579E+00
          1   -1    0    0  501    0  0.00000000000E+00  0.00000000000E+00  0.11479337230E+03  0.11479337230E+03  0.00000000000E+00 0. -1.
         -1   -1    0    0    0  501 -0.00000000000E+00 -0.00000000000E+00 -0.18364636193E+03  0.18364636193E+03  0.00000000000E+00 0.  1.
         23    2    1    2    0    0 -0.41093603137E+02  0.43754558702E+02 -0.11491894228E+03  0.18013409991E+03  0.12505512796E+03 0.  0.
         23    2    1    2    0    0  0.41093603137E+02 -0.43754558702E+02  0.46065952643E+02  0.11830563432E+03  0.90945068550E+02 0.  0.
          5    1    3    3  502    0 -0.71536228965E+02  0.68095539159E+02 -0.89475317159E+02  0.13335050389E+03  0.47000000000E+01 0.  1.
         -5    1    3    3    0  502  0.30442625829E+02 -0.24340980457E+02 -0.25443625119E+02  0.46783596016E+02  0.47000000000E+01 0.  1.
        -11    1    4    4    0    0  0.91772282184E-01 -0.13414199276E+02 -0.26444351132E+02  0.29652198421E+02  0.00000000000E+00 0.  1.
         11    1    4    4    0    0  0.41001830854E+02 -0.30340359426E+02  0.72510303775E+02  0.88653435901E+02  0.00000000000E+00 0. -1.
<mgrwt>
<rscale>  0 0.13059260E+03</rscale>
<asrwt>0</asrwt>
<pdfrwt beam="1">  1        1 0.17660519E-01 0.13871529E+03</pdfrwt>
<pdfrwt beam="2">  1       -1 0.28253286E-01 0.13871529E+03</pdfrwt>
<totfact> 0.32813861E+03</totfact>
</mgrwt>
</event>
<event>
 8    1  0.8504141E-006  0.1660557E+03  0.7546771E-02  0.1188795E+00
         -1   -1    0    0    0  501 -0.00000000000E+00  0.00000000000E+00  0.22531494980E+03  0.22531494980E+03  0.00000000000E+00 0.  1.
          1   -1    0    0  501    0  0.00000000000E+00 -0.00000000000E+00 -0.12466430037E+03  0.12466430037E+03  0.00000000000E+00 0. -1.
         23    2    1    2    0    0 -0.25644788431E+02 -0.10626139046E+03  0.12135065832E+03  0.20567082253E+03  0.12500146675E+03 0.  0.
         23    2    1    2    0    0  0.25644788431E+02  0.10626139046E+03 -0.20700008885E+02  0.14430842764E+03  0.91909159741E+02 0.  0.
          5    1    3    3  502    0  0.45253027489E+02 -0.57594152732E+02  0.84693671144E+02  0.11207154348E+03  0.47000000000E+01 0.  1.
         -5    1    3    3    0  502 -0.70897815920E+02 -0.48667237728E+02  0.36656987173E+02  0.93599279051E+02  0.47000000000E+01 0.  1.
        -11    1    4    4    0    0  0.24850136826E+02  0.35413931350E+02 -0.51320575524E+02  0.67122852338E+02  0.00000000000E+00 0. -1.
         11    1    4    4    0    0  0.79465160470E+00  0.70847459110E+02  0.30620566639E+02  0.77185575303E+02  0.00000000000E+00 0.  1.
<mgrwt>
<rscale>  0 0.15991333E+03</rscale>
<asrwt>0</asrwt>
<pdfrwt beam="2">  1        1 0.19179123E-01 0.16605573E+03</pdfrwt>
<pdfrwt beam="1">  1       -1 0.34663838E-01 0.16605573E+03</pdfrwt>
<totfact> 0.21043726E+03</totfact>
</mgrwt>
</event>
<event>
 8    1  0.8504141E-006  0.1741825E+03  0.7546771E-02  0.1179833E+00
         -2   -1    0    0    0  501 -0.00000000000E+00  0.00000000000E+00  0.10508691061E+03  0.10508691061E+03  0.00000000000E+00 0.  1.
          2   -1    0    0  501    0  0.00000000000E+00 -0.00000000000E+00 -0.26078349693E+03  0.26078349693E+03  0.00000000000E+00 0. -1.
         23    2    1    2    0    0 -0.11293305436E+03  0.44288739379E+02 -0.49246859482E+02  0.18101044296E+03  0.12499664031E+03 0.  0.
         23    2    1    2    0    0  0.11293305436E+03 -0.44288739379E+02 -0.10644972684E+03  0.18485996458E+03  0.90145964729E+02 0.  0.
          5    1    3    3  502    0 -0.62154042615E+02  0.39538332680E+02  0.35563840486E+02  0.81934617315E+02  0.47000000000E+01 0.  1.
         -5    1    3    3    0  502 -0.50779011743E+02  0.47504066989E+01 -0.84810699968E+02  0.99075825642E+02  0.47000000000E+01 0.  1.
        -11    1    4    4    0    0  0.63731794385E+02 -0.10893388807E+02 -0.20209357378E+01  0.64687647326E+02  0.00000000000E+00 0.  1.
         11    1    4    4    0    0  0.49201259973E+02 -0.33395350571E+02 -0.10442879110E+03  0.12017231725E+03  0.00000000000E+00 0. -1.
<mgrwt>
<rscale>  0 0.16811028E+03</rscale>
<asrwt>0</asrwt>
<pdfrwt beam="2">  1        2 0.40120538E-01 0.17418245E+03</pdfrwt>
<pdfrwt beam="1">  1       -2 0.16167217E-01 0.17418245E+03</pdfrwt>
<totfact> 0.37516531E+03</totfact>
</mgrwt>
</event>
<event>
 8    1  0.8504141E-006  0.1479502E+03  0.7546771E-02  0.1212426E+00
         -2   -1    0    0    0  501 -0.00000000000E+00  0.00000000000E+00  0.11817471384E+03  0.11817471384E+03  0.00000000000E+00 0.  1.
          2   -1    0    0  501    0  0.00000000000E+00 -0.00000000000E+00 -0.15495638006E+03  0.15495638006E+03  0.00000000000E+00 0. -1.
         23    2    1    2    0    0 -0.45132933974E+02 -0.65025399367E+02 -0.46910753156E+01  0.14802457491E+03  0.12499593712E+03 0.  0.
         23    2    1    2    0    0  0.45132933974E+02  0.65025399367E+02 -0.32090590902E+02  0.12510651899E+03  0.91414171651E+02 0.  0.
          5    1    3    3  502    0 -0.75282594528E+01 -0.21422112780E+02  0.58186757012E+02  0.62636812641E+02  0.47000000000E+01 0.  1.
         -5    1    3    3    0  502 -0.37604674521E+02 -0.43603286587E+02 -0.62877832327E+02  0.85387762268E+02  0.47000000000E+01 0.  1.
        -11    1    4    4    0    0  0.31649235856E+02  0.86690718410E+02 -0.36437868935E+02  0.99220325948E+02  0.00000000000E+00 0. -1.
         11    1    4    4    0    0  0.13483698118E+02 -0.21665319043E+02  0.43472780328E+01  0.25886193047E+02  0.00000000000E+00 0.  1.
<mgrwt>
<rscale>  0 0.14067339E+03</rscale>
<asrwt>0</asrwt>
<pdfrwt beam="2">  1        2 0.23839443E-01 0.14795022E+03</pdfrwt>
<pdfrwt beam="1">  1       -2 0.18180725E-01 0.14795022E+03</pdfrwt>
<totfact> 0.53876618E+03</totfact>
</mgrwt>
</event>
<event>
 8    1  0.8504141E-006  0.1326624E+03  0.7546771E-02  0.1236875E+00
         -2   -1    0    0    0  501 -0.00000000000E+00  0.00000000000E+00  0.23384160825E+03  0.23384160825E+03  0.00000000000E+00 0.  1.
          2   -1    0    0  501    0  0.00000000000E+00 -0.00000000000E+00 -0.66415916577E+02  0.66415916577E+02  0.00000000000E+00 0. -1.
         23    2    1    2    0    0 -0.22424843621E+02  0.38353234398E+02  0.14592142901E+03  0.19721152620E+03  0.12500191368E+03 0.  0.
         23    2    1    2    0    0  0.22424843621E+02 -0.38353234398E+02  0.21504262668E+02  0.10304599863E+03  0.90455515698E+02 0.  0.
          5    1    3    3  502    0 -0.71588429540E+02  0.65268690198E+01  0.96575918069E+02  0.12048444387E+03  0.47000000000E+01 0. -1.
         -5    1    3    3    0  502  0.49163585919E+02  0.31826365378E+02  0.49345510940E+02  0.76727082334E+02  0.47000000000E+01 0. -1.
        -11    1    4    4    0    0  0.48693728318E+02 -0.14330232784E+02 -0.14118856551E+02  0.52685641872E+02  0.00000000000E+00 0. -1.
         11    1    4    4    0    0 -0.26268884697E+02 -0.24023001614E+02  0.35623119219E+02  0.50360356757E+02  0.00000000000E+00 0.  1.
<mgrwt>
<rscale>  0 0.12385158E+03</rscale>
<asrwt>0</asrwt>
<pdfrwt beam="2">  1        2 0.10217833E-01 0.13266244E+03</pdfrwt>
<pdfrwt beam="1">  1       -2 0.35975632E-01 0.13266244E+03</pdfrwt>
<totfact> 0.43315035E+03</totfact>
</mgrwt>
</event>
<event>
 8    1  0.8504141E-006  0.1267128E+03  0.7546771E-02  0.1247341E+00
         -2   -1    0    0    0  501 -0.00000000000E+00  0.00000000000E+00  0.21237643364E+02  0.21237643364E+02  0.00000000000E+00 0.  1.
          2   -1    0    0  501    0  0.00000000000E+00 -0.00000000000E+00 -0.57147222185E+03  0.57147222185E+03  0.00000000000E+00 0. -1.
         23    2    1    2    0    0  0.69612079507E+01 -0.19579301329E+02 -0.31038996319E+03  0.33525820701E+03  0.12499731463E+03 0.  0.
         23    2    1    2    0    0 -0.69612079507E+01  0.19579301329E+02 -0.23984461530E+03  0.25745165820E+03  0.91236557180E+02 0.  0.
          5    1    3    3  502    0 -0.34880186234E+02 -0.31479497064E+02 -0.41600115949E+02  0.62930483663E+02  0.47000000000E+01 0. -1.
         -5    1    3    3    0  502  0.41841394185E+02  0.11900195736E+02 -0.26878984724E+03  0.27232772335E+03  0.47000000000E+01 0. -1.
        -11    1    4    4    0    0  0.56925191982E+01  0.47542660745E+02 -0.69710141035E+02  0.84570758118E+02  0.00000000000E+00 0.  1.
         11    1    4    4    0    0 -0.12653727149E+02 -0.27963359416E+02 -0.17013447426E+03  0.17288090008E+03  0.00000000000E+00 0. -1.
<mgrwt>
<rscale>  0 0.11746354E+03</rscale>
<asrwt>0</asrwt>
<pdfrwt beam="2">  1        2 0.87918804E-01 0.12671281E+03</pdfrwt>
<pdfrwt beam="1">  1       -2 0.32673297E-02 0.12671281E+03</pdfrwt>
<totfact> 0.18681265E+04</totfact>
</mgrwt>
</event>
<event>
 7    1  0.8504141E-006  0.3027743E+03  0.7546771E-02  0.1083862E+00
         -4   -1    0    0    0  501 -0.00000000000E+00  0.00000000000E+00  0.79643668236E+03  0.79643668236E+03  0.00000000000E+00 0.  1.
          4   -1    0    0  501    0  0.00000000000E+00 -0.00000000000E+00 -0.28775754394E+02  0.28775754394E+02  0.00000000000E+00 0. -1.
         23    2    1    2    0    0  0.60945486350E+02 -0.40116572053E+02  0.21374763201E+03  0.24373809849E+03  0.91632520471E+02 0.  0.
          5    1    1    2  502    0 -0.27367749332E+02 -0.42944025085E+02  0.57213992360E+02  0.76737956161E+02  0.47000000000E+01 0. -1.
         -5    1    1    2    0  502 -0.33577737017E+02  0.83060597138E+02  0.49669930360E+03  0.50473638210E+03  0.47000000000E+01 0.  1.
        -11    1    3    3    0    0  0.71501846024E+02  0.35517741378E+01  0.11890864501E+03  0.13879623533E+03  0.00000000000E+00 0. -1.
         11    1    3    3    0    0 -0.10556359674E+02 -0.43668346191E+02  0.94838986999E+02  0.10494186316E+03  0.00000000000E+00 0.  1.
<mgrwt>
<rscale>  0 0.30277428E+03</rscale>
<asrwt>0</asrwt>
<pdfrwt beam="2">  1        4 0.44270397E-02 0.30277428E+03</pdfrwt>
<pdfrwt beam="1">  1       -4 0.12252870E+00 0.30277428E+03</pdfrwt>
<totfact> 0.28881504E+02</totfact>
</mgrwt>
</event>
<event>
 8    1  0.8504141E-006  0.1497572E+03  0.7546771E-02  0.1203154E+00
         -2   -1    0    0    0  501 -0.00000000000E+00  0.00000000000E+00  0.16040407652E+03  0.16040407652E+03  0.00000000000E+00 0.  1.
          2   -1    0    0  501    0  0.00000000000E+00 -0.00000000000E+00 -0.13291283378E+03  0.13291283378E+03  0.00000000000E+00 0. -1.
         23    2    1    2    0    0  0.81745134056E+02  0.11255675757E+02  0.11683480165E+02  0.15021225974E+03  0.12497304545E+03 0.  0.
         23    2    1    2    0    0 -0.81745134056E+02 -0.11255675757E+02  0.15807762569E+02  0.14310465056E+03  0.11584514870E+03 0.  0.
          5    1    3    3  502    0  0.29120615638E+02  0.31176126560E+02  0.61444586343E+02  0.74949905359E+02  0.47000000000E+01 0.  1.
         -5    1    3    3    0  502  0.52624518418E+02 -0.19920450803E+02 -0.49761106178E+02  0.75262354381E+02  0.47000000000E+01 0.  1.
        -11    1    4    4    0    0 -0.56677189547E+02  0.22955220721E+02 -0.39955046768E+02  0.73045545624E+02  0.00000000000E+00 0.  1.
         11    1    4    4    0    0 -0.25067944509E+02 -0.34210896478E+02  0.55762809337E+02  0.70059104940E+02  0.00000000000E+00 0. -1.
<mgrwt>
<rscale>  0 0.14783856E+03</rscale>
<asrwt>0</asrwt>
<pdfrwt beam="2">  1        2 0.20448128E-01 0.14975720E+03</pdfrwt>
<pdfrwt beam="1">  1       -2 0.24677550E-01 0.14975720E+03</pdfrwt>
<totfact> 0.37983400E+03</totfact>
</mgrwt>
</event>
<event>
 8    1  0.8504141E-006  0.1246821E+03  0.7546771E-02  0.1257493E+00
          1   -1    0    0  501    0  0.00000000000E+00  0.00000000000E+00  0.17501792437E+03  0.17501792437E+03  0.00000000000E+00 0. -1.
         -1   -1    0    0    0  501 -0.00000000000E+00 -0.00000000000E+00 -0.60788104704E+02  0.60788104704E+02  0.00000000000E+00 0.  1.
         23    2    1    2    0    0 -0.30572240233E+02  0.21457139358E+02  0.56155005011E+02  0.13674429360E+03  0.11895606980E+03 0.  0.
         23    2    1    2    0    0  0.30572240233E+02 -0.21457139358E+02  0.58074814652E+02  0.99061735474E+02  0.71031490452E+02 0.  0.
          5    1    3    3  502    0 -0.54830702436E+02 -0.31429950378E+02  0.43907286862E+02  0.77098557380E+02  0.47000000000E+01 0. -1.
         -5    1    3    3    0  502  0.24258462204E+02  0.52887089736E+02  0.12247718149E+02  0.59645736219E+02  0.47000000000E+01 0.  1.
        -11    1    4    4    0    0  0.49726380790E+02 -0.31257222043E+02  0.42881754619E+02  0.72722567031E+02  0.00000000000E+00 0. -1.
         11    1    4    4    0    0 -0.19154140557E+02  0.98000826852E+01  0.15193060033E+02  0.26339168443E+02  0.00000000000E+00 0.  1.
<mgrwt>
<rscale>  0 0.11167817E+03</rscale>
<asrwt>0</asrwt>
<pdfrwt beam="1">  1        1 0.26925834E-01 0.12468206E+03</pdfrwt>
<pdfrwt beam="2">  1       -1 0.93520162E-02 0.12468206E+03</pdfrwt>
<totfact> 0.10979922E+04</totfact>
</mgrwt>
</event>
<event>
 8    1  0.8504141E-006  0.1203118E+03  0.7546771E-02  0.1257179E+00
         -2   -1    0    0    0  501 -0.00000000000E+00  0.00000000000E+00  0.42415252859E+03  0.42415252859E+03  0.00000000000E+00 0.  1.
          2   -1    0    0  501    0  0.00000000000E+00 -0.00000000000E+00 -0.37652847390E+02  0.37652847390E+02  0.00000000000E+00 0. -1.
         23    2    1    2    0    0  0.18319491921E+02 -0.52012356814E+01  0.33990299080E+03  0.36056757604E+03  0.11879510554E+03 0.  0.
         23    2    1    2    0    0 -0.18319491921E+02  0.52012356814E+01  0.46596690398E+02  0.10123779994E+03  0.87836119809E+02 0.  0.
          5    1    3    3  502    0 -0.32988456895E+02 -0.88903552505E+01  0.28017897373E+02  0.44433875342E+02  0.47000000000E+01 0. -1.
         -5    1    3    3    0  502  0.51307948816E+02  0.36891195691E+01  0.31188509343E+03  0.31613370070E+03  0.47000000000E+01 0. -1.
        -11    1    4    4    0    0 -0.31989410495E+02  0.34276955704E+02  0.28653771756E+01  0.46972784275E+02  0.00000000000E+00 0. -1.
         11    1    4    4    0    0  0.13669918574E+02 -0.29075720023E+02  0.43731313222E+02  0.54265015662E+02  0.00000000000E+00 0.  1.
<mgrwt>
<rscale>  0 0.11185184E+03</rscale>
<asrwt>0</asrwt>
<pdfrwt beam="2">  1        2 0.57927461E-02 0.12031182E+03</pdfrwt>
<pdfrwt beam="1">  1       -2 0.65254232E-01 0.12031182E+03</pdfrwt>
<totfact> 0.27243920E+03</totfact>
</mgrwt>
</event>
<event>
 7    1  0.8504141E-006  0.2098957E+03  0.7546771E-02  0.1171283E+00
          2   -1    0    0  501    0  0.00000000000E+00  0.00000000000E+00  0.52825060546E+03  0.52825060546E+03  0.00000000000E+00 0. -1.
         -2   -1    0    0    0  501 -0.00000000000E+00 -0.00000000000E+00 -0.46896410179E+02  0.46896410179E+02  0.00000000000E+00 0.  1.
         23    2    1    2    0    0 -0.45143682191E+02  0.33286204383E+01  0.16587224207E+03  0.19622083377E+03  0.94551484182E+02 0.  0.
          5    1    1    2  502    0  0.92288086330E+02 -0.51039473510E+02  0.28719059121E+03  0.30597817637E+03  0.47000000000E+01 0. -1.
         -5    1    1    2    0  502 -0.47144404140E+02  0.47710853072E+02  0.28291362004E+02  0.72948005501E+02  0.47000000000E+01 0.  1.
        -11    1    3    3    0    0 -0.72216140856E+02  0.17027360458E+02  0.12417362565E+03  0.14465196615E+03  0.00000000000E+00 0.  1.
         11    1    3    3    0    0  0.27072458666E+02 -0.13698740020E+02  0.41698616423E+02  0.51568867623E+02  0.00000000000E+00 0. -1.
<mgrwt>
<rscale>  0 0.17645032E+03</rscale>
<asrwt>0</asrwt>
<pdfrwt beam="1">  1        2 0.81269320E-01 0.20989566E+03</pdfrwt>
<pdfrwt beam="2">  1       -2 0.72148327E-02 0.20989566E+03</pdfrwt>
<totfact> 0.63900993E+03</totfact>
</mgrwt>
</event>
<event>
 8    1  0.8504141E-006  0.1259561E+03  0.7546771E-02  0.1249171E+00
          1   -1    0    0  501    0  0.00000000000E+00  0.00000000000E+00  0.70724545761E+02  0.70724545761E+02  0.00000000000E+00 0. -1.
         -1   -1    0    0    0  501 -0.00000000000E+00 -0.00000000000E+00 -0.18172368816E+03  0.18172368816E+03  0.00000000000E+00 0.  1.
         23    2    1    2    0    0 -0.91964897258E+01  0.12515869275E+02 -0.98216579249E+02  0.15972298172E+03  0.12499484807E+03 0.  0.
         23    2    1    2    0    0  0.91964897258E+01 -0.12515869275E+02 -0.12782563150E+02  0.92725252200E+02  0.90517158970E+02 0.  0.
          5    1    3    3  502    0  0.50797032561E+02 -0.80663529590E+01 -0.76922693959E+02  0.92653091762E+02  0.47000000000E+01 0.  1.
         -5    1    3    3    0  502 -0.59993522287E+02  0.20582222234E+02 -0.21293885290E+02  0.67069889960E+02  0.47000000000E+01 0.  1.
        -11    1    4    4    0    0 -0.39709387885E+02 -0.87173320518E+01 -0.15710100697E+02  0.43584798132E+02  0.00000000000E+00 0.  1.
         11    1    4    4    0    0  0.48905877611E+02 -0.37985372228E+01  0.29275375475E+01  0.49140454068E+02  0.00000000000E+00 0. -1.
<mgrwt>
<rscale>  0 0.11639177E+03</rscale>
<asrwt>0</asrwt>
<pdfrwt beam="1">  1        1 0.10880699E-01 0.12595608E+03</pdfrwt>
<pdfrwt beam="2">  1       -1 0.27957490E-01 0.12595608E+03</pdfrwt>
<totfact> 0.62289576E+03</totfact>
</mgrwt>
</event>
<event>
 8    1  0.8504141E-006  0.1480011E+03  0.7546771E-02  0.1213191E+00
         -2   -1    0    0    0  501 -0.00000000000E+00  0.00000000000E+00  0.10151993699E+03  0.10151993699E+03  0.00000000000E+00 0.  1.
          2   -1    0    0  501    0  0.00000000000E+00 -0.00000000000E+00 -0.23166687838E+03  0.23166687838E+03  0.00000000000E+00 0. -1.
         23    2    1    2    0    0  0.79161958217E+02  0.34449150479E+01  0.11307723277E+02  0.14843247600E+03  0.12500340898E+03 0.  0.
         23    2    1    2    0    0 -0.79161958217E+02 -0.34449150479E+01 -0.14145466467E+03  0.18475433937E+03  0.88579121071E+02 0.  0.
          5    1    3    3  502    0  0.22906488423E+02  0.25599352253E+02  0.60910341485E+02  0.70087044077E+02  0.47000000000E+01 0. -1.
         -5    1    3    3    0  502  0.56255469795E+02 -0.22154437205E+02 -0.49602618208E+02  0.78345431920E+02  0.47000000000E+01 0. -1.
        -11    1    4    4    0    0 -0.37648033778E+02 -0.45659391975E+02 -0.62577184528E+02  0.86128151880E+02  0.00000000000E+00 0.  1.
         11    1    4    4    0    0 -0.41513924439E+02  0.42214476928E+02 -0.78877480143E+02  0.98626187487E+02  0.00000000000E+00 0. -1.
<mgrwt>
<rscale>  0 0.14010265E+03</rscale>
<asrwt>0</asrwt>
<pdfrwt beam="2">  1        2 0.35641058E-01 0.14800113E+03</pdfrwt>
<pdfrwt beam="1">  1       -2 0.15618452E-01 0.14800113E+03</pdfrwt>
<totfact> 0.44719152E+03</totfact>
</mgrwt>
</event>
<event>
 8    1  0.8504141E-006  0.1670077E+03  0.7546771E-02  0.1182248E+00
          3   -1    0    0  501    0  0.00000000000E+00  0.00000000000E+00  0.61455674193E+02  0.61455674193E+02  0.00000000000E+00 0. -1.
         -3   -1    0    0    0  501 -0.00000000000E+00 -0.00000000000E+00 -0.56513256361E+03  0.56513256361E+03  0.00000000000E+00 0.  1.
         23    2    1    2    0    0  0.29857470760E+02 -0.10662662889E+03 -0.40113061460E+03  0.43450814595E+03  0.12502340732E+03 0.  0.
         23    2    1    2    0    0 -0.29857470760E+02  0.10662662889E+03 -0.10254627482E+03  0.19208009186E+03  0.11882052288E+03 0.  0.
          5    1    3    3  502    0  0.46367249331E+02 -0.17823002622E+02 -0.27388014845E+03  0.27838823062E+03  0.47000000000E+01 0.  1.
         -5    1    3    3    0  502 -0.16509778570E+02 -0.88803626271E+02 -0.12725046615E+03  0.15611991533E+03  0.47000000000E+01 0.  1.
        -11    1    4    4    0    0 -0.45243123364E+02  0.12763099590E+03 -0.77860993959E+02  0.15620161877E+03  0.00000000000E+00 0.  1.
         11    1    4    4    0    0  0.15385652604E+02 -0.21004367010E+02 -0.24685280861E+02  0.35878473083E+02  0.00000000000E+00 0. -1.
<mgrwt>
<rscale>  0 0.16584777E+03</rscale>
<asrwt>0</asrwt>
<pdfrwt beam="1">  1        3 0.94547195E-02 0.16700766E+03</pdfrwt>
<pdfrwt beam="2">  1       -3 0.86943468E-01 0.16700766E+03</pdfrwt>
<totfact> 0.24051043E+02</totfact>
</mgrwt>
</event>
<event>
 8    1  0.8504141E-006  0.1935766E+03  0.7546771E-02  0.1160115E+00
         -2   -1    0    0    0  501 -0.00000000000E+00  0.00000000000E+00  0.68944183244E+03  0.68944183244E+03  0.00000000000E+00 0.  1.
          2   -1    0    0  501    0  0.00000000000E+00 -0.00000000000E+00 -0.57027392600E+02  0.57027392600E+02  0.00000000000E+00 0. -1.
         23    2    1    2    0    0  0.62924121899E+02  0.13374653324E+03  0.47396075490E+03  0.51196747800E+03  0.12499728430E+03 0.  0.
         23    2    1    2    0    0 -0.62924121899E+02 -0.13374653324E+03  0.15845368495E+03  0.23450174704E+03  0.89643286548E+02 0.  0.
          5    1    3    3  502    0 -0.39678733520E+01  0.36897282263E+02  0.18905604831E+02  0.41912591799E+02  0.47000000000E+01 0.  1.
         -5    1    3    3    0  502  0.66891995251E+02  0.96849250972E+02  0.45505515006E+03  0.47005488620E+03  0.47000000000E+01 0.  1.
        -11    1    4    4    0    0  0.17730245833E+01 -0.22861589131E+02 -0.80058542187E+01  0.24287642445E+02  0.00000000000E+00 0. -1.
         11    1    4    4    0    0 -0.64697146483E+02 -0.11088494410E+03  0.16645953917E+03  0.21021410460E+03  0.00000000000E+00 0.  1.
<mgrwt>
<rscale>  0 0.18817788E+03</rscale>
<asrwt>0</asrwt>
<pdfrwt beam="2">  1        2 0.87734455E-02 0.19357660E+03</pdfrwt>
<pdfrwt beam="1">  1       -2 0.10606797E+00 0.19357660E+03</pdfrwt>
<totfact> 0.56017766E+02</totfact>
</mgrwt>
</event>
<event>
 8    1  0.8504141E-006  0.1659454E+03  0.7546771E-02  0.1188321E+00
          3   -1    0    0  501    0  0.00000000000E+00  0.00000000000E+00  0.14110965558E+03  0.14110965558E+03  0.00000000000E+00 0. -1.
         -3   -1    0    0    0  501 -0.00000000000E+00 -0.00000000000E+00 -0.19152210779E+03  0.19152210779E+03  0.00000000000E+00 0.  1.
         23    2    1    2    0    0  0.10479406661E+03  0.30519445191E+02 -0.81250425327E+02  0.18476881575E+03  0.12499860290E+03 0.  0.
         23    2    1    2    0    0 -0.10479406661E+03 -0.30519445191E+02  0.30837973124E+02  0.14786294762E+03  0.94864312362E+02 0.  0.
          5    1    3    3  502    0  0.12230578044E+03 -0.57483125929E+01 -0.45482795555E+02  0.13070012134E+03  0.47000000000E+01 0. -1.
         -5    1    3    3    0  502 -0.17511713827E+02  0.36267757783E+02 -0.35767629773E+02  0.54068694411E+02  0.47000000000E+01 0. -1.
        -11    1    4    4    0    0 -0.20383255644E+01 -0.38967389686E+02 -0.35380748748E+01  0.39180737663E+02  0.00000000000E+00 0. -1.
         11    1    4    4    0    0 -0.10275574105E+03  0.84479444951E+01  0.34376047999E+02  0.10868220995E+03  0.00000000000E+00 0.  1.
<mgrwt>
<rscale>  0 0.16033363E+03</rscale>
<asrwt>0</asrwt>
<pdfrwt beam="1">  1        3 0.21709178E-01 0.16594542E+03</pdfrwt>
<pdfrwt beam="2">  1       -3 0.29464939E-01 0.16594542E+03</pdfrwt>
<totfact> 0.51316924E+02</totfact>
</mgrwt>
</event>
<event>
 8    1  0.1078552E-005  0.3596210E+03  0.7546771E-02  0.1059759E+00
         -2   -1    0    0    0  501 -0.00000000000E+00  0.00000000000E+00  0.10725120829E+03  0.10725120829E+03  0.00000000000E+00 0.  1.
          2   -1    0    0  501    0  0.00000000000E+00 -0.00000000000E+00 -0.12405560200E+04  0.12405560200E+04  0.00000000000E+00 0. -1.
         23    2    1    2    0    0 -0.26609407032E+03 -0.20711523519E+03 -0.41585815452E+03  0.54978659676E+03  0.12499808955E+03 0.  0.
         23    2    1    2    0    0  0.26609407032E+03  0.20711523519E+03 -0.71744665721E+03  0.79802063154E+03  0.91675773936E+02 0.  0.
          5    1    3    3  502    0 -0.34075351176E+02 -0.60243671062E+01 -0.27177260339E+01  0.35027112236E+02  0.47000000000E+01 0. -1.
         -5    1    3    3    0  502 -0.23201871914E+03 -0.20109086808E+03 -0.41314042849E+03  0.51475948453E+03  0.47000000000E+01 0. -1.
        -11    1    4    4    0    0  0.20226869669E+03  0.16785830187E+03 -0.63136721406E+03  0.68389589424E+03  0.00000000000E+00 0.  1.
         11    1    4    4    0    0  0.63825373630E+02  0.39256933321E+02 -0.86079443150E+02  0.11412473731E+03  0.00000000000E+00 0. -1.
<mgrwt>
<rscale>  0 0.35704791E+03</rscale>
<asrwt>0</asrwt>
<pdfrwt beam="2">  1        2 0.19085478E+00 0.35962105E+03</pdfrwt>
<pdfrwt beam="1">  1       -2 0.16500185E-01 0.35962105E+03</pdfrwt>
<totfact> 0.55078584E+02</totfact>
</mgrwt>
</event>
<event>
 8    1  0.8504141E-006  0.1375127E+03  0.7546771E-02  0.1222201E+00
          4   -1    0    0  501    0  0.00000000000E+00  0.00000000000E+00  0.25593983533E+02  0.25593983533E+02  0.00000000000E+00 0. -1.
         -4   -1    0    0    0  501 -0.00000000000E+00 -0.00000000000E+00 -0.72456622707E+03  0.72456622707E+03  0.00000000000E+00 0.  1.
         23    2    1    2    0    0  0.30721481619E+02  0.48473039043E+02 -0.47912898192E+03  0.49847198575E+03  0.12496517239E+03 0.  0.
         23    2    1    2    0    0 -0.30721481619E+02 -0.48473039043E+02 -0.21984326161E+03  0.25168822485E+03  0.10827030020E+03 0.  0.
          5    1    3    3  502    0  0.76078047805E+02  0.46734923263E+02 -0.35904297381E+03  0.37000806674E+03  0.47000000000E+01 0. -1.
         -5    1    3    3    0  502 -0.45356566186E+02  0.17381157806E+01 -0.12008600811E+03  0.12846391901E+03  0.47000000000E+01 0. -1.
        -11    1    4    4    0    0 -0.29580640781E+02  0.28110417715E+02 -0.11366264281E+03  0.12076591516E+03  0.00000000000E+00 0.  1.
         11    1    4    4    0    0 -0.11408408386E+01 -0.76583456759E+02 -0.10618061880E+03  0.13092230970E+03  0.00000000000E+00 0. -1.
<mgrwt>
<rscale>  0 0.13360601E+03</rscale>
<asrwt>0</asrwt>
<pdfrwt beam="1">  1        4 0.39375361E-02 0.13751269E+03</pdfrwt>
<pdfrwt beam="2">  1       -4 0.11147172E+00 0.13751269E+03</pdfrwt>
<totfact> 0.38755537E+02</totfact>
</mgrwt>
</event>
<event>
 8    1  0.8504141E-006  0.1590916E+03  0.7546771E-02  0.1197447E+00
          2   -1    0    0  501    0  0.00000000000E+00  0.00000000000E+00  0.23836248239E+03  0.23836248239E+03  0.00000000000E+00 0.  1.
         -2   -1    0    0    0  501 -0.00000000000E+00 -0.00000000000E+00 -0.95224788244E+02  0.95224788244E+02  0.00000000000E+00 0. -1.
         23    2    1    2    0    0  0.60120769754E+02  0.77917220329E+02  0.39388749470E+02  0.16389510441E+03  0.12499812593E+03 0.  0.
         23    2    1    2    0    0 -0.60120769754E+02 -0.77917220329E+02  0.10374894468E+03  0.16969216623E+03  0.91356376770E+02 0.  0.
          5    1    3    3  502    0  0.55025886581E+02 -0.21576339286E+02  0.12417583044E+02  0.60577825808E+02  0.47000000000E+01 0. -1.
         -5    1    3    3    0  502  0.50948831735E+01  0.99493559616E+02  0.26971166426E+02  0.10331727860E+03  0.47000000000E+01 0. -1.
        -11    1    4    4    0    0 -0.84587002949E+02 -0.62230089964E+02  0.85045430817E+02  0.13513056822E+03  0.00000000000E+00 0.  1.
         11    1    4    4    0    0  0.24466233195E+02 -0.15687130365E+02  0.18703513862E+02  0.34561598005E+02  0.00000000000E+00 0. -1.
<mgrwt>
<rscale>  0 0.15248940E+03</rscale>
<asrwt>0</asrwt>
<pdfrwt beam="1">  1        2 0.36671151E-01 0.15909158E+03</pdfrwt>
<pdfrwt beam="2">  1       -2 0.14649968E-01 0.15909158E+03</pdfrwt>
<totfact> 0.48369924E+03</totfact>
</mgrwt>
</event>
<event>
 8    1  0.8504141E-006  0.1250810E+03  0.7546771E-02  0.1250319E+00
         -3   -1    0    0    0  501 -0.00000000000E+00  0.00000000000E+00  0.15564335420E+03  0.15564335420E+03  0.00000000000E+00 0.  1.
          3   -1    0    0  501    0  0.00000000000E+00 -0.00000000000E+00 -0.76462907767E+02  0.76462907767E+02  0.00000000000E+00 0. -1.
         23    2    1    2    0    0 -0.14878313047E+01 -0.42613434844E+01  0.58803786851E+02  0.13821409221E+03  0.12499950899E+03 0.  0.
         23    2    1    2    0    0  0.14878313047E+01  0.42613434844E+01  0.20376659578E+02  0.93892169751E+02  0.91543206164E+02 0.  0.
          5    1    3    3  502    0  0.57891121094E+02 -0.23250790805E+02  0.29471113799E+02  0.69156472749E+02  0.47000000000E+01 0.  1.
         -5    1    3    3    0  502 -0.59378952399E+02  0.18989447320E+02  0.29332673052E+02  0.69057619463E+02  0.47000000000E+01 0.  1.
        -11    1    4    4    0    0  0.29088440704E+02  0.32019656135E+02 -0.99321677699E+01  0.44385174532E+02  0.00000000000E+00 0. -1.
         11    1    4    4    0    0 -0.27600609400E+02 -0.27758312650E+02  0.30308827348E+02  0.49506995219E+02  0.00000000000E+00 0.  1.
<mgrwt>
<rscale>  0 0.11572622E+03</rscale>
<asrwt>0</asrwt>
<pdfrwt beam="2">  1        3 0.11763524E-01 0.12508097E+03</pdfrwt>
<pdfrwt beam="1">  1       -3 0.23945131E-01 0.12508097E+03</pdfrwt>
<totfact> 0.20619322E+03</totfact>
</mgrwt>
</event>
<event>
 8    1  0.8504141E-006  0.1319454E+03  0.7546771E-02  0.1236581E+00
          1   -1    0    0  501    0  0.00000000000E+00  0.00000000000E+00  0.54916645862E+03  0.54916645862E+03  0.00000000000E+00 0. -1.
         -1   -1    0    0    0  501 -0.00000000000E+00 -0.00000000000E+00 -0.25753284358E+02  0.25753284358E+02  0.00000000000E+00 0.  1.
         23    2    1    2    0    0 -0.12841291562E+02  0.40202711465E+02  0.24903415346E+03  0.28182902097E+03  0.12501372201E+03 0.  0.
         23    2    1    2    0    0  0.12841291562E+02 -0.40202711465E+02  0.27437902080E+03  0.29309072201E+03  0.94006209880E+02 0.  0.
          5    1    3    3  502    0  0.35707936643E+02  0.30698819318E+02  0.27382449088E+02  0.54675065294E+02  0.47000000000E+01 0.  1.
         -5    1    3    3    0  502 -0.48549228205E+02  0.95038921469E+01  0.22165170437E+03  0.22715395567E+03  0.47000000000E+01 0.  1.
        -11    1    4    4    0    0  0.52715122377E+02 -0.31577537773E+02  0.18232675182E+03  0.19240340290E+03  0.00000000000E+00 0. -1.
         11    1    4    4    0    0 -0.39873830815E+02 -0.86251736926E+01  0.92052268981E+02  0.10068731911E+03  0.00000000000E+00 0.  1.
<mgrwt>
<rscale>  0 0.12403741E+03</rscale>
<asrwt>0</asrwt>
<pdfrwt beam="1">  1        1 0.84487139E-01 0.13194540E+03</pdfrwt>
<pdfrwt beam="2">  1       -1 0.39620442E-02 0.13194540E+03</pdfrwt>
<totfact> 0.94517516E+03</totfact>
</mgrwt>
</event>
<event>
 8    1  0.8504141E-006  0.1275146E+03  0.7546771E-02  0.1247428E+00
          1   -1    0    0  501    0  0.00000000000E+00  0.00000000000E+00  0.66799103060E+02  0.66799103060E+02  0.00000000000E+00 0. -1.
         -1   -1    0    0    0  501 -0.00000000000E+00 -0.00000000000E+00 -0.21025062271E+03  0.21025062271E+03  0.00000000000E+00 0.  1.
         23    2    1    2    0    0  0.21189037647E+02  0.13661179895E+02 -0.13388712005E+03  0.18489387995E+03  0.12499753108E+03 0.  0.
         23    2    1    2    0    0 -0.21189037647E+02 -0.13661179895E+02 -0.95643995991E+01  0.92155845820E+02  0.88122749768E+02 0.  0.
          5    1    3    3  502    0 -0.16248712850E+02 -0.47020756186E+02 -0.28382146667E+02  0.57468325458E+02  0.47000000000E+01 0. -1.
         -5    1    3    3    0  502  0.37437750497E+02  0.60681936081E+02 -0.10550497338E+03  0.12742555449E+03  0.47000000000E+01 0. -1.
        -11    1    4    4    0    0 -0.16546312596E+02 -0.50358037019E+02  0.29980058874E+01  0.53091434264E+02  0.00000000000E+00 0. -1.
         11    1    4    4    0    0 -0.46427250513E+01  0.36696857124E+02 -0.12562405487E+02  0.39064411557E+02  0.00000000000E+00 0.  1.
<mgrwt>
<rscale>  0 0.11741210E+03</rscale>
<asrwt>0</asrwt>
<pdfrwt beam="1">  1        1 0.10276785E-01 0.12751465E+03</pdfrwt>
<pdfrwt beam="2">  1       -1 0.32346249E-01 0.12751465E+03</pdfrwt>
<totfact> 0.52635432E+03</totfact>
</mgrwt>
</event>
<event>
 8    1  0.8504141E-006  0.1357147E+03  0.7546771E-02  0.1231217E+00
          2   -1    0    0  501    0  0.00000000000E+00  0.00000000000E+00  0.11546536156E+03  0.11546536156E+03  0.00000000000E+00 0. -1.
         -2   -1    0    0    0  501 -0.00000000000E+00 -0.00000000000E+00 -0.16783444886E+03  0.16783444886E+03  0.00000000000E+00 0.  1.
         23    2    1    2    0    0 -0.20177257957E+01 -0.52800011519E+02 -0.98770615649E+02  0.16785143528E+03  0.12500622935E+03 0.  0.
         23    2    1    2    0    0  0.20177257957E+01  0.52800011519E+02  0.46401528355E+02  0.11544837514E+03  0.91560433891E+02 0.  0.
          5    1    3    3  502    0 -0.57311880092E+02 -0.52335133185E+00 -0.56775643746E+02  0.80811442377E+02  0.47000000000E+01 0. -1.
         -5    1    3    3    0  502  0.55294154297E+02 -0.52276660187E+02 -0.41994971904E+02  0.87039992905E+02  0.47000000000E+01 0. -1.
        -11    1    4    4    0    0 -0.43907641539E+02  0.15627413320E+02  0.19267392658E+02  0.50431433179E+02  0.00000000000E+00 0.  1.
         11    1    4    4    0    0  0.45925367335E+02  0.37172598199E+02  0.27134135696E+02  0.65016941959E+02  0.00000000000E+00 0. -1.
<mgrwt>
<rscale>  0 0.12749763E+03</rscale>
<asrwt>0</asrwt>
<pdfrwt beam="1">  1        2 0.17763902E-01 0.13571466E+03</pdfrwt>
<pdfrwt beam="2">  1       -2 0.25820684E-01 0.13571466E+03</pdfrwt>
<totfact> 0.40954154E+03</totfact>
</mgrwt>
</event>
<event>
 7    1  0.8504141E-006  0.1348169E+03  0.7546771E-02  0.1235563E+00
         -1   -1    0    0    0  501 -0.00000000000E+00  0.00000000000E+00  0.11749394239E+03  0.11749394239E+03  0.00000000000E+00 0.  1.
          1   -1    0    0  501    0  0.00000000000E+00 -0.00000000000E+00 -0.16510406230E+03  0.16510406230E+03  0.00000000000E+00 0. -1.
         23    2    1    2    0    0  0.13103947825E+02  0.34022069190E+02 -0.97650127621E+02  0.13879399345E+03  0.91646115867E+02 0.  0.
          5    1    1    2  502    0 -0.69829328285E+02 -0.31668642508E+01  0.25006694431E+02  0.74388096388E+02  0.47000000000E+01 0. -1.
         -5    1    1    2    0  502  0.56725380460E+02 -0.30855204939E+02  0.25033313285E+02  0.69415914848E+02  0.47000000000E+01 0.  1.
        -11    1    3    3    0    0  0.41810187753E+02 -0.11638263790E+02 -0.32523060068E+02  0.54233665008E+02  0.00000000000E+00 0.  1.
         11    1    3    3    0    0 -0.28706239928E+02  0.45660332980E+02 -0.65127067553E+02  0.84560328445E+02  0.00000000000E+00 0. -1.
<mgrwt>
<rscale>  0 0.12468448E+03</rscale>
<asrwt>0</asrwt>
<pdfrwt beam="2">  1        1 0.25400625E-01 0.13481688E+03</pdfrwt>
<pdfrwt beam="1">  1       -1 0.18075991E-01 0.13481688E+03</pdfrwt>
<totfact> 0.42742816E+03</totfact>
</mgrwt>
</event>
<event>
 8    1  0.8504141E-006  0.1253211E+03  0.7546771E-02  0.1250441E+00
         -3   -1    0    0    0  501 -0.00000000000E+00  0.00000000000E+00  0.19646381384E+03  0.19646381384E+03  0.00000000000E+00 0.  1.
          3   -1    0    0  501    0  0.00000000000E+00 -0.00000000000E+00 -0.60120798850E+02  0.60120798850E+02  0.00000000000E+00 0. -1.
         23    2    1    2    0    0  0.82281043503E+01  0.33071638591E+01  0.91829309195E+02  0.15536409750E+03  0.12500696673E+03 0.  0.
         23    2    1    2    0    0 -0.82281043503E+01 -0.33071638591E+01  0.44513705793E+02  0.10122051519E+03  0.90473662784E+02 0.  0.
          5    1    3    3  502    0 -0.38736324548E+01  0.62896677885E+02  0.57180413464E+02  0.85221398729E+02  0.47000000000E+01 0. -1.
         -5    1    3    3    0  502  0.12101736805E+02 -0.59589514026E+02  0.34648895732E+02  0.70142698772E+02  0.47000000000E+01 0. -1.
        -11    1    4    4    0    0 -0.23198184637E+02  0.38496602923E+02  0.31716551101E+02  0.55009852034E+02  0.00000000000E+00 0.  1.
         11    1    4    4    0    0  0.14970080286E+02 -0.41803766782E+02  0.12797154691E+02  0.46210663154E+02  0.00000000000E+00 0. -1.
<mgrwt>
<rscale>  0 0.11565589E+03</rscale>
<asrwt>0</asrwt>
<pdfrwt beam="2">  1        3 0.92493537E-02 0.12532111E+03</pdfrwt>
<pdfrwt beam="1">  1       -3 0.30225202E-01 0.12532111E+03</pdfrwt>
<totfact> 0.20097500E+03</totfact>
</mgrwt>
</event>
<event>
 8    1  0.8504141E-006  0.1507511E+03  0.7546771E-02  0.1204337E+00
          1   -1    0    0  501    0  0.00000000000E+00  0.00000000000E+00  0.17603499509E+03  0.17603499509E+03  0.00000000000E+00 0. -1.
         -1   -1    0    0    0  501 -0.00000000000E+00 -0.00000000000E+00 -0.15133911038E+03  0.15133911038E+03  0.00000000000E+00 0.  1.
         23    2    1    2    0    0 -0.34860142151E+01 -0.95792207005E+02 -0.65377865475E+02  0.16431721290E+03  0.11635111492E+03 0.  0.
         23    2    1    2    0    0  0.34860142151E+01  0.95792207005E+02  0.90073750186E+02  0.16305689257E+03  0.96363740713E+02 0.  0.
          5    1    3    3  502    0  0.27558210785E+02 -0.61548712955E+01  0.21341570136E+02  0.35705602337E+02  0.47000000000E+01 0. -1.
         -5    1    3    3    0  502 -0.31044225000E+02 -0.89637335709E+02 -0.86719435611E+02  0.12861161056E+03  0.47000000000E+01 0.  1.
        -11    1    4    4    0    0  0.48473907154E+02  0.42306735449E+02  0.30412643983E+02  0.71165359924E+02  0.00000000000E+00 0.  1.
         11    1    4    4    0    0 -0.44987892939E+02  0.53485471556E+02  0.59661106203E+02  0.91891532646E+02  0.00000000000E+00 0. -1.
<mgrwt>
<rscale>  0 0.14689810E+03</rscale>
<asrwt>0</asrwt>
<pdfrwt beam="1">  1        1 0.27082307E-01 0.15075106E+03</pdfrwt>
<pdfrwt beam="2">  1       -1 0.23282940E-01 0.15075106E+03</pdfrwt>
<totfact> 0.26372925E+03</totfact>
</mgrwt>
</event>
<event>
 8    1  0.8504141E-006  0.1471225E+03  0.7546771E-02  0.1213932E+00
          4   -1    0    0  501    0  0.00000000000E+00  0.00000000000E+00  0.16154218458E+03  0.16154218458E+03  0.00000000000E+00 0. -1.
         -4   -1    0    0    0  501 -0.00000000000E+00 -0.00000000000E+00 -0.17194102566E+03  0.17194102566E+03  0.00000000000E+00 0.  1.
         23    2    1    2    0    0  0.69606968193E+02  0.34301425653E+02 -0.10552569638E+03  0.18105440747E+03  0.12499323200E+03 0.  0.
         23    2    1    2    0    0 -0.69606968193E+02 -0.34301425653E+02  0.95126855302E+02  0.15242880277E+03  0.90353215176E+02 0.  0.
          5    1    3    3  502    0  0.47995507357E+02 -0.37754022823E+00  0.17524487592E+02  0.51311879018E+02  0.47000000000E+01 0. -1.
         -5    1    3    3    0  502  0.21611460836E+02  0.34678965882E+02 -0.12305018397E+03  0.12974252846E+03  0.47000000000E+01 0. -1.
        -11    1    4    4    0    0 -0.33027157418E+02 -0.11006259449E+02  0.10266871998E+03  0.10841031748E+03  0.00000000000E+00 0. -1.
         11    1    4    4    0    0 -0.36579810775E+02 -0.23295166204E+02 -0.75418646760E+01  0.44018485294E+02  0.00000000000E+00 0.  1.
<mgrwt>
<rscale>  0 0.13955313E+03</rscale>
<asrwt>0</asrwt>
<pdfrwt beam="1">  1        4 0.24852644E-01 0.14712249E+03</pdfrwt>
<pdfrwt beam="2">  1       -4 0.26452466E-01 0.14712249E+03</pdfrwt>
<totfact> 0.34472720E+02</totfact>
</mgrwt>
</event>
<event>
 8    1  0.8504141E-006  0.2047555E+03  0.7546771E-02  0.1149974E+00
         -2   -1    0    0    0  501 -0.00000000000E+00  0.00000000000E+00  0.13486166116E+03  0.13486166116E+03  0.00000000000E+00 0.  1.
          2   -1    0    0  501    0  0.00000000000E+00 -0.00000000000E+00 -0.28212381670E+03  0.28212381670E+03  0.00000000000E+00 0. -1.
         23    2    1    2    0    0 -0.15750896170E+03  0.38456215761E+02 -0.75729462311E+02  0.21831118868E+03  0.12504747135E+03 0.  0.
         23    2    1    2    0    0  0.15750896170E+03 -0.38456215761E+02 -0.71532693229E+02  0.19867428918E+03  0.89814216212E+02 0.  0.
          5    1    3    3  502    0 -0.79565793792E+02  0.61646040242E+02 -0.90606136247E+02  0.13550834567E+03  0.47000000000E+01 0. -1.
         -5    1    3    3    0  502 -0.77943167911E+02 -0.23189824481E+02  0.14876673936E+02  0.82802843012E+02  0.47000000000E+01 0. -1.
        -11    1    4    4    0    0  0.13699997140E+03 -0.21548633736E+02 -0.19237861425E+02  0.14001225336E+03  0.00000000000E+00 0.  1.
         11    1    4    4    0    0  0.20508990305E+02 -0.16907582025E+02 -0.52294831804E+02  0.58662035821E+02  0.00000000000E+00 0. -1.
<mgrwt>
<rscale>  0 0.19972147E+03</rscale>
<asrwt>0</asrwt>
<pdfrwt beam="2">  1        2 0.43403663E-01 0.20475552E+03</pdfrwt>
<pdfrwt beam="1">  1       -2 0.20747948E-01 0.20475552E+03</pdfrwt>
<totfact> 0.22791373E+03</totfact>
</mgrwt>
</event>
<event>
 8    1  0.8504141E-006  0.1656759E+03  0.7546771E-02  0.1188075E+00
          2   -1    0    0  501    0  0.00000000000E+00  0.00000000000E+00  0.52129705753E+02  0.52129705753E+02  0.00000000000E+00 0. -1.
         -2   -1    0    0    0  501 -0.00000000000E+00 -0.00000000000E+00 -0.53606549941E+03  0.53606549941E+03  0.00000000000E+00 0.  1.
         23    2    1    2    0    0  0.47769866816E+00 -0.10869974744E+03 -0.36116803987E+03  0.39735481576E+03  0.12503052946E+03 0.  0.
         23    2    1    2    0    0 -0.47769866816E+00  0.10869974744E+03 -0.12276775379E+03  0.19084038939E+03  0.97633342483E+02 0.  0.
          5    1    3    3  502    0 -0.31797106702E+02  0.72920475548E+01 -0.15581672780E+03  0.15926447380E+03  0.47000000000E+01 0.  1.
         -5    1    3    3    0  502  0.32274805370E+02 -0.11599179500E+03 -0.20535131207E+03  0.23809034196E+03  0.47000000000E+01 0.  1.
        -11    1    4    4    0    0 -0.41217530063E+02  0.93133679248E+02 -0.93991593437E+02  0.13858999470E+03  0.00000000000E+00 0. -1.
         11    1    4    4    0    0  0.40739831395E+02  0.15566068197E+02 -0.28776160348E+02  0.52250394693E+02  0.00000000000E+00 0.  1.
<mgrwt>
<rscale>  0 0.16055153E+03</rscale>
<asrwt>0</asrwt>
<pdfrwt beam="1">  1        2 0.80199540E-02 0.16567588E+03</pdfrwt>
<pdfrwt beam="2">  1       -2 0.82471623E-01 0.16567588E+03</pdfrwt>
<totfact> 0.11070887E+03</totfact>
</mgrwt>
</event>
<event>
 7    1  0.8504141E-006  0.1286934E+03  0.7546771E-02  0.1260564E+00
         -2   -1    0    0    0  501 -0.00000000000E+00  0.00000000000E+00  0.78232705594E+02  0.78232705594E+02  0.00000000000E+00 0.  1.
          2   -1    0    0  501    0  0.00000000000E+00 -0.00000000000E+00 -0.15465053990E+03  0.15465053990E+03  0.00000000000E+00 0. -1.
         23    2    1    2    0    0  0.26239975329E+02  0.53524593250E+02  0.18962900744E+01  0.12870733667E+03  0.11405509287E+03 0.  0.
          5    1    3    3  502    0  0.48358361479E+02  0.74707837434E+02 -0.19278314690E+02  0.91178591327E+02  0.47000000000E+01 0. -1.
         -5    1    3    3    0  502 -0.22118386151E+02 -0.21183244183E+02  0.21174604765E+02  0.37528745343E+02  0.47000000000E+01 0.  1.
        -11    1    1    2    0    0 -0.31688673514E+01 -0.43228328004E+02 -0.52020823652E+02  0.67711861263E+02  0.00000000000E+00 0.  1.
         11    1    1    2    0    0 -0.23071107977E+02 -0.10296265246E+02 -0.26293300725E+02  0.36464047558E+02  0.00000000000E+00 0. -1.
<mgrwt>
<rscale>  0 0.11000295E+03</rscale>
<asrwt>0</asrwt>
<pdfrwt beam="2">  1        2 0.23792390E-01 0.12869337E+03</pdfrwt>
<pdfrwt beam="1">  1       -2 0.12035801E-01 0.12869337E+03</pdfrwt>
<totfact> 0.10483432E+04</totfact>
</mgrwt>
</event>
<event>
 8    1  0.8504141E-006  0.1274135E+03  0.7546771E-02  0.1241553E+00
         -3   -1    0    0    0  501 -0.00000000000E+00  0.00000000000E+00  0.80249464371E+02  0.80249464371E+02  0.00000000000E+00 0.  1.
          3   -1    0    0  501    0  0.00000000000E+00 -0.00000000000E+00 -0.17158010596E+03  0.17158010596E+03  0.00000000000E+00 0. -1.
         23    2    1    2    0    0 -0.23140854047E+02  0.86046194193E+01 -0.72827719778E+02  0.14675853797E+03  0.12499861238E+03 0.  0.
         23    2    1    2    0    0  0.23140854047E+02 -0.86046194193E+01 -0.18502921807E+02  0.10507103236E+03  0.10043916130E+03 0.  0.
          5    1    3    3  502    0  0.15246800834E+02 -0.45937696405E+02 -0.10178715519E+01  0.48640137224E+02  0.47000000000E+01 0.  1.
         -5    1    3    3    0  502 -0.38387654881E+02  0.54542315824E+02 -0.71809848226E+02  0.98118400746E+02  0.47000000000E+01 0.  1.
        -11    1    4    4    0    0  0.17362217648E+02 -0.44238458643E+02  0.20649761774E+02  0.51816025380E+02  0.00000000000E+00 0.  1.
         11    1    4    4    0    0  0.57786363990E+01  0.35633839224E+02 -0.39152683581E+02  0.53255006977E+02  0.00000000000E+00 0. -1.
<mgrwt>
<rscale>  0 0.12094060E+03</rscale>
<asrwt>0</asrwt>
<pdfrwt beam="2">  1        3 0.26396939E-01 0.12741347E+03</pdfrwt>
<pdfrwt beam="1">  1       -3 0.12346072E-01 0.12741347E+03</pdfrwt>
<totfact> 0.16002498E+03</totfact>
</mgrwt>
</event>
<event>
 8    1  0.8504141E-006  0.2881324E+03  0.7546771E-02  0.1093143E+00
          2   -1    0    0  501    0  0.00000000000E+00  0.00000000000E+00  0.42152196626E+03  0.42152196626E+03  0.00000000000E+00 0. -1.
         -2   -1    0    0    0  501 -0.00000000000E+00 -0.00000000000E+00 -0.20128779699E+03  0.20128779699E+03  0.00000000000E+00 0.  1.
         23    2    1    2    0    0  0.16579917012E+03 -0.19976464938E+03  0.19293823252E+03  0.34676427297E+03  0.12500007795E+03 0.  0.
         23    2    1    2    0    0 -0.16579917012E+03  0.19976464938E+03  0.27295936751E+02  0.27604549027E+03  0.89781760853E+02 0.  0.
          5    1    3    3  502    0  0.63077080954E+02 -0.47137404327E+02 -0.16920094024E+01  0.78902508986E+02  0.47000000000E+01 0. -1.
         -5    1    3    3    0  502  0.10272208917E+03 -0.15262724505E+03  0.19463024192E+03  0.26786176399E+03  0.47000000000E+01 0. -1.
        -11    1    4    4    0    0 -0.14124254766E+03  0.10289632664E+03  0.16152357019E+02  0.17549361796E+03  0.00000000000E+00 0. -1.
         11    1    4    4    0    0 -0.24556622459E+02  0.96868322740E+02  0.11143579732E+02  0.10055187232E+03  0.00000000000E+00 0.  1.
<mgrwt>
<rscale>  0 0.28471206E+03</rscale>
<asrwt>0</asrwt>
<pdfrwt beam="1">  1        2 0.64849533E-01 0.28813243E+03</pdfrwt>
<pdfrwt beam="2">  1       -2 0.30967353E-01 0.28813243E+03</pdfrwt>
<totfact> 0.72924270E+02</totfact>
</mgrwt>
</event>
<event>
 8    1  0.8504141E-006  0.1276582E+03  0.7546771E-02  0.1245701E+00
          1   -1    0    0  501    0  0.00000000000E+00  0.00000000000E+00  0.22071664757E+03  0.22071664757E+03  0.00000000000E+00 0. -1.
         -1   -1    0    0    0  501 -0.00000000000E+00 -0.00000000000E+00 -0.59839023417E+02  0.59839023417E+02  0.00000000000E+00 0.  1.
         23    2    1    2    0    0  0.12600680727E+02  0.22641880818E+02  0.56197253213E+02  0.13948028382E+03  0.12500074553E+03 0.  0.
         23    2    1    2    0    0 -0.12600680727E+02 -0.22641880818E+02  0.10468037094E+03  0.14107538716E+03  0.90955224601E+02 0.  0.
          5    1    3    3  502    0  0.24212377720E+02 -0.44445288888E+02  0.49425484845E+02  0.70898459019E+02  0.47000000000E+01 0.  1.
         -5    1    3    3    0  502 -0.11611696993E+02  0.67087169706E+02  0.67717683682E+01  0.68581824801E+02  0.47000000000E+01 0.  1.
        -11    1    4    4    0    0 -0.11748860183E+02 -0.57235879222E+02  0.53040285065E+02  0.78912948403E+02  0.00000000000E+00 0.  1.
         11    1    4    4    0    0 -0.85182054426E+00  0.34593998404E+02  0.51640085873E+02  0.62162438761E+02  0.00000000000E+00 0. -1.
<mgrwt>
<rscale>  0 0.11843492E+03</rscale>
<asrwt>0</asrwt>
<pdfrwt beam="1">  1        1 0.33956407E-01 0.12765821E+03</pdfrwt>
<pdfrwt beam="2">  1       -1 0.92060037E-02 0.12765821E+03</pdfrwt>
<totfact> 0.84480858E+03</totfact>
</mgrwt>
</event>
<event>
 8    1  0.8504141E-006  0.1343106E+03  0.7546771E-02  0.1226916E+00
          2   -1    0    0  501    0  0.00000000000E+00  0.00000000000E+00  0.31016075182E+02  0.31016075182E+02  0.00000000000E+00 0. -1.
         -2   -1    0    0    0  501 -0.00000000000E+00 -0.00000000000E+00 -0.64157296420E+03  0.64157296420E+03  0.00000000000E+00 0.  1.
         23    2    1    2    0    0  0.44678457978E+02 -0.59969222099E+02 -0.46731153311E+03  0.48622978871E+03  0.11156552444E+03 0.  0.
         23    2    1    2    0    0 -0.44678457978E+02  0.59969222099E+02 -0.14324535591E+03  0.18635925067E+03  0.92833539822E+02 0.  0.
          5    1    3    3  502    0  0.25848931000E+02 -0.66551133747E+02 -0.13076336499E+03  0.14905827136E+03  0.47000000000E+01 0. -1.
         -5    1    3    3    0  502  0.18829526978E+02  0.65819116482E+01 -0.33654816812E+03  0.33717151735E+03  0.47000000000E+01 0.  1.
        -11    1    4    4    0    0 -0.52416890935E+02  0.26577249375E+01 -0.10392687097E+03  0.11642761041E+03  0.00000000000E+00 0. -1.
         11    1    4    4    0    0  0.77384329569E+01  0.57311497161E+02 -0.39318484937E+02  0.69931640258E+02  0.00000000000E+00 0.  1.
<mgrwt>
<rscale>  0 0.13036441E+03</rscale>
<asrwt>0</asrwt>
<pdfrwt beam="1">  1        2 0.47717043E-02 0.13431060E+03</pdfrwt>
<pdfrwt beam="2">  1       -2 0.98703524E-01 0.13431060E+03</pdfrwt>
<totfact> 0.14272540E+03</totfact>
</mgrwt>
</event>
<event>
 8    1  0.8504141E-006  0.1357862E+03  0.7546771E-02  0.1231327E+00
          2   -1    0    0  501    0  0.00000000000E+00  0.00000000000E+00  0.54324288442E+03  0.54324288442E+03  0.00000000000E+00 0. -1.
         -2   -1    0    0    0  501 -0.00000000000E+00 -0.00000000000E+00 -0.32115829141E+02  0.32115829141E+02  0.00000000000E+00 0.  1.
         23    2    1    2    0    0 -0.39233139822E+02 -0.35688670461E+02  0.16566428463E+03  0.21420211146E+03  0.12499987556E+03 0.  0.
         23    2    1    2    0    0  0.39233139822E+02  0.35688670461E+02  0.34546277064E+03  0.36115660210E+03  0.90976067627E+02 0.  0.
          5    1    3    3  502    0 -0.36462414072E+02 -0.40193048683E+02  0.18540017030E+03  0.19323638878E+03  0.47000000000E+01 0. -1.
         -5    1    3    3    0  502 -0.27707257502E+01  0.45043782217E+01 -0.19735885665E+02  0.20965722676E+02  0.47000000000E+01 0. -1.
        -11    1    4    4    0    0 -0.10529316350E+02  0.46326899690E+02  0.10324387983E+03  0.11365010717E+03  0.00000000000E+00 0.  1.
         11    1    4    4    0    0  0.49762456173E+02 -0.10638229229E+02  0.24221889082E+03  0.24750649493E+03  0.00000000000E+00 0. -1.
<mgrwt>
<rscale>  0 0.12742540E+03</rscale>
<asrwt>0</asrwt>
<pdfrwt beam="1">  1        2 0.83575822E-01 0.13578619E+03</pdfrwt>
<pdfrwt beam="2">  1       -2 0.49408972E-02 0.13578619E+03</pdfrwt>
<totfact> 0.10752907E+04</totfact>
</mgrwt>
</event>
<event>
 8    1  0.8504141E-006  0.1597566E+03  0.7546771E-02  0.1196849E+00
          1   -1    0    0  501    0  0.00000000000E+00  0.00000000000E+00  0.10220522439E+04  0.10220522439E+04  0.00000000000E+00 0. -1.
         -1   -1    0    0    0  501 -0.00000000000E+00 -0.00000000000E+00 -0.21592779742E+02  0.21592779742E+02  0.00000000000E+00 0.  1.
         23    2    1    2    0    0  0.76230466295E+02  0.63931426984E+02  0.46885050259E+03  0.49532107318E+03  0.12499544152E+03 0.  0.
         23    2    1    2    0    0 -0.76230466295E+02 -0.63931426984E+02  0.53160896153E+03  0.54832395044E+03  0.90292609281E+02 0.  0.
          5    1    3    3  502    0  0.10790812982E+03  0.60596529890E+02  0.32231523547E+03  0.34529017497E+03  0.47000000000E+01 0. -1.
         -5    1    3    3    0  502 -0.31677663523E+02  0.33348970941E+01  0.14653526712E+03  0.15003089820E+03  0.47000000000E+01 0. -1.
        -11    1    4    4    0    0  0.18656420693E+02 -0.26010128418E+02  0.11569021454E+03  0.12003672168E+03  0.00000000000E+00 0.  1.
         11    1    4    4    0    0 -0.94886886988E+02 -0.37921298566E+02  0.41591874700E+03  0.42828722875E+03  0.00000000000E+00 0. -1.
<mgrwt>
<rscale>  0 0.15298786E+03</rscale>
<asrwt>0</asrwt>
<pdfrwt beam="1">  1        1 0.15723877E+00 0.15975660E+03</pdfrwt>
<pdfrwt beam="2">  1       -1 0.33219669E-02 0.15975660E+03</pdfrwt>
<totfact> 0.49062589E+03</totfact>
</mgrwt>
</event>
<event>
 8    1  0.8504141E-006  0.2495939E+03  0.7546771E-02  0.1116106E+00
         -2   -1    0    0    0  501 -0.00000000000E+00  0.00000000000E+00  0.50529488632E+02  0.50529488632E+02  0.00000000000E+00 0.  1.
          2   -1    0    0  501    0  0.00000000000E+00 -0.00000000000E+00 -0.11584653800E+04  0.11584653800E+04  0.00000000000E+00 0. -1.
         23    2    1    2    0    0 -0.13983945678E+03 -0.16467047734E+03 -0.55323592538E+03  0.60693253313E+03  0.12500268341E+03 0.  0.
         23    2    1    2    0    0  0.13983945678E+03  0.16467047734E+03 -0.55469996603E+03  0.60206233554E+03  0.90086423984E+02 0.  0.
          5    1    3    3  502    0 -0.89968922594E+02 -0.16475885632E+03 -0.49870287548E+03  0.53288510561E+03  0.47000000000E+01 0. -1.
         -5    1    3    3    0  502 -0.49870534189E+02  0.88378978438E-01 -0.54533049900E+02  0.74047427521E+02  0.47000000000E+01 0. -1.
        -11    1    4    4    0    0  0.13154344295E+03  0.92150559238E+02 -0.36339747600E+03  0.39730734767E+03  0.00000000000E+00 0.  1.
         11    1    4    4    0    0  0.82960138346E+01  0.72519918100E+02 -0.19130249003E+03  0.20475498787E+03  0.00000000000E+00 0. -1.
<mgrwt>
<rscale>  0 0.24561798E+03</rscale>
<asrwt>0</asrwt>
<pdfrwt beam="2">  1        2 0.17822544E+00 0.24959389E+03</pdfrwt>
<pdfrwt beam="1">  1       -2 0.77737678E-02 0.24959389E+03</pdfrwt>
<totfact> 0.20869808E+03</totfact>
</mgrwt>
</event>
<event>
 8    1  0.8504141E-006  0.1860209E+03  0.7546771E-02  0.1166777E+00
          2   -1    0    0  501    0  0.00000000000E+00  0.00000000000E+00  0.48636017474E+03  0.48636017474E+03  0.00000000000E+00 0. -1.
         -2   -1    0    0    0  501 -0.00000000000E+00 -0.00000000000E+00 -0.64214823041E+02  0.64214823041E+02  0.00000000000E+00 0.  1.
         23    2    1    2    0    0  0.98958433003E+02 -0.95838912296E+02  0.20850865085E+03  0.27942736102E+03  0.12500369608E+03 0.  0.
         23    2    1    2    0    0 -0.98958433003E+02  0.95838912296E+02  0.21363670086E+03  0.27114763677E+03  0.94353232055E+02 0.  0.
          5    1    3    3  502    0  0.69635816965E+02 -0.28353794203E+01  0.30117166708E+02  0.76067865169E+02  0.47000000000E+01 0.  1.
         -5    1    3    3    0  502  0.29322616038E+02 -0.93003532876E+02  0.17839148414E+03  0.20335949585E+03  0.47000000000E+01 0.  1.
        -11    1    4    4    0    0 -0.35622280458E+02 -0.23887111246E+01  0.11242021472E+02  0.37430413471E+02  0.00000000000E+00 0.  1.
         11    1    4    4    0    0 -0.63336152545E+02  0.98227623421E+02  0.20239467938E+03  0.23371722330E+03  0.00000000000E+00 0. -1.
<mgrwt>
<rscale>  0 0.18106469E+03</rscale>
<asrwt>0</asrwt>
<pdfrwt beam="1">  1        2 0.74824640E-01 0.18602095E+03</pdfrwt>
<pdfrwt beam="2">  1       -2 0.98792039E-02 0.18602095E+03</pdfrwt>
<totfact> 0.42622967E+03</totfact>
</mgrwt>
</event>
<event>
 8    1  0.8504141E-006  0.1384630E+03  0.7546771E-02  0.1226849E+00
         -1   -1    0    0    0  501 -0.00000000000E+00  0.00000000000E+00  0.11911546117E+03  0.11911546117E+03  0.00000000000E+00 0.  1.
          1   -1    0    0  501    0  0.00000000000E+00 -0.00000000000E+00 -0.13041482178E+03  0.13041482178E+03  0.00000000000E+00 0. -1.
         23    2    1    2    0    0 -0.18172686983E+02  0.56732417439E+02  0.87828468952E+01  0.13874122774E+03  0.12499270432E+03 0.  0.
         23    2    1    2    0    0  0.18172686983E+02 -0.56732417439E+02 -0.20082207510E+02  0.11078905521E+03  0.91225577311E+02 0.  0.
          5    1    3    3  502    0  0.30536159622E+02 -0.27091035192E+02 -0.16234818438E+01  0.41123070478E+02  0.47000000000E+01 0.  1.
         -5    1    3    3    0  502 -0.48708846605E+02  0.83823452631E+02  0.10406328739E+02  0.97618157258E+02  0.47000000000E+01 0.  1.
        -11    1    4    4    0    0  0.44561660423E+02 -0.64860879924E+02 -0.39131175519E+01  0.78790785078E+02  0.00000000000E+00 0.  1.
         11    1    4    4    0    0 -0.26388973440E+02  0.81284624853E+01 -0.16169089958E+02  0.31998270135E+02  0.00000000000E+00 0. -1.
<mgrwt>
<rscale>  0 0.13040995E+03</rscale>
<asrwt>0</asrwt>
<pdfrwt beam="2">  1        1 0.20063819E-01 0.13846295E+03</pdfrwt>
<pdfrwt beam="1">  1       -1 0.18325456E-01 0.13846295E+03</pdfrwt>
<totfact> 0.56414970E+03</totfact>
</mgrwt>
</event>
<event>
 8    1  0.8504141E-006  0.1333201E+03  0.7546771E-02  0.1236321E+00
         -1   -1    0    0    0  501 -0.00000000000E+00  0.00000000000E+00  0.83927276090E+02  0.83927276090E+02  0.00000000000E+00 0.  1.
          1   -1    0    0  501    0  0.00000000000E+00 -0.00000000000E+00 -0.19425218044E+03  0.19425218044E+03  0.00000000000E+00 0. -1.
         23    2    1    2    0    0  0.20642655659E+01  0.46328269239E+02 -0.61185742429E+01  0.13346043251E+03  0.12499472138E+03 0.  0.
         23    2    1    2    0    0 -0.20642655659E+01 -0.46328269239E+02 -0.10420633011E+03  0.14471902402E+03  0.89073379615E+02 0.  0.
          5    1    3    3  502    0  0.58208699972E+02 -0.19733441181E+01 -0.93692367322E+01  0.59177862722E+02  0.47000000000E+01 0.  1.
         -5    1    3    3    0  502 -0.56144434406E+02  0.48301613357E+02  0.32506624893E+01  0.74282569788E+02  0.47000000000E+01 0.  1.
        -11    1    4    4    0    0  0.21968703988E+02 -0.43810818820E+02 -0.13480765919E+02  0.50830530692E+02  0.00000000000E+00 0.  1.
         11    1    4    4    0    0 -0.24032969554E+02 -0.25174504184E+01 -0.90725564188E+02  0.93888493328E+02  0.00000000000E+00 0. -1.
<mgrwt>
<rscale>  0 0.12420219E+03</rscale>
<asrwt>0</asrwt>
<pdfrwt beam="2">  1        1 0.29884951E-01 0.13332010E+03</pdfrwt>
<pdfrwt beam="1">  1       -1 0.12911889E-01 0.13332010E+03</pdfrwt>
<totfact> 0.59116549E+03</totfact>
</mgrwt>
</event>
<event>
 8    1  0.8504141E-006  0.3148987E+03  0.7546771E-02  0.1079292E+00
          2   -1    0    0  501    0  0.00000000000E+00  0.00000000000E+00  0.90552450045E+03  0.90552450045E+03  0.00000000000E+00 0. -1.
         -2   -1    0    0    0  501 -0.00000000000E+00 -0.00000000000E+00 -0.10664274016E+03  0.10664274016E+03  0.00000000000E+00 0.  1.
         23    2    1    2    0    0  0.12516671594E+03  0.26051802541E+03  0.45005032287E+03  0.54927815236E+03  0.12499938881E+03 0.  0.
         23    2    1    2    0    0 -0.12516671594E+03 -0.26051802541E+03  0.34883143741E+03  0.46288908824E+03  0.95113552910E+02 0.  0.
          5    1    3    3  502    0  0.80838787378E+02  0.21008021204E+03  0.24166961645E+03  0.33029516883E+03  0.47000000000E+01 0.  1.
         -5    1    3    3    0  502  0.44327928567E+02  0.50437813364E+02  0.20838070642E+03  0.21898298353E+03  0.47000000000E+01 0.  1.
        -11    1    4    4    0    0 -0.54151709011E+02 -0.45259162078E+02  0.12946188902E+03  0.14744890658E+03  0.00000000000E+00 0. -1.
         11    1    4    4    0    0 -0.71015006934E+02 -0.21525886333E+03  0.21936954839E+03  0.31544018167E+03  0.00000000000E+00 0.  1.
<mgrwt>
<rscale>  0 0.31220836E+03</rscale>
<asrwt>0</asrwt>
<pdfrwt beam="1">  1        2 0.13931146E+00 0.31489871E+03</pdfrwt>
<pdfrwt beam="2">  1       -2 0.16406576E-01 0.31489871E+03</pdfrwt>
<totfact> 0.88840580E+02</totfact>
</mgrwt>
</event>
<event>
 8    1  0.8504141E-006  0.1304127E+03  0.7546771E-02  0.1236897E+00
         -4   -1    0    0    0  501 -0.00000000000E+00  0.00000000000E+00  0.36477254459E+03  0.36477254459E+03  0.00000000000E+00 0.  1.
          4   -1    0    0  501    0  0.00000000000E+00 -0.00000000000E+00 -0.43134330700E+02  0.43134330700E+02  0.00000000000E+00 0. -1.
         23    2    1    2    0    0 -0.24862519923E+02 -0.27665317889E+02  0.24338692229E+03  0.27612438049E+03  0.12499585932E+03 0.  0.
         23    2    1    2    0    0  0.24862519923E+02  0.27665317889E+02  0.78251291601E+02  0.13178249480E+03  0.99296760210E+02 0.  0.
          5    1    3    3  502    0  0.17196993377E+01 -0.24860469846E+00 -0.14521518382E+02  0.15361759868E+02  0.47000000000E+01 0. -1.
         -5    1    3    3    0  502 -0.26582219260E+02 -0.27416713191E+02  0.25790844067E+03  0.26076262062E+03  0.47000000000E+01 0. -1.
        -11    1    4    4    0    0 -0.35123485318E+01  0.60900809359E+02  0.55702139646E+02  0.82607345520E+02  0.00000000000E+00 0. -1.
         11    1    4    4    0    0  0.28374868455E+02 -0.33235491469E+02  0.22549151955E+02  0.49175149282E+02  0.00000000000E+00 0.  1.
<mgrwt>
<rscale>  0 0.12383745E+03</rscale>
<asrwt>0</asrwt>
<pdfrwt beam="2">  1        4 0.66360511E-02 0.13041273E+03</pdfrwt>
<pdfrwt beam="1">  1       -4 0.56118851E-01 0.13041273E+03</pdfrwt>
<totfact> 0.75462621E+02</totfact>
</mgrwt>
</event>
<event>
 8    1  0.8504141E-006  0.1321078E+03  0.7546771E-02  0.1237422E+00
          1   -1    0    0  501    0  0.00000000000E+00  0.00000000000E+00  0.56023429922E+02  0.56023429922E+02  0.00000000000E+00 0. -1.
         -1   -1    0    0    0  501 -0.00000000000E+00 -0.00000000000E+00 -0.26832303249E+03  0.26832303249E+03  0.00000000000E+00 0.  1.
         23    2    1    2    0    0  0.26725621534E+02  0.33367188922E+02 -0.16905959159E+03  0.21455444607E+03  0.12499934670E+03 0.  0.
         23    2    1    2    0    0 -0.26725621534E+02 -0.33367188922E+02 -0.43240010973E+02  0.10979201634E+03  0.91416410786E+02 0.  0.
          5    1    3    3  502    0  0.68201841943E+02  0.57431854641E+01 -0.14188169578E+03  0.15759752860E+03  0.47000000000E+01 0.  1.
         -5    1    3    3    0  502 -0.41476220410E+02  0.27624003457E+02 -0.27177895815E+02  0.56956917467E+02  0.47000000000E+01 0.  1.
        -11    1    4    4    0    0 -0.50678480699E+02 -0.22409183057E+01 -0.48479522962E+02  0.70168328094E+02  0.00000000000E+00 0.  1.
         11    1    4    4    0    0  0.23952859165E+02 -0.31126270616E+02  0.52395119893E+01  0.39623688250E+02  0.00000000000E+00 0. -1.
<mgrwt>
<rscale>  0 0.12350633E+03</rscale>
<asrwt>0</asrwt>
<pdfrwt beam="1">  1        1 0.86189893E-02 0.13210778E+03</pdfrwt>
<pdfrwt beam="2">  1       -1 0.41280466E-01 0.13210778E+03</pdfrwt>
<totfact> 0.43750785E+03</totfact>
</mgrwt>
</event>
<event>
 8    1  0.8504141E-006  0.1307386E+03  0.7546771E-02  0.1239064E+00
         -2   -1    0    0    0  501 -0.00000000000E+00  0.00000000000E+00  0.31596247635E+02  0.31596247635E+02  0.00000000000E+00 0.  1.
          2   -1    0    0  501    0  0.00000000000E+00 -0.00000000000E+00 -0.48901693242E+03  0.48901693242E+03  0.00000000000E+00 0. -1.
         23    2    1    2    0    0 -0.36492893251E+02  0.11668230160E+02 -0.16007899369E+03  0.20668299223E+03  0.12499878480E+03 0.  0.
         23    2    1    2    0    0  0.36492893251E+02 -0.11668230160E+02 -0.29734169110E+03  0.31393018783E+03  0.93124662222E+02 0.  0.
          5    1    3    3  502    0 -0.19669961643E+02 -0.53266639557E+02 -0.41942257008E+02  0.70749453734E+02  0.47000000000E+01 0. -1.
         -5    1    3    3    0  502 -0.16822931608E+02  0.64934869717E+02 -0.11813673668E+03  0.13593353849E+03  0.47000000000E+01 0. -1.
        -11    1    4    4    0    0  0.34404356719E+01 -0.39086589700E+02 -0.53559822810E+02  0.66394673818E+02  0.00000000000E+00 0.  1.
         11    1    4    4    0    0  0.33052457579E+02  0.27418359540E+02 -0.24378186829E+03  0.24753551401E+03  0.00000000000E+00 0. -1.
<mgrwt>
<rscale>  0 0.12247797E+03</rscale>
<asrwt>0</asrwt>
<pdfrwt beam="2">  1        2 0.75233368E-01 0.13073858E+03</pdfrwt>
<pdfrwt beam="1">  1       -2 0.48609616E-02 0.13073858E+03</pdfrwt>
<totfact> 0.12340586E+04</totfact>
</mgrwt>
</event>
<event>
 8    1  0.8504141E-006  0.1351297E+03  0.7546771E-02  0.1232259E+00
         -2   -1    0    0    0  501 -0.00000000000E+00  0.00000000000E+00  0.20978420641E+02  0.20978420641E+02  0.00000000000E+00 0.  1.
          2   -1    0    0  501    0  0.00000000000E+00 -0.00000000000E+00 -0.68963186986E+03  0.68963186986E+03  0.00000000000E+00 0. -1.
         23    2    1    2    0    0  0.33698913268E+02 -0.38830644383E+02 -0.40148475791E+03  0.42361543228E+03  0.12496634721E+03 0.  0.
         23    2    1    2    0    0 -0.33698913268E+02  0.38830644383E+02 -0.26716869131E+03  0.28699485822E+03  0.91342779298E+02 0.  0.
          5    1    3    3  502    0 -0.17533725509E+02  0.38316545858E+02 -0.12486134734E+03  0.13186369961E+03  0.47000000000E+01 0.  1.
         -5    1    3    3    0  502  0.51232638777E+02 -0.77147190240E+02 -0.27662341057E+03  0.29175173267E+03  0.47000000000E+01 0.  1.
        -11    1    4    4    0    0 -0.20927945961E+02 -0.22043536932E+02 -0.33699466450E+02  0.45382270565E+02  0.00000000000E+00 0.  1.
         11    1    4    4    0    0 -0.12770967307E+02  0.60874181315E+02 -0.23346922486E+03  0.24161258766E+03  0.00000000000E+00 0. -1.
<mgrwt>
<rscale>  0 0.12681557E+03</rscale>
<asrwt>0</asrwt>
<pdfrwt beam="2">  1        2 0.10609718E+00 0.13512965E+03</pdfrwt>
<pdfrwt beam="1">  1       -2 0.32274502E-02 0.13512965E+03</pdfrwt>
<totfact> 0.15403847E+04</totfact>
</mgrwt>
</event>
<event>
 8    1  0.8504141E-006  0.1260513E+03  0.7546771E-02  0.1248495E+00
         -1   -1    0    0    0  501 -0.00000000000E+00  0.00000000000E+00  0.32555579495E+02  0.32555579495E+02  0.00000000000E+00 0.  1.
          1   -1    0    0  501    0  0.00000000000E+00 -0.00000000000E+00 -0.36861664405E+03  0.36861664405E+03  0.00000000000E+00 0. -1.
         23    2    1    2    0    0  0.14496454971E+02  0.73410534225E+01 -0.18583802424E+03  0.22455446451E+03  0.12499959201E+03 0.  0.
         23    2    1    2    0    0 -0.14496454971E+02 -0.73410534225E+01 -0.15022304031E+03  0.17661775904E+03  0.91448524835E+02 0.  0.
          5    1    3    3  502    0  0.21377649277E+02 -0.20830407032E+02 -0.19214558659E+03  0.19450687955E+03  0.47000000000E+01 0. -1.
         -5    1    3    3    0  502 -0.68811943063E+01  0.28171460455E+02  0.63075623456E+01  0.30047584961E+02  0.47000000000E+01 0. -1.
        -11    1    4    4    0    0  0.27135208261E+02  0.61041669384E+01 -0.12064227299E+03  0.12380685932E+03  0.00000000000E+00 0.  1.
         11    1    4    4    0    0 -0.41631663232E+02 -0.13445220361E+02 -0.29580767323E+02  0.52810899721E+02  0.00000000000E+00 0. -1.
<mgrwt>
<rscale>  0 0.11678639E+03</rscale>
<asrwt>0</asrwt>
<pdfrwt beam="2">  1        1 0.56710251E-01 0.12605132E+03</pdfrwt>
<pdfrwt beam="1">  1       -1 0.50085508E-02 0.12605132E+03</pdfrwt>
<totfact> 0.11120290E+04</totfact>
</mgrwt>
</event>
<event>
 8    1  0.8737213E-006  0.1719758E+03  0.7546771E-02  0.1182125E+00
          1   -1    0    0  501    0  0.00000000000E+00  0.00000000000E+00  0.15006808559E+04  0.15006808559E+04  0.00000000000E+00 0. -1.
         -1   -1    0    0    0  501 -0.00000000000E+00 -0.00000000000E+00 -0.17290683571E+02  0.17290683571E+02  0.00000000000E+00 0.  1.
         23    2    1    2    0    0 -0.90959040700E+01  0.11776209969E+03  0.73340556837E+03  0.75329902389E+03  0.12500017634E+03 0.  0.
         23    2    1    2    0    0  0.90959040700E+01 -0.11776209969E+03  0.74998460392E+03  0.76467251554E+03  0.91085137701E+02 0.  0.
          5    1    3    3  502    0  0.10097359557E+01  0.11619234802E+03  0.33275964121E+03  0.35249503560E+03  0.47000000000E+01 0.  1.
         -5    1    3    3    0  502 -0.10105640026E+02  0.15697516760E+01  0.40064592716E+03  0.40080398830E+03  0.47000000000E+01 0.  1.
        -11    1    4    4    0    0 -0.39652068235E+02 -0.51524530915E+02  0.27186130708E+03  0.27952751938E+03  0.00000000000E+00 0.  1.
         11    1    4    4    0    0  0.48747972305E+02 -0.66237568779E+02  0.47812329683E+03  0.48514499616E+03  0.00000000000E+00 0. -1.
<mgrwt>
<rscale>  0 0.16596247E+03</rscale>
<asrwt>0</asrwt>
<pdfrwt beam="1">  1        1 0.23087388E+00 0.17197585E+03</pdfrwt>
<pdfrwt beam="2">  1       -1 0.26601063E-02 0.17197585E+03</pdfrwt>
<totfact> 0.32045467E+03</totfact>
</mgrwt>
</event>
<event>
 7    1  0.8504141E-006  0.1738858E+03  0.7546771E-02  0.1180106E+00
          1   -1    0    0  501    0  0.00000000000E+00  0.00000000000E+00  0.97988598551E+03  0.97988598551E+03  0.00000000000E+00 0. -1.
         -1   -1    0    0    0  501 -0.00000000000E+00 -0.00000000000E+00 -0.31258254706E+02  0.31258254706E+02  0.00000000000E+00 0.  1.
         23    2    1    2    0    0 -0.10422248809E+03  0.25596435424E+02  0.63331509410E+03  0.65106324233E+03  0.10619714015E+03 0.  0.
          5    1    1    2  502    0 -0.22428205049E+02  0.14131042476E+02  0.12587056411E+03  0.12871751882E+03  0.47000000000E+01 0. -1.
         -5    1    1    2    0  502  0.12665069314E+03 -0.39727477900E+02  0.18944207260E+03  0.23136347906E+03  0.47000000000E+01 0.  1.
        -11    1    3    3    0    0  0.22184636952E+02  0.50262334370E+01  0.85117033465E+02  0.88104089151E+02  0.00000000000E+00 0.  1.
         11    1    3    3    0    0 -0.12640712504E+03  0.20570201987E+02  0.54819806063E+03  0.56295915318E+03  0.00000000000E+00 0. -1.
<mgrwt>
<rscale>  0 0.16785289E+03</rscale>
<asrwt>0</asrwt>
<pdfrwt beam="1">  1        1 0.15075167E+00 0.17388578E+03</pdfrwt>
<pdfrwt beam="2">  1       -1 0.48089630E-02 0.17388578E+03</pdfrwt>
<totfact> 0.30603633E+03</totfact>
</mgrwt>
</event>
<event>
 8    1  0.8504141E-006  0.1258499E+03  0.7546771E-02  0.1248246E+00
         -2   -1    0    0    0  501 -0.00000000000E+00  0.00000000000E+00  0.30286017554E+02  0.30286017554E+02  0.00000000000E+00 0.  1.
          2   -1    0    0  501    0  0.00000000000E+00 -0.00000000000E+00 -0.42038156751E+03  0.42038156751E+03  0.00000000000E+00 0. -1.
         23    2    1    2    0    0 -0.98437156526E+01  0.10681782249E+02 -0.17081117356E+03  0.21216654301E+03  0.12500874268E+03 0.  0.
         23    2    1    2    0    0  0.98437156526E+01 -0.10681782249E+02 -0.21928437640E+03  0.23850104206E+03  0.92661265492E+02 0.  0.
          5    1    3    3  502    0 -0.10889851411E+02  0.49778128970E+02 -0.17820350312E+02  0.54185845687E+02  0.47000000000E+01 0.  1.
         -5    1    3    3    0  502  0.10461357582E+01 -0.39096346721E+02 -0.15299082325E+03  0.15798069732E+03  0.47000000000E+01 0.  1.
        -11    1    4    4    0    0  0.41162979439E+02 -0.29594833554E+02 -0.16814358832E+03  0.17562036141E+03  0.00000000000E+00 0. -1.
         11    1    4    4    0    0 -0.31319263786E+02  0.18913051304E+02 -0.51140788078E+02  0.62880680650E+02  0.00000000000E+00 0.  1.
<mgrwt>
<rscale>  0 0.11693164E+03</rscale>
<asrwt>0</asrwt>
<pdfrwt beam="2">  1        2 0.64674079E-01 0.12584985E+03</pdfrwt>
<pdfrwt beam="1">  1       -2 0.46593879E-02 0.12584985E+03</pdfrwt>
<totfact> 0.15434727E+04</totfact>
</mgrwt>
</event>
<event>
 8    1  0.8504141E-006  0.1529672E+03  0.7546771E-02  0.1205973E+00
         -1   -1    0    0    0  501 -0.00000000000E+00  0.00000000000E+00  0.74675464067E+02  0.74675464067E+02  0.00000000000E+00 0.  1.
          1   -1    0    0  501    0  0.00000000000E+00 -0.00000000000E+00 -0.26769433842E+03  0.26769433842E+03  0.00000000000E+00 0. -1.
         23    2    1    2    0    0 -0.82650164387E+02  0.30577591278E+02 -0.76417927540E+02  0.17099319939E+03  0.12503173927E+03 0.  0.
         23    2    1    2    0    0  0.82650164387E+02 -0.30577591278E+02 -0.11660094682E+03  0.17137660310E+03  0.89488102732E+02 0.  0.
          5    1    3    3  502    0 -0.66541944984E+02  0.19944229698E+02  0.20086864197E+02  0.72464990539E+02  0.47000000000E+01 0.  1.
         -5    1    3    3    0  502 -0.16108219403E+02  0.10633361580E+02 -0.96504791738E+02  0.98528208850E+02  0.47000000000E+01 0.  1.
        -11    1    4    4    0    0  0.24170809438E+01 -0.41100270587E+02 -0.21298490155E+02  0.46354074314E+02  0.00000000000E+00 0.  1.
         11    1    4    4    0    0  0.80233083443E+02  0.10522679309E+02 -0.95302456662E+02  0.12502252879E+03  0.00000000000E+00 0. -1.
<mgrwt>
<rscale>  0 0.14561030E+03</rscale>
<asrwt>0</asrwt>
<pdfrwt beam="2">  1        1 0.41183745E-01 0.15296723E+03</pdfrwt>
<pdfrwt beam="1">  1       -1 0.11488533E-01 0.15296723E+03</pdfrwt>
<totfact> 0.47961938E+03</totfact>
</mgrwt>
</event>
<event>
 8    1  0.8504141E-006  0.1543324E+03  0.7546771E-02  0.1203934E+00
          1   -1    0    0  501    0  0.00000000000E+00  0.00000000000E+00  0.21932932003E+03  0.21932932003E+03  0.00000000000E+00 0. -1.
         -1   -1    0    0    0  501 -0.00000000000E+00 -0.00000000000E+00 -0.92799786447E+02  0.92799786447E+02  0.00000000000E+00 0.  1.
         23    2    1    2    0    0  0.45065782876E+01 -0.90403419109E+02  0.45812270599E+02  0.16098840832E+03  0.12500166415E+03 0.  0.
         23    2    1    2    0    0 -0.45065782876E+01  0.90403419109E+02  0.80717262987E+02  0.15114069816E+03  0.90195047886E+02 0.  0.
          5    1    3    3  502    0  0.13110520586E+02 -0.72665886148E+02  0.87528094491E+02  0.11461009591E+03  0.47000000000E+01 0.  1.
         -5    1    3    3    0  502 -0.86039422988E+01 -0.17737532961E+02 -0.41715823891E+02  0.46378312405E+02  0.47000000000E+01 0.  1.
        -11    1    4    4    0    0  0.34353867087E+02  0.67105949842E+02  0.25215994408E+02  0.79493666805E+02  0.00000000000E+00 0. -1.
         11    1    4    4    0    0 -0.38860445374E+02  0.23297469267E+02  0.55501268579E+02  0.71647031360E+02  0.00000000000E+00 0.  1.
<mgrwt>
<rscale>  0 0.14721780E+03</rscale>
<asrwt>0</asrwt>
<pdfrwt beam="1">  1        1 0.33742972E-01 0.15433244E+03</pdfrwt>
<pdfrwt beam="2">  1       -1 0.14276890E-01 0.15433244E+03</pdfrwt>
<totfact> 0.43841251E+03</totfact>
</mgrwt>
</event>
<event>
 8    1  0.8504141E-006  0.1933928E+03  0.7546771E-02  0.1155669E+00
         -1   -1    0    0    0  501 -0.00000000000E+00  0.00000000000E+00  0.55832797141E+02  0.55832797141E+02  0.00000000000E+00 0.  1.
          1   -1    0    0  501    0  0.00000000000E+00 -0.00000000000E+00 -0.66990413393E+03  0.66990413393E+03  0.00000000000E+00 0. -1.
         23    2    1    2    0    0  0.78732317669E+02 -0.12487669062E+03 -0.33473076451E+03  0.38658178529E+03  0.12493128632E+03 0.  0.
         23    2    1    2    0    0 -0.78732317669E+02  0.12487669062E+03 -0.27934057228E+03  0.33915514579E+03  0.12329676348E+03 0.  0.
          5    1    3    3  502    0  0.69926958412E+02 -0.68110949030E+02 -0.30784044449E+03  0.32298097491E+03  0.47000000000E+01 0. -1.
         -5    1    3    3    0  502  0.88053592574E+01 -0.56765741590E+02 -0.26890320020E+02  0.63600810378E+02  0.47000000000E+01 0. -1.
        -11    1    4    4    0    0 -0.67091871154E+02  0.14911952920E+03 -0.25475623187E+03  0.30271883133E+03  0.00000000000E+00 0.  1.
         11    1    4    4    0    0 -0.11640446515E+02 -0.24242838583E+02 -0.24584340413E+02  0.36436314457E+02  0.00000000000E+00 0. -1.
<mgrwt>
<rscale>  0 0.19312934E+03</rscale>
<asrwt>0</asrwt>
<pdfrwt beam="2">  1        1 0.10306217E+00 0.19339284E+03</pdfrwt>
<pdfrwt beam="1">  1       -1 0.85896615E-02 0.19339284E+03</pdfrwt>
<totfact> 0.23003568E+03</totfact>
</mgrwt>
</event>
<event>
 8    1  0.8504141E-006  0.1918928E+03  0.7546771E-02  0.1161454E+00
          2   -1    0    0  501    0  0.00000000000E+00  0.00000000000E+00  0.64211069031E+03  0.64211069031E+03  0.00000000000E+00 0.  1.
         -2   -1    0    0    0  501 -0.00000000000E+00 -0.00000000000E+00 -0.55129217482E+02  0.55129217482E+02  0.00000000000E+00 0. -1.
         23    2    1    2    0    0 -0.14961076770E+02  0.14482940581E+03  0.21991866821E+03  0.29186823048E+03  0.12499381075E+03 0.  0.
         23    2    1    2    0    0  0.14961076770E+02 -0.14482940581E+03  0.36706280462E+03  0.40537167732E+03  0.91606242315E+02 0.  0.
          5    1    3    3  502    0  0.30983464339E+02 -0.46596589864E+01  0.61665372166E+02  0.69328173268E+02  0.47000000000E+01 0.  1.
         -5    1    3    3    0  502 -0.45944541109E+02  0.14948906480E+03  0.15825329605E+03  0.22254005721E+03  0.47000000000E+01 0.  1.
        -11    1    4    4    0    0  0.44443706540E+02 -0.11714338136E+03  0.22352224309E+03  0.25624208866E+03  0.00000000000E+00 0.  1.
         11    1    4    4    0    0 -0.29482629770E+02 -0.27686024458E+02  0.14354056153E+03  0.14912958866E+03  0.00000000000E+00 0. -1.
<mgrwt>
<rscale>  0 0.18671926E+03</rscale>
<asrwt>0</asrwt>
<pdfrwt beam="1">  1        2 0.98786255E-01 0.19189279E+03</pdfrwt>
<pdfrwt beam="2">  1       -2 0.84814185E-02 0.19189279E+03</pdfrwt>
<totfact> 0.39561188E+03</totfact>
</mgrwt>
</event>
<event>
 8    1  0.8504141E-006  0.1287669E+03  0.7546771E-02  0.1243533E+00
         -1   -1    0    0    0  501 -0.00000000000E+00  0.00000000000E+00  0.97879670720E+03  0.97879670720E+03  0.00000000000E+00 0.  1.
          1   -1    0    0  501    0  0.00000000000E+00 -0.00000000000E+00 -0.18446524497E+02  0.18446524497E+02  0.00000000000E+00 0. -1.
         23    2    1    2    0    0 -0.88344067125E+01 -0.29584758437E+02  0.79936113075E+03  0.80966606789E+03  0.12501047739E+03 0.  0.
         23    2    1    2    0    0  0.88344067125E+01  0.29584758437E+02  0.16098905196E+03  0.18757716382E+03  0.91183402337E+02 0.  0.
          5    1    3    3  502    0 -0.19327499458E+02  0.14802533672E+02  0.29912581508E+02  0.38852538796E+02  0.47000000000E+01 0. -1.
         -5    1    3    3    0  502  0.10493092745E+02 -0.44387292109E+02  0.76944854924E+03  0.77081352909E+03  0.47000000000E+01 0. -1.
        -11    1    4    4    0    0 -0.26272218802E+02 -0.21468135995E+02  0.65138628286E+02  0.73444885723E+02  0.00000000000E+00 0.  1.
         11    1    4    4    0    0  0.35106625515E+02  0.51052894432E+02  0.95850423669E+02  0.11413227809E+03  0.00000000000E+00 0. -1.
<mgrwt>
<rscale>  0 0.11973604E+03</rscale>
<asrwt>0</asrwt>
<pdfrwt beam="2">  1        1 0.28379276E-02 0.12876694E+03</pdfrwt>
<pdfrwt beam="1">  1       -1 0.15058407E+00 0.12876694E+03</pdfrwt>
<totfact> 0.13441656E+03</totfact>
</mgrwt>
</event>
<event>
 8    1  0.8504141E-006  0.1583864E+03  0.7546771E-02  0.1198698E+00
          1   -1    0    0  501    0  0.00000000000E+00  0.00000000000E+00  0.15581650291E+03  0.15581650291E+03  0.00000000000E+00 0. -1.
         -1   -1    0    0    0  501 -0.00000000000E+00 -0.00000000000E+00 -0.13802978359E+03  0.13802978359E+03  0.00000000000E+00 0.  1.
         23    2    1    2    0    0  0.31775280908E+02 -0.91922665146E+02 -0.93789553701E+01  0.15866380575E+03  0.12500717422E+03 0.  0.
         23    2    1    2    0    0 -0.31775280908E+02  0.91922665146E+02  0.27165674690E+02  0.13518248075E+03  0.89871488116E+02 0.  0.
          5    1    3    3  502    0 -0.34254960133E+02 -0.42696435546E+02  0.34849387522E+02  0.65061184378E+02  0.47000000000E+01 0. -1.
         -5    1    3    3    0  502  0.66030241041E+02 -0.49226229600E+02 -0.44228342892E+02  0.93602621371E+02  0.47000000000E+01 0. -1.
        -11    1    4    4    0    0 -0.77111810172E+01  0.10960319145E+02 -0.30227585637E+02  0.33065054694E+02  0.00000000000E+00 0.  1.
         11    1    4    4    0    0 -0.24064099891E+02  0.80962346001E+02  0.57393260327E+02  0.10211742606E+03  0.00000000000E+00 0. -1.
<mgrwt>
<rscale>  0 0.15145397E+03</rscale>
<asrwt>0</asrwt>
<pdfrwt beam="1">  1        1 0.23971770E-01 0.15838636E+03</pdfrwt>
<pdfrwt beam="2">  1       -1 0.21235351E-01 0.15838636E+03</pdfrwt>
<totfact> 0.35804623E+03</totfact>
</mgrwt>
</event>
<event>
 8    1  0.8504141E-006  0.1268911E+03  0.7546771E-02  0.1247057E+00
         -2   -1    0    0    0  501 -0.00000000000E+00  0.00000000000E+00  0.29277402441E+02  0.29277402441E+02  0.00000000000E+00 0.  1.
          2   -1    0    0  501    0  0.00000000000E+00 -0.00000000000E+00 -0.43051101789E+03  0.43051101789E+03  0.00000000000E+00 0. -1.
         23    2    1    2    0    0 -0.52240346075E+01  0.21217841205E+02 -0.18736788489E+03  0.22629199479E+03  0.12499542110E+03 0.  0.
         23    2    1    2    0    0  0.52240346075E+01 -0.21217841205E+02 -0.21386573056E+03  0.23349642554E+03  0.91129263739E+02 0.  0.
          5    1    3    3  502    0 -0.40525328654E+02  0.52468495643E+01 -0.69689056557E+01  0.41719148348E+02  0.47000000000E+01 0.  1.
         -5    1    3    3    0  502  0.35301294046E+02  0.15970991641E+02 -0.18039897924E+03  0.18457284645E+03  0.47000000000E+01 0.  1.
        -11    1    4    4    0    0  0.17717385301E+02  0.17789118155E+02 -0.12573612625E+02  0.28079426652E+02  0.00000000000E+00 0.  1.
         11    1    4    4    0    0 -0.12493350694E+02 -0.39006959360E+02 -0.20129211793E+03  0.20541699889E+03  0.00000000000E+00 0. -1.
<mgrwt>
<rscale>  0 0.11763123E+03</rscale>
<asrwt>0</asrwt>
<pdfrwt beam="2">  1        2 0.66232463E-01 0.12689107E+03</pdfrwt>
<pdfrwt beam="1">  1       -2 0.45042159E-02 0.12689107E+03</pdfrwt>
<totfact> 0.15836945E+04</totfact>
</mgrwt>
</event>
<event>
 7    1  0.8504141E-006  0.1411943E+03  0.7546771E-02  0.1227317E+00
         -1   -1    0    0    0  501 -0.00000000000E+00  0.00000000000E+00  0.17760855579E+04  0.17760855579E+04  0.00000000000E+00 0.  1.
          1   -1    0    0  501    0  0.00000000000E+00 -0.00000000000E+00 -0.11566443853E+02  0.11566443853E+02  0.00000000000E+00 0. -1.
         23    2    1    2    0    0  0.38185370484E+02  0.16526737779E+02  0.30951472836E+03  0.32581288395E+03  0.92862331970E+02 0.  0.
          5    1    1    2  502    0  0.42204150232E+02  0.22253702986E+02  0.35732289115E+03  0.36052483428E+03  0.47000000000E+01 0. -1.
         -5    1    1    2    0  502 -0.80389520716E+02 -0.38780440765E+02  0.10976814945E+04  0.11013142835E+04  0.47000000000E+01 0.  1.
        -11    1    3    3    0    0  0.63828871301E+02 -0.30814823181E+01  0.25075732283E+03  0.25877182091E+03  0.00000000000E+00 0.  1.
         11    1    3    3    0    0 -0.25643500817E+02  0.19608220097E+02  0.58757405531E+02  0.67041063045E+02  0.00000000000E+00 0. -1.
<mgrwt>
<rscale>  0 0.13009332E+03</rscale>
<asrwt>0</asrwt>
<pdfrwt beam="2">  1        1 0.17794543E-02 0.14119435E+03</pdfrwt>
<pdfrwt beam="1">  1       -1 0.27324372E+00 0.14119435E+03</pdfrwt>
<totfact> 0.40385357E+02</totfact>
</mgrwt>
</event>
<event>
 8    1  0.8504141E-006  0.1264636E+03  0.7546771E-02  0.1247991E+00
         -2   -1    0    0    0  501 -0.00000000000E+00  0.00000000000E+00  0.20316708567E+03  0.20316708567E+03  0.00000000000E+00 0.  1.
          2   -1    0    0  501    0  0.00000000000E+00 -0.00000000000E+00 -0.67946656290E+02  0.67946656290E+02  0.00000000000E+00 0. -1.
         23    2    1    2    0    0  0.15151759246E+02  0.11744452347E+02  0.12471232009E+03  0.17761251688E+03  0.12500214158E+03 0.  0.
         23    2    1    2    0    0 -0.15151759246E+02 -0.11744452347E+02  0.10508109292E+02  0.93501225086E+02  0.90909574647E+02 0.  0.
          5    1    3    3  502    0  0.17173743942E+02  0.66084422770E+02  0.48549698964E+02  0.83912166479E+02  0.47000000000E+01 0. -1.
         -5    1    3    3    0  502 -0.20219846962E+01 -0.54339970422E+02  0.76162621125E+02  0.93700350396E+02  0.47000000000E+01 0. -1.
        -11    1    4    4    0    0  0.21416132245E+02 -0.11161263107E+02  0.39861104498E+02  0.46606138719E+02  0.00000000000E+00 0.  1.
         11    1    4    4    0    0 -0.36567891491E+02 -0.58318924058E+00 -0.29352995206E+02  0.46895086367E+02  0.00000000000E+00 0. -1.
<mgrwt>
<rscale>  0 0.11708155E+03</rscale>
<asrwt>0</asrwt>
<pdfrwt beam="2">  1        2 0.10453332E-01 0.12646360E+03</pdfrwt>
<pdfrwt beam="1">  1       -2 0.31256474E-01 0.12646360E+03</pdfrwt>
<totfact> 0.54308838E+03</totfact>
</mgrwt>
</event>
<event>
 8    1  0.8504141E-006  0.1252568E+03  0.7546771E-02  0.1251536E+00
          1   -1    0    0  501    0  0.00000000000E+00  0.00000000000E+00  0.26793336533E+03  0.26793336533E+03  0.00000000000E+00 0. -1.
         -1   -1    0    0    0  501 -0.00000000000E+00 -0.00000000000E+00 -0.67522414284E+02  0.67522414284E+02  0.00000000000E+00 0.  1.
         23    2    1    2    0    0 -0.74763423450E+01 -0.26822831773E+01  0.10506287956E+02  0.12569660342E+03  0.12500465466E+03 0.  0.
         23    2    1    2    0    0  0.74763423450E+01  0.26822831773E+01  0.18990466309E+03  0.20975917619E+03  0.88724520822E+02 0.  0.
          5    1    3    3  502    0  0.33297563024E+02  0.36349679073E+02  0.38302610636E+02  0.62603569016E+02  0.47000000000E+01 0. -1.
         -5    1    3    3    0  502 -0.40773905369E+02 -0.39031962250E+02 -0.27796322681E+02  0.63093034407E+02  0.47000000000E+01 0. -1.
        -11    1    4    4    0    0  0.39791651184E+02 -0.17239091526E+02  0.57498289936E+02  0.72018158309E+02  0.00000000000E+00 0.  1.
         11    1    4    4    0    0 -0.32315308839E+02  0.19921374703E+02  0.13240637316E+03  0.13774101788E+03  0.00000000000E+00 0. -1.
<mgrwt>
<rscale>  0 0.11502576E+03</rscale>
<asrwt>0</asrwt>
<pdfrwt beam="1">  1        1 0.41220517E-01 0.12525675E+03</pdfrwt>
<pdfrwt beam="2">  1       -1 0.10388064E-01 0.12525675E+03</pdfrwt>
<totfact> 0.55263573E+03</totfact>
</mgrwt>
</event>
<event>
 8    1  0.8504141E-006  0.2680678E+03  0.7546771E-02  0.1104511E+00
          1   -1    0    0  501    0  0.00000000000E+00  0.00000000000E+00  0.28127394798E+03  0.28127394798E+03  0.00000000000E+00 0. -1.
         -1   -1    0    0    0  501 -0.00000000000E+00 -0.00000000000E+00 -0.41215347416E+03  0.41215347416E+03  0.00000000000E+00 0.  1.
         23    2    1    2    0    0 -0.91831310379E+02  0.21863146662E+03 -0.28916739862E+03  0.39430713342E+03  0.12501049269E+03 0.  0.
         23    2    1    2    0    0  0.91831310379E+02 -0.21863146662E+03  0.15828787244E+03  0.29912028872E+03  0.90472033269E+02 0.  0.
          5    1    3    3  502    0  0.14894574308E+02  0.89814742832E+02 -0.54940237892E+02  0.10643803885E+03  0.47000000000E+01 0. -1.
         -5    1    3    3    0  502 -0.10672588469E+03  0.12881672379E+03 -0.23422716073E+03  0.28786909458E+03  0.47000000000E+01 0. -1.
        -11    1    4    4    0    0  0.10000867850E+03 -0.13058521934E+03  0.90771289350E+02  0.18786607532E+03  0.00000000000E+00 0.  1.
         11    1    4    4    0    0 -0.81773681165E+01 -0.88046247279E+02  0.67516583087E+02  0.11125421341E+03  0.00000000000E+00 0. -1.
<mgrwt>
<rscale>  0 0.26442912E+03</rscale>
<asrwt>0</asrwt>
<pdfrwt beam="1">  1        1 0.43272915E-01 0.26806777E+03</pdfrwt>
<pdfrwt beam="2">  1       -1 0.63408227E-01 0.26806777E+03</pdfrwt>
<totfact> 0.25002783E+02</totfact>
</mgrwt>
</event>
<event>
 8    1  0.8504141E-006  0.1650976E+03  0.7546771E-02  0.1189732E+00
          2   -1    0    0  501    0  0.00000000000E+00  0.00000000000E+00  0.51011034092E+03  0.51011034092E+03  0.00000000000E+00 0.  1.
         -2   -1    0    0    0  501 -0.00000000000E+00 -0.00000000000E+00 -0.46322342348E+02  0.46322342348E+02  0.00000000000E+00 0. -1.
         23    2    1    2    0    0  0.32162274504E+02 -0.10293243456E+03  0.24743388604E+03  0.29745715187E+03  0.12501092453E+03 0.  0.
         23    2    1    2    0    0 -0.32162274504E+02  0.10293243456E+03  0.21635411253E+03  0.25897553140E+03  0.92896317848E+02 0.  0.
          5    1    3    3  502    0  0.19981737211E+02 -0.41498079771E+02  0.22660642579E+03  0.23128753243E+03  0.47000000000E+01 0.  1.
         -5    1    3    3    0  502  0.12180537293E+02 -0.61434354784E+02  0.20827460249E+02  0.66169619441E+02  0.47000000000E+01 0.  1.
        -11    1    4    4    0    0 -0.65193942812E+02  0.70466919355E+02  0.14387204792E+03  0.17295954173E+03  0.00000000000E+00 0. -1.
         11    1    4    4    0    0  0.33031668309E+02  0.32465515200E+02  0.72482064608E+02  0.86015989666E+02  0.00000000000E+00 0.  1.
<mgrwt>
<rscale>  0 0.15908656E+03</rscale>
<asrwt>0</asrwt>
<pdfrwt beam="1">  1        2 0.78478510E-01 0.16509764E+03</pdfrwt>
<pdfrwt beam="2">  1       -2 0.71265146E-02 0.16509764E+03</pdfrwt>
<totfact> 0.66905061E+03</totfact>
</mgrwt>
</event>
<event>
 7    1  0.8504141E-006  0.1715400E+03  0.7546771E-02  0.1202445E+00
          1   -1    0    0  501    0  0.00000000000E+00  0.00000000000E+00  0.33018719027E+03  0.33018719027E+03  0.00000000000E+00 0. -1.
         -1   -1    0    0    0  501 -0.00000000000E+00 -0.00000000000E+00 -0.55671213874E+02  0.55671213874E+02  0.00000000000E+00 0.  1.
         23    2    1    2    0    0  0.18496049372E+02  0.11594911755E+02  0.12933628828E+03  0.16112940789E+03  0.93585601458E+02 0.  0.
          5    1    1    2  502    0 -0.73652458838E+02  0.48634278358E+02  0.89413385729E+02  0.12572518153E+03  0.47000000000E+01 0. -1.
         -5    1    1    2    0  502  0.55156409466E+02 -0.60229190113E+02  0.55766302384E+02  0.99003814716E+02  0.47000000000E+01 0.  1.
        -11    1    3    3    0    0 -0.66788315865E+01 -0.37221715727E+02  0.74324475623E+02  0.83391789702E+02  0.00000000000E+00 0.  1.
         11    1    3    3    0    0  0.25174880958E+02  0.48816627482E+02  0.55011812659E+02  0.77737618191E+02  0.00000000000E+00 0. -1.
<mgrwt>
<rscale>  0 0.14840639E+03</rscale>
<asrwt>0</asrwt>
<pdfrwt beam="1">  1        1 0.50798028E-01 0.17154002E+03</pdfrwt>
<pdfrwt beam="2">  1       -1 0.85648023E-02 0.17154002E+03</pdfrwt>
<totfact> 0.58297690E+03</totfact>
</mgrwt>
</event>
<event>
 8    1  0.8504141E-006  0.1885329E+03  0.7546771E-02  0.1164539E+00
         -1   -1    0    0    0  501 -0.00000000000E+00  0.00000000000E+00  0.58246721981E+02  0.58246721981E+02  0.00000000000E+00 0.  1.
          1   -1    0    0  501    0  0.00000000000E+00 -0.00000000000E+00 -0.55978937505E+03  0.55978937505E+03  0.00000000000E+00 0. -1.
         23    2    1    2    0    0 -0.57109979741E+02  0.12906897507E+03 -0.22003942921E+03  0.28976195616E+03  0.12499716285E+03 0.  0.
         23    2    1    2    0    0  0.57109979741E+02 -0.12906897507E+03 -0.28150322386E+03  0.32827414087E+03  0.92733469743E+02 0.  0.
          5    1    3    3  502    0 -0.94024266122E+01  0.44059537676E+02  0.39164574045E+01  0.45465119873E+02  0.47000000000E+01 0. -1.
         -5    1    3    3    0  502 -0.47707553129E+02  0.85009437390E+02 -0.22395588661E+03  0.24429683628E+03  0.47000000000E+01 0. -1.
        -11    1    4    4    0    0  0.11448943250E+02  0.14222915547E+02 -0.36091875892E+02  0.40447411952E+02  0.00000000000E+00 0. -1.
         11    1    4    4    0    0  0.45661036491E+02 -0.14329189061E+03 -0.24541134797E+03  0.28782672892E+03  0.00000000000E+00 0.  1.
<mgrwt>
<rscale>  0 0.18341451E+03</rscale>
<asrwt>0</asrwt>
<pdfrwt beam="2">  1        1 0.86121440E-01 0.18853286E+03</pdfrwt>
<pdfrwt beam="1">  1       -1 0.89610343E-02 0.18853286E+03</pdfrwt>
<totfact> 0.27644422E+03</totfact>
</mgrwt>
</event>
<event>
 8    1  0.8504141E-006  0.1407939E+03  0.7546771E-02  0.1226495E+00
          2   -1    0    0  501    0  0.00000000000E+00  0.00000000000E+00  0.43944922909E+03  0.43944922909E+03  0.00000000000E+00 0. -1.
         -2   -1    0    0    0  501 -0.00000000000E+00 -0.00000000000E+00 -0.39024304784E+02  0.39024304784E+02  0.00000000000E+00 0.  1.
         23    2    1    2    0    0  0.63018859187E+02 -0.15084510606E+02  0.14296686801E+03  0.20065507825E+03  0.12499606395E+03 0.  0.
         23    2    1    2    0    0 -0.63018859187E+02  0.15084510606E+02  0.25745805630E+03  0.27781845563E+03  0.81850622856E+02 0.  0.
          5    1    3    3  502    0  0.12450522609E+02  0.10045979015E+02 -0.21207319528E+02  0.26977353635E+02  0.47000000000E+01 0. -1.
         -5    1    3    3    0  502  0.50568336578E+02 -0.25130489621E+02  0.16417418754E+03  0.17367772461E+03  0.47000000000E+01 0. -1.
        -11    1    4    4    0    0 -0.19108467033E+02 -0.26518648773E+02  0.37743559655E+02  0.49929435612E+02  0.00000000000E+00 0.  1.
         11    1    4    4    0    0 -0.43910392154E+02  0.41603159379E+02  0.21971449665E+03  0.22788902002E+03  0.00000000000E+00 0. -1.
<mgrwt>
<rscale>  0 0.13064974E+03</rscale>
<asrwt>0</asrwt>
<pdfrwt beam="1">  1        2 0.67607570E-01 0.14079395E+03</pdfrwt>
<pdfrwt beam="2">  1       -2 0.60037395E-02 0.14079395E+03</pdfrwt>
<totfact> 0.10135080E+04</totfact>
</mgrwt>
</event>
<event>
 7    1  0.8504141E-006  0.1835147E+03  0.7546771E-02  0.1193451E+00
          2   -1    0    0  501    0  0.00000000000E+00  0.00000000000E+00  0.10383079642E+03  0.10383079642E+03  0.00000000000E+00 0. -1.
         -2   -1    0    0    0  501 -0.00000000000E+00 -0.00000000000E+00 -0.18748313929E+03  0.18748313929E+03  0.00000000000E+00 0.  1.
         23    2    1    2    0    0 -0.12413777864E+02  0.19455537871E+02 -0.31153593496E+02  0.10043767665E+03  0.92652904265E+02 0.  0.
          5    1    1    2  502    0  0.35769591287E+02  0.52016533921E+02  0.37445175734E+02  0.73548722951E+02  0.47000000000E+01 0. -1.
         -5    1    1    2    0  502 -0.23355813423E+02 -0.71472071791E+02 -0.89943925101E+02  0.11732753611E+03  0.47000000000E+01 0.  1.
        -11    1    3    3    0    0  0.36675379693E+02  0.13336651625E+02 -0.32745129146E+02  0.50943039122E+02  0.00000000000E+00 0.  1.
         11    1    3    3    0    0 -0.49089157557E+02  0.61188862458E+01  0.15915356501E+01  0.49494637530E+02  0.00000000000E+00 0. -1.
<mgrwt>
<rscale>  0 0.15586034E+03</rscale>
<asrwt>0</asrwt>
<pdfrwt beam="1">  1        2 0.15973969E-01 0.18351465E+03</pdfrwt>
<pdfrwt beam="2">  1       -2 0.28843559E-01 0.18351465E+03</pdfrwt>
<totfact> 0.38713292E+03</totfact>
</mgrwt>
</event>
<event>
 8    1  0.8504141E-006  0.3859540E+03  0.7546771E-02  0.1049635E+00
          1   -1    0    0  501    0  0.00000000000E+00  0.00000000000E+00  0.75704101399E+03  0.75704101399E+03  0.00000000000E+00 0. -1.
         -1   -1    0    0    0  501 -0.00000000000E+00 -0.00000000000E+00 -0.26001518631E+03  0.26001518631E+03  0.00000000000E+00 0.  1.
         23    2    1    2    0    0 -0.35076401944E+03 -0.10149064599E+03 -0.94253607651E+01  0.38606910584E+03  0.12499907400E+03 0.  0.
         23    2    1    2    0    0  0.35076401944E+03  0.10149064599E+03  0.50645118845E+03  0.63098709447E+03  0.91192974281E+02 0.  0.
          5    1    3    3  502    0 -0.17304973443E+03 -0.19944931387E+02  0.50638910496E+02  0.18146735279E+03  0.47000000000E+01 0. -1.
         -5    1    3    3    0  502 -0.17771428501E+03 -0.81545714605E+02 -0.60064271261E+02  0.20460175304E+03  0.47000000000E+01 0. -1.
        -11    1    4    4    0    0  0.82050494284E+02  0.51823288949E+02  0.18637692015E+03  0.21012922989E+03  0.00000000000E+00 0.  1.
         11    1    4    4    0    0  0.26871352515E+03  0.49667357043E+02  0.32007426829E+03  0.42085786458E+03  0.00000000000E+00 0. -1.
<mgrwt>
<rscale>  0 0.38353455E+03</rscale>
<asrwt>0</asrwt>
<pdfrwt beam="1">  1        1 0.11646785E+00 0.38595403E+03</pdfrwt>
<pdfrwt beam="2">  1       -1 0.40002337E-01 0.38595403E+03</pdfrwt>
<totfact> 0.15405060E+02</totfact>
</mgrwt>
</event>
<event>
 8    1  0.8504141E-006  0.1302888E+03  0.7546771E-02  0.1241893E+00
          4   -1    0    0  501    0  0.00000000000E+00  0.00000000000E+00  0.89380226855E+02  0.89380226855E+02  0.00000000000E+00 0.  1.
         -4   -1    0    0    0  501 -0.00000000000E+00 -0.00000000000E+00 -0.16479729698E+03  0.16479729698E+03  0.00000000000E+00 0. -1.
         23    2    1    2    0    0 -0.36242572465E+02  0.16975833809E+01 -0.88094685183E+02  0.15727633046E+03  0.12513498598E+03 0.  0.
         23    2    1    2    0    0  0.36242572465E+02 -0.16975833809E+01  0.12677615056E+02  0.96901193377E+02  0.88953434483E+02 0.  0.
          5    1    3    3  502    0 -0.81069457985E+01 -0.26772384727E+02 -0.10846946850E+03  0.11211689770E+03  0.47000000000E+01 0. -1.
         -5    1    3    3    0  502 -0.28135626666E+02  0.28469968108E+02  0.20374783314E+02  0.45159432758E+02  0.47000000000E+01 0. -1.
        -11    1    4    4    0    0  0.46250528417E+02  0.26616889197E+02  0.31008157789E+02  0.61717712359E+02  0.00000000000E+00 0.  1.
         11    1    4    4    0    0 -0.10007955952E+02 -0.28314472578E+02 -0.18330542733E+02  0.35183481018E+02  0.00000000000E+00 0. -1.
<mgrwt>
<rscale>  0 0.12073282E+03</rscale>
<asrwt>0</asrwt>
<pdfrwt beam="1">  1        4 0.13750804E-01 0.13028880E+03</pdfrwt>
<pdfrwt beam="2">  1       -4 0.25353430E-01 0.13028880E+03</pdfrwt>
<totfact> 0.10480224E+03</totfact>
</mgrwt>
</event>
<event>
 8    1  0.8504141E-006  0.1261847E+03  0.7546771E-02  0.1247118E+00
          2   -1    0    0  501    0  0.00000000000E+00  0.00000000000E+00  0.25517447397E+02  0.25517447397E+02  0.00000000000E+00 0. -1.
         -2   -1    0    0    0  501 -0.00000000000E+00 -0.00000000000E+00 -0.93286006386E+03  0.93286006386E+03  0.00000000000E+00 0.  1.
         23    2    1    2    0    0 -0.22117333852E+00  0.17188956818E+02 -0.81853047616E+03  0.82819968045E+03  0.12500824426E+03 0.  0.
         23    2    1    2    0    0  0.22117333852E+00 -0.17188956818E+02 -0.88812140298E+02  0.13017783081E+03  0.93611763231E+02 0.  0.
          5    1    3    3  502    0  0.43745520022E+01  0.37196058175E+01 -0.81169127365E+03  0.81172519111E+03  0.47000000000E+01 0. -1.
         -5    1    3    3    0  502 -0.45957253407E+01  0.13469351001E+02 -0.68392025159E+01  0.16474489335E+02  0.47000000000E+01 0. -1.
        -11    1    4    4    0    0  0.36891911176E+02 -0.38393861489E+00 -0.50881305372E+01  0.37243114685E+02  0.00000000000E+00 0. -1.
         11    1    4    4    0    0 -0.36670737837E+02 -0.16805018203E+02 -0.83724009761E+02  0.92934716123E+02  0.00000000000E+00 0.  1.
<mgrwt>
<rscale>  0 0.11759477E+03</rscale>
<asrwt>0</asrwt>
<pdfrwt beam="1">  1        2 0.39257605E-02 0.12618467E+03</pdfrwt>
<pdfrwt beam="2">  1       -2 0.14351695E+00 0.12618467E+03</pdfrwt>
<totfact> 0.74903166E+02</totfact>
</mgrwt>
</event>
<event>
 8    1  0.8504141E-006  0.1322225E+03  0.7546771E-02  0.1237183E+00
          2   -1    0    0  501    0  0.00000000000E+00  0.00000000000E+00  0.25862364901E+03  0.25862364901E+03  0.00000000000E+00 0. -1.
         -2   -1    0    0    0  501 -0.00000000000E+00 -0.00000000000E+00 -0.54092888920E+02  0.54092888920E+02  0.00000000000E+00 0.  1.
         23    2    1    2    0    0  0.13061572994E+02 -0.41061256948E+02  0.90165563502E+02  0.16003940400E+03  0.12500460183E+03 0.  0.
         23    2    1    2    0    0 -0.13061572994E+02  0.41061256948E+02  0.11436519659E+03  0.15267713394E+03  0.91511078701E+02 0.  0.
          5    1    3    3  502    0 -0.53951613114E+02 -0.25086353022E+02  0.23762512857E+02  0.64240553257E+02  0.47000000000E+01 0. -1.
         -5    1    3    3    0  502  0.67013186108E+02 -0.15974903926E+02  0.66403050645E+02  0.95798850738E+02  0.47000000000E+01 0. -1.
        -11    1    4    4    0    0  0.34439884370E+02  0.87166712520E+01  0.16464322085E+02  0.39155585743E+02  0.00000000000E+00 0.  1.
         11    1    4    4    0    0 -0.47501457365E+02  0.32344585696E+02  0.97900874505E+02  0.11352154819E+03  0.00000000000E+00 0. -1.
<mgrwt>
<rscale>  0 0.12365686E+03</rscale>
<asrwt>0</asrwt>
<pdfrwt beam="1">  1        2 0.39788253E-01 0.13222247E+03</pdfrwt>
<pdfrwt beam="2">  1       -2 0.83219830E-02 0.13222247E+03</pdfrwt>
<totfact> 0.10754118E+04</totfact>
</mgrwt>
</event>
<event>
 8    1  0.8504141E-006  0.1770671E+03  0.7546771E-02  0.1176812E+00
          2   -1    0    0  501    0  0.00000000000E+00  0.00000000000E+00  0.12305062598E+04  0.12305062598E+04  0.00000000000E+00 0. -1.
         -2   -1    0    0    0  501 -0.00000000000E+00 -0.00000000000E+00 -0.22472357927E+02  0.22472357927E+02  0.00000000000E+00 0.  1.
         23    2    1    2    0    0  0.11580664929E+03  0.48168893263E+02  0.58632609123E+03  0.61247941530E+03  0.12498530562E+03 0.  0.
         23    2    1    2    0    0 -0.11580664929E+03 -0.48168893263E+02  0.62170781064E+03  0.64049920242E+03  0.89371159708E+02 0.  0.
          5    1    3    3  502    0 -0.89259576388E+01 -0.16838600073E+02  0.20629073821E+03  0.20722251288E+03  0.47000000000E+01 0. -1.
         -5    1    3    3    0  502  0.12473260693E+03  0.65007493336E+02  0.38003535301E+03  0.40525690242E+03  0.47000000000E+01 0. -1.
        -11    1    4    4    0    0  0.13860857870E+02 -0.14458408230E+02  0.81808845942E+02  0.84225033237E+02  0.00000000000E+00 0.  1.
         11    1    4    4    0    0 -0.12966750716E+03 -0.33710485033E+02  0.53989896470E+03  0.55627416918E+03  0.00000000000E+00 0. -1.
<mgrwt>
<rscale>  0 0.17099742E+03</rscale>
<asrwt>0</asrwt>
<pdfrwt beam="1">  1        2 0.18930860E+00 0.17706707E+03</pdfrwt>
<pdfrwt beam="2">  1       -2 0.34572868E-02 0.17706707E+03</pdfrwt>
<totfact> 0.64820714E+03</totfact>
</mgrwt>
</event>
<event>
 8    1  0.8504141E-006  0.1301211E+03  0.7546771E-02  0.1240883E+00
         -2   -1    0    0    0  501 -0.00000000000E+00  0.00000000000E+00  0.34466343934E+02  0.34466343934E+02  0.00000000000E+00 0.  1.
          2   -1    0    0  501    0  0.00000000000E+00 -0.00000000000E+00 -0.37956248653E+03  0.37956248653E+03  0.00000000000E+00 0. -1.
         23    2    1    2    0    0 -0.33396290820E+02  0.13970034046E+02 -0.18788712780E+03  0.22854557388E+03  0.12498412882E+03 0.  0.
         23    2    1    2    0    0  0.33396290820E+02 -0.13970034046E+02 -0.15720901480E+03  0.18548325658E+03  0.91536277212E+02 0.  0.
          5    1    3    3  502    0  0.43397971424E+02 -0.75002424810E+01 -0.36562913684E+02  0.57433215285E+02  0.47000000000E+01 0.  1.
         -5    1    3    3    0  502 -0.76794262244E+02  0.21470276527E+02 -0.15132421411E+03  0.17111235860E+03  0.47000000000E+01 0.  1.
        -11    1    4    4    0    0 -0.26433020378E+02  0.62339887461E+00 -0.92284292982E+02  0.95997312064E+02  0.00000000000E+00 0. -1.
         11    1    4    4    0    0  0.59829311198E+02 -0.14593432921E+02 -0.64924721814E+02  0.89485944513E+02  0.00000000000E+00 0.  1.
<mgrwt>
<rscale>  0 0.12135223E+03</rscale>
<asrwt>0</asrwt>
<pdfrwt beam="2">  1        2 0.58394233E-01 0.13012112E+03</pdfrwt>
<pdfrwt beam="1">  1       -2 0.53025141E-02 0.13012112E+03</pdfrwt>
<totfact> 0.14219038E+04</totfact>
</mgrwt>
</event>
<event>
 8    1  0.8504141E-006  0.2853255E+03  0.7546771E-02  0.1094803E+00
         -2   -1    0    0    0  501 -0.00000000000E+00  0.00000000000E+00  0.17165151036E+04  0.17165151036E+04  0.00000000000E+00 0.  1.
          2   -1    0    0  501    0  0.00000000000E+00 -0.00000000000E+00 -0.71497582479E+02  0.71497582479E+02  0.00000000000E+00 0. -1.
         23    2    1    2    0    0  0.23026225190E+03  0.11298206701E+03  0.13796666205E+04  0.14088614636E+04  0.12499995100E+03 0.  0.
         23    2    1    2    0    0 -0.23026225190E+03 -0.11298206701E+03  0.26535090067E+03  0.37915122253E+03  0.86941917088E+02 0.  0.
          5    1    3    3  502    0  0.98611057308E+02  0.41056220355E+02  0.29339820214E+03  0.31227287565E+03  0.47000000000E+01 0.  1.
         -5    1    3    3    0  502  0.13165119459E+03  0.71925846659E+02  0.10862684183E+04  0.10965885879E+04  0.47000000000E+01 0.  1.
        -11    1    4    4    0    0 -0.90101877429E+02 -0.54959062024E+02  0.52776342641E+02  0.11800080151E+03  0.00000000000E+00 0. -1.
         11    1    4    4    0    0 -0.14016037447E+03 -0.58023004990E+02  0.21257455803E+03  0.26115042102E+03  0.00000000000E+00 0.  1.
<mgrwt>
<rscale>  0 0.28162838E+03</rscale>
<asrwt>0</asrwt>
<pdfrwt beam="2">  1        2 0.10999629E-01 0.28532550E+03</pdfrwt>
<pdfrwt beam="1">  1       -2 0.26407921E+00 0.28532550E+03</pdfrwt>
<totfact> 0.33650083E+01</totfact>
</mgrwt>
</event>
<event>
 7    1  0.8504141E-006  0.1669651E+03  0.7546771E-02  0.1199326E+00
          3   -1    0    0  501    0  0.00000000000E+00  0.00000000000E+00  0.76616178879E+02  0.76616178879E+02  0.00000000000E+00 0. -1.
         -3   -1    0    0    0  501 -0.00000000000E+00 -0.00000000000E+00 -0.29587019139E+03  0.29587019139E+03  0.00000000000E+00 0.  1.
         23    2    1    2    0    0 -0.61537435794E+02 -0.15607682758E+02 -0.21308622129E+02  0.11352743572E+03  0.91673145029E+02 0.  0.
          5    1    1    2  502    0  0.25114160993E+02 -0.43090746511E+02 -0.90219196294E+00  0.50104265962E+02  0.47000000000E+01 0. -1.
         -5    1    1    2    0  502  0.36423274801E+02  0.58698429269E+02 -0.19704319842E+03  0.20885466859E+03  0.47000000000E+01 0.  1.
        -11    1    3    3    0    0 -0.78511961865E+01 -0.45099116238E+02  0.65372853733E+01  0.46241838924E+02  0.00000000000E+00 0. -1.
         11    1    3    3    0    0 -0.53686239608E+02  0.29491433480E+02 -0.27845907502E+02  0.67285596799E+02  0.00000000000E+00 0.  1.
<mgrwt>
<rscale>  0 0.15093763E+03</rscale>
<asrwt>0</asrwt>
<pdfrwt beam="1">  1        3 0.11787104E-01 0.16696512E+03</pdfrwt>
<pdfrwt beam="2">  1       -3 0.45518493E-01 0.16696512E+03</pdfrwt>
<totfact> 0.64343768E+02</totfact>
</mgrwt>
</event>
<event>
 8    1  0.8504141E-006  0.1438103E+03  0.7546771E-02  0.1221617E+00
          2   -1    0    0  501    0  0.00000000000E+00  0.00000000000E+00  0.51702217356E+02  0.51702217356E+02  0.00000000000E+00 0. -1.
         -2   -1    0    0    0  501 -0.00000000000E+00 -0.00000000000E+00 -0.32442442276E+03  0.32442442276E+03  0.00000000000E+00 0.  1.
         23    2    1    2    0    0 -0.59454937820E+02  0.38997705200E+02 -0.19677642528E+03  0.24372601832E+03  0.12500279924E+03 0.  0.
         23    2    1    2    0    0  0.59454937820E+02 -0.38997705200E+02 -0.75945780117E+02  0.13240062179E+03  0.81892933091E+02 0.  0.
          5    1    3    3  502    0 -0.55043719091E+02  0.37229970831E+02 -0.23983411817E+02  0.70803783669E+02  0.47000000000E+01 0.  1.
         -5    1    3    3    0  502 -0.44112187295E+01  0.17677343690E+01 -0.17279301347E+03  0.17292223465E+03  0.47000000000E+01 0.  1.
        -11    1    4    4    0    0  0.77725290081E+00 -0.10706741460E+02  0.16272897547E+02  0.19494759022E+02  0.00000000000E+00 0. -1.
         11    1    4    4    0    0  0.58677684920E+02 -0.28290963739E+02 -0.92218677664E+02  0.11290586277E+03  0.00000000000E+00 0.  1.
<mgrwt>
<rscale>  0 0.13401501E+03</rscale>
<asrwt>0</asrwt>
<pdfrwt beam="1">  1        2 0.79541871E-02 0.14381033E+03</pdfrwt>
<pdfrwt beam="2">  1       -2 0.49911451E-01 0.14381033E+03</pdfrwt>
<totfact> 0.31735001E+03</totfact>
</mgrwt>
</event>
<event>
 7    1  0.8504141E-006  0.1331353E+03  0.7546771E-02  0.1241064E+00
         -1   -1    0    0    0  501 -0.00000000000E+00  0.00000000000E+00  0.82251092524E+02  0.82251092524E+02  0.00000000000E+00 0.  1.
          1   -1    0    0  501    0  0.00000000000E+00 -0.00000000000E+00 -0.21792875687E+03  0.21792875687E+03  0.00000000000E+00 0. -1.
         23    2    1    2    0    0 -0.14636085898E+02 -0.12098195261E+02 -0.13964412434E+03  0.16698550510E+03  0.89571737236E+02 0.  0.
          5    1    1    2  502    0  0.47124775995E+02  0.59129261341E+02  0.35098044446E+01  0.75838135437E+02  0.47000000000E+01 0.  1.
         -5    1    1    2    0  502 -0.32488690097E+02 -0.47031066080E+02  0.45665554481E+00  0.57356208863E+02  0.47000000000E+01 0. -1.
        -11    1    3    3    0    0 -0.51198193164E+01  0.35132198782E+02 -0.94546071657E+02  0.10099229479E+03  0.00000000000E+00 0.  1.
         11    1    3    3    0    0 -0.95162665821E+01 -0.47230394043E+02 -0.45098052680E+02  0.65993210307E+02  0.00000000000E+00 0. -1.
<mgrwt>
<rscale>  0 0.12124090E+03</rscale>
<asrwt>0</asrwt>
<pdfrwt beam="2">  1        1 0.33527501E-01 0.13313527E+03</pdfrwt>
<pdfrwt beam="1">  1       -1 0.12654014E-01 0.13313527E+03</pdfrwt>
<totfact> 0.52876034E+03</totfact>
</mgrwt>
</event>
<event>
 8    1  0.8504141E-006  0.2009133E+03  0.7546771E-02  0.1153022E+00
         -1   -1    0    0    0  501 -0.00000000000E+00  0.00000000000E+00  0.32134824037E+02  0.32134824037E+02  0.00000000000E+00 0.  1.
          1   -1    0    0  501    0  0.00000000000E+00 -0.00000000000E+00 -0.11614705880E+04  0.11614705880E+04  0.00000000000E+00 0. -1.
         23    2    1    2    0    0  0.14758637995E+03 -0.54424970620E+02 -0.51815450400E+03  0.55574295856E+03  0.12498931551E+03 0.  0.
         23    2    1    2    0    0 -0.14758637995E+03  0.54424970620E+02 -0.61118125999E+03  0.63786245351E+03  0.92639948527E+02 0.  0.
          5    1    3    3  502    0  0.11203570125E+02  0.25771002643E+02 -0.18164763702E+03  0.18386848179E+03  0.47000000000E+01 0.  1.
         -5    1    3    3    0  502  0.13638280982E+03 -0.80195973263E+02 -0.33650686698E+03  0.37187447677E+03  0.47000000000E+01 0.  1.
        -11    1    4    4    0    0  0.11345158798E+02  0.14525811628E+02 -0.52212730418E+02  0.55370398674E+02  0.00000000000E+00 0.  1.
         11    1    4    4    0    0 -0.15893153875E+03  0.39899158992E+02 -0.55896852957E+03  0.58249205484E+03  0.00000000000E+00 0. -1.
<mgrwt>
<rscale>  0 0.19615724E+03</rscale>
<asrwt>0</asrwt>
<pdfrwt beam="2">  1        1 0.17868778E+00 0.20091328E+03</pdfrwt>
<pdfrwt beam="1">  1       -1 0.49438191E-02 0.20091328E+03</pdfrwt>
<totfact> 0.21770944E+03</totfact>
</mgrwt>
</event>
<event>
 8    1  0.8504141E-006  0.1269533E+03  0.7546771E-02  0.1247540E+00
         -2   -1    0    0    0  501 -0.00000000000E+00  0.00000000000E+00  0.20263241469E+03  0.20263241469E+03  0.00000000000E+00 0.  1.
          2   -1    0    0  501    0  0.00000000000E+00 -0.00000000000E+00 -0.59520455696E+02  0.59520455696E+02  0.00000000000E+00 0. -1.
         23    2    1    2    0    0  0.10027464368E+02  0.19734576500E+02  0.81048543076E+02  0.15061875157E+03  0.12500855347E+03 0.  0.
         23    2    1    2    0    0 -0.10027464368E+02 -0.19734576500E+02  0.62063415920E+02  0.11153411881E+03  0.89988824376E+02 0.  0.
          5    1    3    3  502    0 -0.40874115911E+02  0.34867327690E+00 -0.11858651156E+02  0.42819768003E+02  0.47000000000E+01 0. -1.
         -5    1    3    3    0  502  0.50901580280E+02  0.19385903223E+02  0.92907194233E+02  0.10779898357E+03  0.47000000000E+01 0. -1.
        -11    1    4    4    0    0  0.10490399209E+02 -0.52756942053E+02  0.36544022771E+02  0.65029293481E+02  0.00000000000E+00 0.  1.
         11    1    4    4    0    0 -0.20517863578E+02  0.33022365553E+02  0.25519393150E+02  0.46504825333E+02  0.00000000000E+00 0. -1.
<mgrwt>
<rscale>  0 0.11734632E+03</rscale>
<asrwt>0</asrwt>
<pdfrwt beam="2">  1        2 0.91569933E-02 0.12695331E+03</pdfrwt>
<pdfrwt beam="1">  1       -2 0.31174217E-01 0.12695331E+03</pdfrwt>
<totfact> 0.64214141E+03</totfact>
</mgrwt>
</event>
<event>
 8    1  0.8504141E-006  0.1308967E+03  0.7546771E-02  0.1239414E+00
         -2   -1    0    0    0  501 -0.00000000000E+00  0.00000000000E+00  0.59826835589E+02  0.59826835589E+02  0.00000000000E+00 0.  1.
          2   -1    0    0  501    0  0.00000000000E+00 -0.00000000000E+00 -0.23067041847E+03  0.23067041847E+03  0.00000000000E+00 0. -1.
         23    2    1    2    0    0  0.13580117967E+02  0.36378079133E+02 -0.68756795405E+02  0.14785612126E+03  0.12500460565E+03 0.  0.
         23    2    1    2    0    0 -0.13580117967E+02 -0.36378079133E+02 -0.10208678748E+03  0.14264113280E+03  0.91744189703E+02 0.  0.
          5    1    3    3  502    0 -0.61399679589E+01  0.22382907670E+01  0.35444158952E+02  0.36346768163E+02  0.47000000000E+01 0.  1.
         -5    1    3    3    0  502  0.19720085925E+02  0.34139788366E+02 -0.10420095436E+03  0.11150935309E+03  0.47000000000E+01 0.  1.
        -11    1    4    4    0    0  0.29361638393E+02 -0.30279835307E+02 -0.87060497748E+02  0.96739363774E+02  0.00000000000E+00 0. -1.
         11    1    4    4    0    0 -0.42941756359E+02 -0.60982438258E+01 -0.15026289733E+02  0.45901769030E+02  0.00000000000E+00 0.  1.
<mgrwt>
<rscale>  0 0.12226060E+03</rscale>
<asrwt>0</asrwt>
<pdfrwt beam="2">  1        2 0.35487757E-01 0.13089666E+03</pdfrwt>
<pdfrwt beam="1">  1       -2 0.92041286E-02 0.13089666E+03</pdfrwt>
<totfact> 0.10380213E+04</totfact>
</mgrwt>
</event>
<event>
 8    1  0.8504141E-006  0.1422871E+03  0.7546771E-02  0.1222260E+00
         -2   -1    0    0    0  501 -0.00000000000E+00  0.00000000000E+00  0.30755450428E+02  0.30755450428E+02  0.00000000000E+00 0. -1.
          2   -1    0    0  501    0  0.00000000000E+00 -0.00000000000E+00 -0.52002407187E+03  0.52002407187E+03  0.00000000000E+00 0.  1.
         23    2    1    2    0    0 -0.22341805850E+02 -0.64197905898E+02 -0.28529179858E+03  0.31880564241E+03  0.12500039954E+03 0.  0.
         23    2    1    2    0    0  0.22341805850E+02  0.64197905898E+02 -0.20397682286E+03  0.23197387989E+03  0.87090810512E+02 0.  0.
          5    1    3    3  502    0 -0.22557788294E+02  0.35492978357E+02 -0.77986182151E+02  0.88727334750E+02  0.47000000000E+01 0. -1.
         -5    1    3    3    0  502  0.21598244339E+00 -0.99690884255E+02 -0.20730561643E+03  0.23007830766E+03  0.47000000000E+01 0. -1.
        -11    1    4    4    0    0  0.20382166617E+02  0.95044179897E+00 -0.22176344158E+01  0.20524472174E+02  0.00000000000E+00 0. -1.
         11    1    4    4    0    0  0.19596392336E+01  0.63247464099E+02 -0.20175918845E+03  0.21144940772E+03  0.00000000000E+00 0.  1.
<mgrwt>
<rscale>  0 0.13356508E+03</rscale>
<asrwt>0</asrwt>
<pdfrwt beam="2">  1        2 0.80003705E-01 0.14228713E+03</pdfrwt>
<pdfrwt beam="1">  1       -2 0.47316076E-02 0.14228713E+03</pdfrwt>
<totfact> 0.12083965E+04</totfact>
</mgrwt>
</event>
<event>
 8    1  0.8504141E-006  0.1371788E+03  0.7546771E-02  0.1229079E+00
         -1   -1    0    0    0  501 -0.00000000000E+00  0.00000000000E+00  0.66766915482E+02  0.66766915482E+02  0.00000000000E+00 0.  1.
          1   -1    0    0  501    0  0.00000000000E+00 -0.00000000000E+00 -0.29013163224E+03  0.29013163224E+03  0.00000000000E+00 0. -1.
         23    2    1    2    0    0 -0.40462249208E+02 -0.39423729823E+02 -0.37116687837E+02  0.14211143062E+03  0.12500634429E+03 0.  0.
         23    2    1    2    0    0  0.40462249208E+02  0.39423729823E+02 -0.18624802892E+03  0.21478711710E+03  0.90850169578E+02 0.  0.
          5    1    3    3  502    0 -0.19231011110E+02  0.45265154821E+02 -0.86386367517E+01  0.50154581787E+02  0.47000000000E+01 0.  1.
         -5    1    3    3    0  502 -0.21231238098E+02 -0.84688884644E+02 -0.28478051085E+02  0.91956848831E+02  0.47000000000E+01 0.  1.
        -11    1    4    4    0    0  0.36991332016E+02  0.62086096225E+02 -0.87867821375E+02  0.11377080479E+03  0.00000000000E+00 0.  1.
         11    1    4    4    0    0  0.34709171916E+01 -0.22662366402E+02 -0.98380207543E+02  0.10101631231E+03  0.00000000000E+00 0. -1.
<mgrwt>
<rscale>  0 0.12891188E+03</rscale>
<asrwt>0</asrwt>
<pdfrwt beam="2">  1        1 0.44635635E-01 0.13717875E+03</pdfrwt>
<pdfrwt beam="1">  1       -1 0.10271833E-01 0.13717875E+03</pdfrwt>
<totfact> 0.51242186E+03</totfact>
</mgrwt>
</event>
<event>
 8    1  0.8504141E-006  0.1615308E+03  0.7546771E-02  0.1194368E+00
          2   -1    0    0  501    0  0.00000000000E+00  0.00000000000E+00  0.21297453816E+03  0.21297453816E+03  0.00000000000E+00 0.  1.
         -2   -1    0    0    0  501 -0.00000000000E+00 -0.00000000000E+00 -0.10610662693E+03  0.10610662693E+03  0.00000000000E+00 0. -1.
         23    2    1    2    0    0 -0.35999396638E+01 -0.10224502817E+03  0.39896722100E+02  0.16638492647E+03  0.12500075988E+03 0.  0.
         23    2    1    2    0    0  0.35999396638E+01  0.10224502817E+03  0.66971189121E+02  0.15269623862E+03  0.91454883772E+02 0.  0.
          5    1    3    3  502    0 -0.59480532057E+02 -0.21916624693E+02  0.15940925378E+02  0.65532245755E+02  0.47000000000E+01 0. -1.
         -5    1    3    3    0  502  0.55880592393E+02 -0.80328403473E+02  0.23955796722E+02  0.10085268072E+03  0.47000000000E+01 0. -1.
        -11    1    4    4    0    0 -0.29299693484E+02  0.29140643690E+01  0.29150728787E+02  0.41433426098E+02  0.00000000000E+00 0.  1.
         11    1    4    4    0    0  0.32899633148E+02  0.99330963798E+02  0.37820460334E+02  0.11126281252E+03  0.00000000000E+00 0. -1.
<mgrwt>
<rscale>  0 0.15507817E+03</rscale>
<asrwt>0</asrwt>
<pdfrwt beam="1">  1        2 0.32765313E-01 0.16153079E+03</pdfrwt>
<pdfrwt beam="2">  1       -2 0.16324097E-01 0.16153079E+03</pdfrwt>
<totfact> 0.45739175E+03</totfact>
</mgrwt>
</event>
<event>
 8    1  0.8504141E-006  0.1912247E+03  0.7546771E-02  0.1162747E+00
          2   -1    0    0  501    0  0.00000000000E+00  0.00000000000E+00  0.65376180907E+03  0.65376180907E+03  0.00000000000E+00 0. -1.
         -2   -1    0    0    0  501 -0.00000000000E+00 -0.00000000000E+00 -0.50331525972E+02  0.50331525972E+02  0.00000000000E+00 0.  1.
         23    2    1    2    0    0 -0.11938457393E+03  0.81784608765E+02  0.27617129480E+03  0.33591287276E+03  0.12500190117E+03 0.  0.
         23    2    1    2    0    0  0.11938457393E+03 -0.81784608765E+02  0.32725898830E+03  0.36818046228E+03  0.86700684288E+02 0.  0.
          5    1    3    3  502    0 -0.10021906262E+03  0.93982290387E+01  0.89681791704E+02  0.13489663074E+03  0.47000000000E+01 0. -1.
         -5    1    3    3    0  502 -0.19165511306E+02  0.72386379726E+02  0.18648950309E+03  0.20101624202E+03  0.47000000000E+01 0. -1.
        -11    1    4    4    0    0  0.12339102905E+03 -0.94387840784E+02  0.29766810544E+03  0.33576883645E+03  0.00000000000E+00 0. -1.
         11    1    4    4    0    0 -0.40064551208E+01  0.12603232020E+02  0.29590882862E+02  0.32411625824E+02  0.00000000000E+00 0.  1.
<mgrwt>
<rscale>  0 0.18532511E+03</rscale>
<asrwt>0</asrwt>
<pdfrwt beam="1">  1        2 0.10057873E+00 0.19122467E+03</pdfrwt>
<pdfrwt beam="2">  1       -2 0.77433122E-02 0.19122467E+03</pdfrwt>
<totfact> 0.44632392E+03</totfact>
</mgrwt>
</event>
<event>
 8    1  0.8504141E-006  0.1146186E+03  0.7546771E-02  0.1260823E+00
         -1   -1    0    0    0  501 -0.00000000000E+00  0.00000000000E+00  0.74141069627E+02  0.74141069627E+02  0.00000000000E+00 0.  1.
          1   -1    0    0  501    0  0.00000000000E+00 -0.00000000000E+00 -0.15290791666E+03  0.15290791666E+03  0.00000000000E+00 0. -1.
         23    2    1    2    0    0 -0.14710188168E+02  0.14545862310E+02 -0.28906135058E+02  0.11820737185E+03  0.11273618039E+03 0.  0.
         23    2    1    2    0    0  0.14710188168E+02 -0.14545862310E+02 -0.49860711972E+02  0.10884161444E+03  0.94511558491E+02 0.  0.
          5    1    3    3  502    0 -0.38485236422E+02  0.54731590674E+02 -0.23012803311E+02  0.70910785896E+02  0.47000000000E+01 0. -1.
         -5    1    3    3    0  502  0.23775048254E+02 -0.40185728364E+02 -0.58933317465E+01  0.47296585952E+02  0.47000000000E+01 0.  1.
        -11    1    4    4    0    0 -0.28404827750E+02  0.23504299685E+02 -0.31455874347E+02  0.48463990489E+02  0.00000000000E+00 0. -1.
         11    1    4    4    0    0  0.43115015918E+02 -0.38050161995E+02 -0.18404837624E+02  0.60377623946E+02  0.00000000000E+00 0.  1.
<mgrwt>
<rscale>  0 0.10986342E+03</rscale>
<asrwt>0</asrwt>
<pdfrwt beam="2">  1        1 0.23524295E-01 0.11461858E+03</pdfrwt>
<pdfrwt beam="1">  1       -1 0.11406318E-01 0.11461858E+03</pdfrwt>
<totfact> 0.95376426E+03</totfact>
</mgrwt>
</event>
<event>
 8    1  0.8504141E-006  0.2026219E+03  0.7546771E-02  0.1152086E+00
          2   -1    0    0  501    0  0.00000000000E+00  0.00000000000E+00  0.59266007353E+03  0.59266007353E+03  0.00000000000E+00 0. -1.
         -2   -1    0    0    0  501 -0.00000000000E+00 -0.00000000000E+00 -0.63397812232E+02  0.63397812232E+02  0.00000000000E+00 0.  1.
         23    2    1    2    0    0 -0.11211837327E+03 -0.11341685293E+03  0.23724697502E+03  0.31199641375E+03  0.12498689084E+03 0.  0.
         23    2    1    2    0    0  0.11211837327E+03  0.11341685293E+03  0.29201528628E+03  0.34406147201E+03  0.87586853760E+02 0.  0.
          5    1    3    3  502    0 -0.12218222753E+03 -0.11641126605E+03  0.15576419481E+03  0.22970558107E+03  0.47000000000E+01 0.  1.
         -5    1    3    3    0  502  0.10063854261E+02  0.29944131203E+01  0.81482780209E+02  0.82290832680E+02  0.47000000000E+01 0.  1.
        -11    1    4    4    0    0  0.67434913984E+02  0.78852384437E+02  0.25809261238E+03  0.27816714888E+03  0.00000000000E+00 0. -1.
         11    1    4    4    0    0  0.44683459287E+02  0.34564468493E+02  0.33922673900E+02  0.65894323129E+02  0.00000000000E+00 0.  1.
<mgrwt>
<rscale>  0 0.19724322E+03</rscale>
<asrwt>0</asrwt>
<pdfrwt beam="1">  1        2 0.91178469E-01 0.20262190E+03</pdfrwt>
<pdfrwt beam="2">  1       -2 0.97535100E-02 0.20262190E+03</pdfrwt>
<totfact> 0.34917005E+03</totfact>
</mgrwt>
</event>
<event>
 8    1  0.8504141E-006  0.1288250E+03  0.7546771E-02  0.1242764E+00
         -2   -1    0    0    0  501 -0.00000000000E+00  0.00000000000E+00  0.34961043923E+02  0.34961043923E+02  0.00000000000E+00 0. -1.
          2   -1    0    0  501    0  0.00000000000E+00 -0.00000000000E+00 -0.54940166350E+03  0.54940166350E+03  0.00000000000E+00 0.  1.
         23    2    1    2    0    0  0.25367205145E+02  0.18057696372E+02 -0.11346392273E+03  0.17166811665E+03  0.12500521996E+03 0.  0.
         23    2    1    2    0    0 -0.25367205145E+02 -0.18057696372E+02 -0.40097669684E+03  0.41269459077E+03  0.92546952127E+02 0.  0.
          5    1    3    3  502    0 -0.17689047583E+02  0.52818948329E+02 -0.13804927749E+02  0.57579594798E+02  0.47000000000E+01 0.  1.
         -5    1    3    3    0  502  0.43056252728E+02 -0.34761251957E+02 -0.99658994984E+02  0.11408852185E+03  0.47000000000E+01 0.  1.
        -11    1    4    4    0    0  0.34962599529E+02 -0.50587558677E+01 -0.12458313925E+03  0.12949491481E+03  0.00000000000E+00 0.  1.
         11    1    4    4    0    0 -0.60329804674E+02 -0.12998940504E+02 -0.27639355759E+03  0.28319967596E+03  0.00000000000E+00 0. -1.
<mgrwt>
<rscale>  0 0.12020220E+03</rscale>
<asrwt>0</asrwt>
<pdfrwt beam="2">  1        2 0.84523328E-01 0.12882500E+03</pdfrwt>
<pdfrwt beam="1">  1       -2 0.53786224E-02 0.12882500E+03</pdfrwt>
<totfact> 0.93134677E+03</totfact>
</mgrwt>
</event>
<event>
 8    1  0.8504141E-006  0.1316841E+03  0.7546771E-02  0.1237440E+00
          2   -1    0    0  501    0  0.00000000000E+00  0.00000000000E+00  0.45185249351E+02  0.45185249351E+02  0.00000000000E+00 0. -1.
         -2   -1    0    0    0  501 -0.00000000000E+00 -0.00000000000E+00 -0.47342634221E+03  0.47342634221E+03  0.00000000000E+00 0.  1.
         23    2    1    2    0    0 -0.29032772865E+02 -0.29472890014E+02 -0.38687566410E+03  0.40867282640E+03  0.12501658456E+03 0.  0.
         23    2    1    2    0    0  0.29032772865E+02  0.29472890014E+02 -0.41365428753E+02  0.10993876516E+03  0.93079966927E+02 0.  0.
          5    1    3    3  502    0 -0.74756112997E+02 -0.32446517481E+02 -0.29219183702E+03  0.30337998046E+03  0.47000000000E+01 0. -1.
         -5    1    3    3    0  502  0.45723340132E+02  0.29736274671E+01 -0.94683827089E+02  0.10529284594E+03  0.47000000000E+01 0. -1.
        -11    1    4    4    0    0 -0.41139269802E+01  0.25291908133E+02 -0.64431820995E+02  0.69340208891E+02  0.00000000000E+00 0.  1.
         11    1    4    4    0    0  0.33146699845E+02  0.41809818808E+01  0.23066392243E+02  0.40598556270E+02  0.00000000000E+00 0. -1.
<mgrwt>
<rscale>  0 0.12349539E+03</rscale>
<asrwt>0</asrwt>
<pdfrwt beam="1">  1        2 0.69515770E-02 0.13168409E+03</pdfrwt>
<pdfrwt beam="2">  1       -2 0.72834820E-01 0.13168409E+03</pdfrwt>
<totfact> 0.17200279E+03</totfact>
</mgrwt>
</event>
<event>
 8    1  0.8504141E-006  0.1698688E+03  0.7546771E-02  0.1184152E+00
          1   -1    0    0  501    0  0.00000000000E+00  0.00000000000E+00  0.28206638465E+03  0.28206638465E+03  0.00000000000E+00 0. -1.
         -1   -1    0    0    0  501 -0.00000000000E+00 -0.00000000000E+00 -0.96356427093E+02  0.96356427093E+02  0.00000000000E+00 0.  1.
         23    2    1    2    0    0 -0.91728655403E+02  0.72541488488E+02  0.48478894496E+02  0.17665113106E+03  0.12320310515E+03 0.  0.
         23    2    1    2    0    0  0.91728655403E+02 -0.72541488488E+02  0.13723106306E+03  0.20177168069E+03  0.90570595022E+02 0.  0.
          5    1    3    3  502    0 -0.91928498490E+02 -0.49708041375E+01  0.27999481137E+02  0.96341157728E+02  0.47000000000E+01 0. -1.
         -5    1    3    3    0  502  0.19984308688E+00  0.77512292626E+02  0.20479413359E+02  0.80309973334E+02  0.47000000000E+01 0.  1.
        -11    1    4    4    0    0  0.12931191972E+02 -0.49771244491E+02  0.98391054389E+02  0.11101888167E+03  0.00000000000E+00 0. -1.
         11    1    4    4    0    0  0.78797463431E+02 -0.22770243997E+02  0.38840008675E+02  0.90752799013E+02  0.00000000000E+00 0.  1.
<mgrwt>
<rscale>  0 0.16409291E+03</rscale>
<asrwt>0</asrwt>
<pdfrwt beam="1">  1        1 0.43394828E-01 0.16986883E+03</pdfrwt>
<pdfrwt beam="2">  1       -1 0.14824066E-01 0.16986883E+03</pdfrwt>
<totfact> 0.30361356E+03</totfact>
</mgrwt>
</event>
<event>
 8    1  0.8504141E-006  0.1783330E+03  0.7546771E-02  0.1175221E+00
          1   -1    0    0  501    0  0.00000000000E+00  0.00000000000E+00  0.52832683522E+03  0.52832683522E+03  0.00000000000E+00 0. -1.
         -1   -1    0    0    0  501 -0.00000000000E+00 -0.00000000000E+00 -0.53291539392E+02  0.53291539392E+02  0.00000000000E+00 0.  1.
         23    2    1    2    0    0 -0.32413622829E+02  0.12299229277E+03  0.27521357855E+03  0.32794079873E+03  0.12499962651E+03 0.  0.
         23    2    1    2    0    0  0.32413622829E+02 -0.12299229277E+03  0.19982171728E+03  0.25367757588E+03  0.90806645043E+02 0.  0.
          5    1    3    3  502    0 -0.44229343495E+02  0.23019007681E+02  0.20682315548E+02  0.54184478562E+02  0.47000000000E+01 0. -1.
         -5    1    3    3    0  502  0.11815720667E+02  0.99973285089E+02  0.25453126300E+03  0.27375632017E+03  0.47000000000E+01 0. -1.
        -11    1    4    4    0    0  0.29904971891E+02 -0.56670932364E+02  0.16853282292E+03  0.18030311789E+03  0.00000000000E+00 0.  1.
         11    1    4    4    0    0  0.25086509375E+01 -0.66321360406E+02  0.31288894355E+02  0.73374457992E+02  0.00000000000E+00 0. -1.
<mgrwt>
<rscale>  0 0.17254404E+03</rscale>
<asrwt>0</asrwt>
<pdfrwt beam="1">  1        1 0.81281048E-01 0.17833299E+03</pdfrwt>
<pdfrwt beam="2">  1       -1 0.81986987E-02 0.17833299E+03</pdfrwt>
<totfact> 0.34151240E+03</totfact>
</mgrwt>
</event>
<event>
 8    1  0.8504141E-006  0.1387155E+03  0.7546771E-02  0.1226144E+00
         -1   -1    0    0    0  501 -0.00000000000E+00  0.00000000000E+00  0.27398906534E+02  0.27398906534E+02  0.00000000000E+00 0.  1.
          1   -1    0    0  501    0  0.00000000000E+00 -0.00000000000E+00 -0.57309929693E+03  0.57309929693E+03  0.00000000000E+00 0. -1.
         23    2    1    2    0    0  0.17131833205E+02 -0.57667321234E+02 -0.26683037786E+03  0.30073315787E+03  0.12499184790E+03 0.  0.
         23    2    1    2    0    0 -0.17131833205E+02  0.57667321234E+02 -0.27887001254E+03  0.29976504560E+03  0.92041181136E+02 0.  0.
          5    1    3    3  502    0  0.59395155900E+02  0.65418753189E+01 -0.93486533458E+02  0.11105135125E+03  0.47000000000E+01 0.  1.
         -5    1    3    3    0  502 -0.42263322695E+02 -0.64209196553E+02 -0.17334384440E+03  0.18968180661E+03  0.47000000000E+01 0.  1.
        -11    1    4    4    0    0  0.26755223088E+02  0.31104093678E+00 -0.14698511785E+03  0.14940068132E+03  0.00000000000E+00 0. -1.
         11    1    4    4    0    0 -0.43887056293E+02  0.57356280297E+02 -0.13188489468E+03  0.15036436428E+03  0.00000000000E+00 0.  1.
<mgrwt>
<rscale>  0 0.13088795E+03</rscale>
<asrwt>0</asrwt>
<pdfrwt beam="2">  1        1 0.88169115E-01 0.13871547E+03</pdfrwt>
<pdfrwt beam="1">  1       -1 0.42152167E-02 0.13871547E+03</pdfrwt>
<totfact> 0.81774136E+03</totfact>
</mgrwt>
</event>
<event>
 8    1  0.8504141E-006  0.1250778E+03  0.7546771E-02  0.1249914E+00
          2   -1    0    0  501    0  0.00000000000E+00  0.00000000000E+00  0.28527834953E+03  0.28527834953E+03  0.00000000000E+00 0. -1.
         -2   -1    0    0    0  501 -0.00000000000E+00 -0.00000000000E+00 -0.44359875995E+02  0.44359875995E+02  0.00000000000E+00 0.  1.
         23    2    1    2    0    0 -0.37286606311E+01 -0.25399839399E+01  0.95603588326E+02  0.15743091742E+03  0.12499637287E+03 0.  0.
         23    2    1    2    0    0  0.37286606311E+01  0.25399839399E+01  0.14531488521E+03  0.17220730811E+03  0.92296189912E+02 0.  0.
          5    1    3    3  502    0  0.40595459310E+02  0.19762035610E+02 -0.44893234379E+01  0.45615495097E+02  0.47000000000E+01 0. -1.
         -5    1    3    3    0  502 -0.44324119941E+02 -0.22302019550E+02  0.10009291176E+03  0.11181542233E+03  0.47000000000E+01 0. -1.
        -11    1    4    4    0    0 -0.20822291926E+02 -0.25075673464E+02  0.12671366538E+03  0.13083848911E+03  0.00000000000E+00 0. -1.
         11    1    4    4    0    0  0.24550952557E+02  0.27615657404E+02  0.18601219837E+02  0.41368818992E+02  0.00000000000E+00 0.  1.
<mgrwt>
<rscale>  0 0.11596064E+03</rscale>
<asrwt>0</asrwt>
<pdfrwt beam="1">  1        2 0.43888976E-01 0.12507777E+03</pdfrwt>
<pdfrwt beam="2">  1       -2 0.68245965E-02 0.12507777E+03</pdfrwt>
<totfact> 0.13085708E+04</totfact>
</mgrwt>
</event>
<event>
 8    1  0.8504141E-006  0.1427878E+03  0.7546771E-02  0.1220776E+00
          1   -1    0    0  501    0  0.00000000000E+00  0.00000000000E+00  0.44645095453E+03  0.44645095453E+03  0.00000000000E+00 0. -1.
         -1   -1    0    0    0  501 -0.00000000000E+00 -0.00000000000E+00 -0.36625108563E+02  0.36625108563E+02  0.00000000000E+00 0.  1.
         23    2    1    2    0    0  0.23345575629E+02  0.60801326319E+02  0.21979761417E+03  0.26210557761E+03  0.12706897905E+03 0.  0.
         23    2    1    2    0    0 -0.23345575629E+02 -0.60801326319E+02  0.19002823179E+03  0.22097048548E+03  0.92061986678E+02 0.  0.
          5    1    3    3  502    0  0.56139115263E+02  0.83874843258E+02  0.17258191526E+03  0.19998299195E+03  0.47000000000E+01 0. -1.
         -5    1    3    3    0  502 -0.32793539633E+02 -0.23073516939E+02  0.47215698909E+02  0.62122585660E+02  0.47000000000E+01 0.  1.
        -11    1    4    4    0    0 -0.52937345210E+02 -0.52933893339E+02  0.93937760159E+02  0.12011936715E+03  0.00000000000E+00 0.  1.
         11    1    4    4    0    0  0.29591769580E+02 -0.78674329803E+01  0.96090471634E+02  0.10085111833E+03  0.00000000000E+00 0. -1.
<mgrwt>
<rscale>  0 0.13460688E+03</rscale>
<asrwt>0</asrwt>
<pdfrwt beam="1">  1        1 0.68684759E-01 0.14278775E+03</pdfrwt>
<pdfrwt beam="2">  1       -1 0.56346324E-02 0.14278775E+03</pdfrwt>
<totfact> 0.73964482E+03</totfact>
</mgrwt>
</event>
<event>
 8    1  0.8504141E-006  0.1283290E+03  0.7546771E-02  0.1255501E+00
          1   -1    0    0  501    0  0.00000000000E+00  0.00000000000E+00  0.26874877755E+03  0.26874877755E+03  0.00000000000E+00 0. -1.
         -1   -1    0    0    0  501 -0.00000000000E+00 -0.00000000000E+00 -0.45144799213E+02  0.45144799213E+02  0.00000000000E+00 0.  1.
         23    2    1    2    0    0 -0.21508477843E+02 -0.19520037172E+02  0.80190000699E+02  0.15132334837E+03  0.12499869231E+03 0.  0.
         23    2    1    2    0    0  0.21508477843E+02  0.19520037172E+02  0.14341397764E+03  0.16257022839E+03  0.70836880976E+02 0.  0.
          5    1    3    3  502    0  0.35014389971E+02 -0.13218969076E+02  0.86051895060E+02  0.93956198795E+02  0.47000000000E+01 0. -1.
         -5    1    3    3    0  502 -0.56522867815E+02 -0.63010680958E+01 -0.58618943618E+01  0.57367149578E+02  0.47000000000E+01 0. -1.
        -11    1    4    4    0    0  0.77303716620E+01  0.42682230886E+02  0.54460851350E+02  0.69624103651E+02  0.00000000000E+00 0.  1.
         11    1    4    4    0    0  0.13778106182E+02 -0.23162193714E+02  0.88953126289E+02  0.92946124740E+02  0.00000000000E+00 0. -1.
<mgrwt>
<rscale>  0 0.11278327E+03</rscale>
<asrwt>0</asrwt>
<pdfrwt beam="1">  1        1 0.41345965E-01 0.12832895E+03</pdfrwt>
<pdfrwt beam="2">  1       -1 0.69453539E-02 0.12832895E+03</pdfrwt>
<totfact> 0.10131953E+04</totfact>
</mgrwt>
</event>
<event>
 8    1  0.8504141E-006  0.1644325E+03  0.7546771E-02  0.1190534E+00
          2   -1    0    0  501    0  0.00000000000E+00  0.00000000000E+00  0.65118323722E+03  0.65118323722E+03  0.00000000000E+00 0. -1.
         -2   -1    0    0    0  501 -0.00000000000E+00 -0.00000000000E+00 -0.44205156203E+02  0.44205156203E+02  0.00000000000E+00 0.  1.
         23    2    1    2    0    0  0.10573657384E+03  0.15282351011E+02  0.17196413589E+03  0.23792794407E+03  0.12499707692E+03 0.  0.
         23    2    1    2    0    0 -0.10573657384E+03 -0.15282351011E+02  0.43501394513E+03  0.45746044935E+03  0.92839414936E+02 0.  0.
          5    1    3    3  502    0  0.85285349422E+02  0.44266928088E+02  0.45355245381E+02  0.10635948492E+03  0.47000000000E+01 0. -1.
         -5    1    3    3    0  502  0.20451224418E+02 -0.28984577077E+02  0.12660889051E+03  0.13156845916E+03  0.47000000000E+01 0. -1.
        -11    1    4    4    0    0 -0.63993791062E+02 -0.54623119125E+02  0.26409538266E+03  0.27717370290E+03  0.00000000000E+00 0. -1.
         11    1    4    4    0    0 -0.41742782778E+02  0.39340768114E+02  0.17091856247E+03  0.18028674645E+03  0.00000000000E+00 0.  1.
<mgrwt>
<rscale>  0 0.15838308E+03</rscale>
<asrwt>0</asrwt>
<pdfrwt beam="1">  1        2 0.10018203E+00 0.16443249E+03</pdfrwt>
<pdfrwt beam="2">  1       -2 0.68007938E-02 0.16443249E+03</pdfrwt>
<totfact> 0.54448764E+03</totfact>
</mgrwt>
</event>
<event>
 8    1  0.8504141E-006  0.1583622E+03  0.7546771E-02  0.1198548E+00
         -2   -1    0    0    0  501 -0.00000000000E+00  0.00000000000E+00  0.24100837066E+03  0.24100837066E+03  0.00000000000E+00 0.  1.
          2   -1    0    0  501    0  0.00000000000E+00 -0.00000000000E+00 -0.94258016064E+02  0.94258016064E+02  0.00000000000E+00 0. -1.
         23    2    1    2    0    0  0.66007701430E+02 -0.71404072655E+02  0.12236423652E+03  0.20012895051E+03  0.12499212862E+03 0.  0.
         23    2    1    2    0    0 -0.66007701430E+02  0.71404072655E+02  0.24386118080E+02  0.13513743621E+03  0.90619455254E+02 0.  0.
          5    1    3    3  502    0  0.75357135074E+02 -0.32630863177E+01  0.10440746564E+03  0.12888892280E+03  0.47000000000E+01 0.  1.
         -5    1    3    3    0  502 -0.93494336436E+01 -0.68140986338E+02  0.17956770875E+02  0.71240027715E+02  0.47000000000E+01 0.  1.
        -11    1    4    4    0    0 -0.65410209221E+02  0.82998339583E+01  0.28641963272E+02  0.71887027857E+02  0.00000000000E+00 0.  1.
         11    1    4    4    0    0 -0.59749220915E+00  0.63104238697E+02 -0.42558451922E+01  0.63250408353E+02  0.00000000000E+00 0. -1.
<mgrwt>
<rscale>  0 0.15157773E+03</rscale>
<asrwt>0</asrwt>
<pdfrwt beam="2">  1        2 0.14501233E-01 0.15836221E+03</pdfrwt>
<pdfrwt beam="1">  1       -2 0.37078211E-01 0.15836221E+03</pdfrwt>
<totfact> 0.27161313E+03</totfact>
</mgrwt>
</event>
<event>
 8    1  0.8504141E-006  0.1286913E+03  0.7546771E-02  0.1243975E+00
         -1   -1    0    0    0  501 -0.00000000000E+00  0.00000000000E+00  0.51103236324E+02  0.51103236324E+02  0.00000000000E+00 0.  1.
          1   -1    0    0  501    0  0.00000000000E+00 -0.00000000000E+00 -0.24714276150E+03  0.24714276150E+03  0.00000000000E+00 0. -1.
         23    2    1    2    0    0 -0.28465892713E+02  0.11146449730E+02 -0.10268425961E+03  0.16463750032E+03  0.12500759557E+03 0.  0.
         23    2    1    2    0    0  0.28465892713E+02 -0.11146449730E+02 -0.93355265567E+02  0.13360849750E+03  0.90561993169E+02 0.  0.
          5    1    3    3  502    0 -0.66481293093E+02  0.40218531836E+02 -0.79459686842E+02  0.11123499659E+03  0.47000000000E+01 0.  1.
         -5    1    3    3    0  502  0.38015400379E+02 -0.29072082106E+02 -0.23224572767E+02  0.53402503726E+02  0.47000000000E+01 0.  1.
        -11    1    4    4    0    0 -0.17995024818E+01  0.19254950377E+02 -0.88324091632E+02  0.90416461365E+02  0.00000000000E+00 0. -1.
         11    1    4    4    0    0  0.30265395195E+02 -0.30401400106E+02 -0.50311739356E+01  0.43192036140E+02  0.00000000000E+00 0.  1.
<mgrwt>
<rscale>  0 0.11946936E+03</rscale>
<asrwt>0</asrwt>
<pdfrwt beam="2">  1        1 0.38021963E-01 0.12869129E+03</pdfrwt>
<pdfrwt beam="1">  1       -1 0.78620364E-02 0.12869129E+03</pdfrwt>
<totfact> 0.93301909E+03</totfact>
</mgrwt>
</event>
<event>
 8    1  0.8504141E-006  0.1285608E+03  0.7546771E-02  0.1243879E+00
          2   -1    0    0  501    0  0.00000000000E+00  0.00000000000E+00  0.18642808924E+03  0.18642808924E+03  0.00000000000E+00 0. -1.
         -2   -1    0    0    0  501 -0.00000000000E+00 -0.00000000000E+00 -0.71297211885E+02  0.71297211885E+02  0.00000000000E+00 0.  1.
         23    2    1    2    0    0 -0.18038088834E+02  0.24126525767E+02  0.36653422909E+02  0.13368379653E+03  0.12498168726E+03 0.  0.
         23    2    1    2    0    0  0.18038088834E+02 -0.24126525767E+02  0.78477454445E+02  0.12404150459E+03  0.91214703370E+02 0.  0.
          5    1    3    3  502    0 -0.27888743877E+02 -0.35219773139E+02 -0.21371099211E+02  0.49970274529E+02  0.47000000000E+01 0.  1.
         -5    1    3    3    0  502  0.98506550430E+01  0.59346298907E+02  0.58024522120E+02  0.83713522002E+02  0.47000000000E+01 0.  1.
        -11    1    4    4    0    0 -0.10844033827E+02 -0.15401941471E+02  0.89846218464E+02  0.91799541627E+02  0.00000000000E+00 0. -1.
         11    1    4    4    0    0  0.28882122661E+02 -0.87245842959E+01 -0.11368764018E+02  0.32241962965E+02  0.00000000000E+00 0.  1.
<mgrwt>
<rscale>  0 0.11952740E+03</rscale>
<asrwt>0</asrwt>
<pdfrwt beam="1">  1        2 0.28681244E-01 0.12856082E+03</pdfrwt>
<pdfrwt beam="2">  1       -2 0.10968802E-01 0.12856082E+03</pdfrwt>
<totfact> 0.98974974E+03</totfact>
</mgrwt>
</event>
<event>
 8    1  0.8504141E-006  0.1454700E+03  0.7546771E-02  0.1215409E+00
          3   -1    0    0  501    0  0.00000000000E+00  0.00000000000E+00  0.97191575138E+02  0.97191575138E+02  0.00000000000E+00 0. -1.
         -3   -1    0    0    0  501 -0.00000000000E+00 -0.00000000000E+00 -0.21077410375E+03  0.21077410375E+03  0.00000000000E+00 0.  1.
         23    2    1    2    0    0  0.33631292179E+02 -0.66384628436E+02 -0.11971659526E+03  0.18839741209E+03  0.12499415585E+03 0.  0.
         23    2    1    2    0    0 -0.33631292179E+02  0.66384628436E+02  0.61340666495E+01  0.11956826679E+03  0.93386085388E+02 0.  0.
          5    1    3    3  502    0 -0.18620351640E+02  0.29715779779E+02 -0.22131410253E+02  0.41732893296E+02  0.47000000000E+01 0. -1.
         -5    1    3    3    0  502  0.52251643819E+02 -0.96100408215E+02 -0.97585185006E+02  0.14666451880E+03  0.47000000000E+01 0. -1.
        -11    1    4    4    0    0  0.48363526678E+00 -0.14122587598E+02 -0.23350866807E+02  0.27293668940E+02  0.00000000000E+00 0.  1.
         11    1    4    4    0    0 -0.34114927445E+02  0.80507216034E+02  0.29484933457E+02  0.92274597854E+02  0.00000000000E+00 0. -1.
<mgrwt>
<rscale>  0 0.13846532E+03</rscale>
<asrwt>0</asrwt>
<pdfrwt beam="1">  1        3 0.14952550E-01 0.14547000E+03</pdfrwt>
<pdfrwt beam="2">  1       -3 0.32426785E-01 0.14547000E+03</pdfrwt>
<totfact> 0.80841577E+02</totfact>
</mgrwt>
</event>
<event>
 8    1  0.8504141E-006  0.1931483E+03  0.7546771E-02  0.1160314E+00
          1   -1    0    0  501    0  0.00000000000E+00  0.00000000000E+00  0.22409358555E+03  0.22409358555E+03  0.00000000000E+00 0. -1.
         -1   -1    0    0    0  501 -0.00000000000E+00 -0.00000000000E+00 -0.16066630635E+03  0.16066630635E+03  0.00000000000E+00 0.  1.
         23    2    1    2    0    0  0.71725451813E+02  0.12859543660E+03 -0.16779451770E+02  0.19387573046E+03  0.12499968843E+03 0.  0.
         23    2    1    2    0    0 -0.71725451813E+02 -0.12859543660E+03  0.80206730973E+02  0.19088416144E+03  0.91226732067E+02 0.  0.
          5    1    3    3  502    0  0.61716523160E+02 -0.80694563439E+00  0.53447543885E+01  0.62130803887E+02  0.47000000000E+01 0.  1.
         -5    1    3    3    0  502  0.10008928654E+02  0.12940238223E+03 -0.22124206159E+02  0.13174492657E+03  0.47000000000E+01 0.  1.
        -11    1    4    4    0    0 -0.56400374311E+02 -0.31086287336E+02  0.11318544757E+01  0.64409941603E+02  0.00000000000E+00 0.  1.
         11    1    4    4    0    0 -0.15325077502E+02 -0.97509149261E+02  0.79074876497E+02  0.12647421984E+03  0.00000000000E+00 0. -1.
<mgrwt>
<rscale>  0 0.18795974E+03</rscale>
<asrwt>0</asrwt>
<pdfrwt beam="1">  1        1 0.34475936E-01 0.19314826E+03</pdfrwt>
<pdfrwt beam="2">  1       -1 0.24717893E-01 0.19314826E+03</pdfrwt>
<totfact> 0.17823080E+03</totfact>
</mgrwt>
</event>
<event>
 8    1  0.8504141E-006  0.1300524E+03  0.7546771E-02  0.1240927E+00
          2   -1    0    0  501    0  0.00000000000E+00  0.00000000000E+00  0.18189490516E+03  0.18189490516E+03  0.00000000000E+00 0. -1.
         -2   -1    0    0    0  501 -0.00000000000E+00 -0.00000000000E+00 -0.73583842187E+02  0.73583842187E+02  0.00000000000E+00 0.  1.
         23    2    1    2    0    0  0.33840599789E+02 -0.12004348307E+02  0.41727293896E+02  0.13658251134E+03  0.12499729908E+03 0.  0.
         23    2    1    2    0    0 -0.33840599789E+02  0.12004348307E+02  0.66583769076E+02  0.11889623600E+03  0.91725820023E+02 0.  0.
          5    1    3    3  502    0 -0.34873268823E+02  0.32370792240E+02  0.10876070885E+02  0.49034599892E+02  0.47000000000E+01 0.  1.
         -5    1    3    3    0  502  0.68713868612E+02 -0.44375140548E+02  0.30851223011E+02  0.87547911452E+02  0.47000000000E+01 0.  1.
        -11    1    4    4    0    0  0.89032713025E+01  0.20485250970E+02 -0.14650097130E+02  0.26712152536E+02  0.00000000000E+00 0.  1.
         11    1    4    4    0    0 -0.42743871092E+02 -0.84809026627E+01  0.81233866206E+02  0.92184083467E+02  0.00000000000E+00 0. -1.
<mgrwt>
<rscale>  0 0.12132532E+03</rscale>
<asrwt>0</asrwt>
<pdfrwt beam="1">  1        2 0.27983831E-01 0.13005236E+03</pdfrwt>
<pdfrwt beam="2">  1       -2 0.11320591E-01 0.13005236E+03</pdfrwt>
<totfact> 0.96790253E+03</totfact>
</mgrwt>
</event>
<event>
 7    1  0.8504141E-006  0.1333312E+03  0.7546771E-02  0.1245095E+00
          4   -1    0    0  501    0  0.00000000000E+00  0.00000000000E+00  0.15802101438E+03  0.15802101438E+03  0.00000000000E+00 0. -1.
         -4   -1    0    0    0  501 -0.00000000000E+00 -0.00000000000E+00 -0.10559876086E+03  0.10559876086E+03  0.00000000000E+00 0.  1.
         23    2    1    2    0    0 -0.48373157706E+02 -0.54287878321E+02 -0.39519033976E+02  0.13906459453E+03  0.11175898750E+03 0.  0.
          5    1    3    3  502    0  0.23735637180E+02 -0.52157226563E+02 -0.33445935160E+02  0.66516744763E+02  0.47000000000E+01 0. -1.
         -5    1    3    3    0  502 -0.72108794885E+02 -0.21306517578E+01 -0.60730988153E+01  0.72547849768E+02  0.47000000000E+01 0.  1.
        -11    1    1    2    0    0  0.51247235474E+02  0.30137015330E+02  0.60723804897E+02  0.84981758736E+02  0.00000000000E+00 0. -1.
         11    1    1    2    0    0 -0.28740777679E+01  0.24150862991E+02  0.31217482604E+02  0.39573421970E+02  0.00000000000E+00 0.  1.
<mgrwt>
<rscale>  0 0.11879701E+03</rscale>
<asrwt>0</asrwt>
<pdfrwt beam="1">  1        4 0.24310925E-01 0.13333119E+03</pdfrwt>
<pdfrwt beam="2">  1       -4 0.16245963E-01 0.13333119E+03</pdfrwt>
<totfact> 0.85073038E+02</totfact>
</mgrwt>
</event>
<event>
 8    1  0.8504141E-006  0.1272653E+03  0.7546771E-02  0.1246294E+00
         -1   -1    0    0    0  501 -0.00000000000E+00  0.00000000000E+00  0.17760813633E+03  0.17760813633E+03  0.00000000000E+00 0.  1.
          1   -1    0    0  501    0  0.00000000000E+00 -0.00000000000E+00 -0.70308861560E+02  0.70308861560E+02  0.00000000000E+00 0. -1.
         23    2    1    2    0    0 -0.15802476256E+02  0.17982744383E+02  0.77474161878E+02  0.14899226409E+03  0.12499340642E+03 0.  0.
         23    2    1    2    0    0  0.15802476256E+02 -0.17982744383E+02  0.29825112892E+02  0.98924733799E+02  0.91233043612E+02 0.  0.
          5    1    3    3  502    0  0.23318313372E+01  0.13137020098E+02 -0.33489243637E+02  0.36354341884E+02  0.47000000000E+01 0. -1.
         -5    1    3    3    0  502 -0.18134307593E+02  0.48457242855E+01  0.11096340552E+03  0.11263792221E+03  0.47000000000E+01 0. -1.
        -11    1    4    4    0    0 -0.87712254507E+01 -0.24342564931E+02 -0.26565822808E+02  0.37084198856E+02  0.00000000000E+00 0. -1.
         11    1    4    4    0    0  0.24573701706E+02  0.63598205481E+01  0.56390935699E+02  0.61840534943E+02  0.00000000000E+00 0.  1.
<mgrwt>
<rscale>  0 0.11808241E+03</rscale>
<asrwt>0</asrwt>
<pdfrwt beam="2">  1        1 0.10816748E-01 0.12726527E+03</pdfrwt>
<pdfrwt beam="1">  1       -1 0.27324328E-01 0.12726527E+03</pdfrwt>
<totfact> 0.65257897E+03</totfact>
</mgrwt>
</event>
<event>
 8    1  0.8504141E-006  0.1776719E+03  0.7546771E-02  0.1176474E+00
          1   -1    0    0  501    0  0.00000000000E+00  0.00000000000E+00  0.45406329816E+03  0.45406329816E+03  0.00000000000E+00 0. -1.
         -1   -1    0    0    0  501 -0.00000000000E+00 -0.00000000000E+00 -0.66519111192E+02  0.66519111192E+02  0.00000000000E+00 0.  1.
         23    2    1    2    0    0 -0.11849184578E+03  0.43609004574E+02  0.12796380899E+03  0.21895669221E+03  0.12500093542E+03 0.  0.
         23    2    1    2    0    0  0.11849184578E+03 -0.43609004574E+02  0.25958037798E+03  0.30162571714E+03  0.87487358007E+02 0.  0.
          5    1    3    3  502    0 -0.95732620216E+02  0.86298929248E+02  0.96053026369E+02  0.16081204444E+03  0.47000000000E+01 0.  1.
         -5    1    3    3    0  502 -0.22759225568E+02 -0.42689924674E+02  0.31910782621E+02  0.58144647773E+02  0.47000000000E+01 0.  1.
        -11    1    4    4    0    0 -0.26289838478E+01 -0.26742004734E+02  0.23262664347E+02  0.35541495829E+02  0.00000000000E+00 0. -1.
         11    1    4    4    0    0  0.12112082963E+03 -0.16866999841E+02  0.23631771363E+03  0.26608422131E+03  0.00000000000E+00 0.  1.
<mgrwt>
<rscale>  0 0.17132433E+03</rscale>
<asrwt>0</asrwt>
<pdfrwt beam="1">  1        1 0.69855890E-01 0.17767188E+03</pdfrwt>
<pdfrwt beam="2">  1       -1 0.10233710E-01 0.17767188E+03</pdfrwt>
<totfact> 0.29674694E+03</totfact>
</mgrwt>
</event>
<event>
 8    1  0.8504141E-006  0.1558064E+03  0.7546771E-02  0.1201644E+00
          1   -1    0    0  501    0  0.00000000000E+00  0.00000000000E+00  0.26502225568E+03  0.26502225568E+03  0.00000000000E+00 0. -1.
         -1   -1    0    0    0  501 -0.00000000000E+00 -0.00000000000E+00 -0.92524413412E+02  0.92524413412E+02  0.00000000000E+00 0.  1.
         23    2    1    2    0    0  0.75424545894E+02  0.54422008396E+02  0.20388882111E+02  0.15713481802E+03  0.12500010960E+03 0.  0.
         23    2    1    2    0    0 -0.75424545894E+02 -0.54422008396E+02  0.15210896015E+03  0.20041185107E+03  0.91526811202E+02 0.  0.
          5    1    3    3  502    0  0.18191567246E+02  0.47777409487E+02  0.65916648558E+02  0.83550634548E+02  0.47000000000E+01 0.  1.
         -5    1    3    3    0  502  0.57232978648E+02  0.66445989092E+01 -0.45527766447E+02  0.73584183472E+02  0.47000000000E+01 0.  1.
        -11    1    4    4    0    0 -0.61649482601E+02 -0.50125009054E+02  0.16366021884E+03  0.18192812446E+03  0.00000000000E+00 0. -1.
         11    1    4    4    0    0 -0.13775063292E+02 -0.42969993422E+01 -0.11551258690E+02  0.18483726609E+02  0.00000000000E+00 0.  1.
<mgrwt>
<rscale>  0 0.14905062E+03</rscale>
<asrwt>0</asrwt>
<pdfrwt beam="1">  1        1 0.40772654E-01 0.15580643E+03</pdfrwt>
<pdfrwt beam="2">  1       -1 0.14234525E-01 0.15580643E+03</pdfrwt>
<totfact> 0.34834918E+03</totfact>
</mgrwt>
</event>
<event>
 8    1  0.8504141E-006  0.1532149E+03  0.7546771E-02  0.1205316E+00
         -2   -1    0    0    0  501 -0.00000000000E+00  0.00000000000E+00  0.14758952376E+03  0.14758952376E+03  0.00000000000E+00 0.  1.
          2   -1    0    0  501    0  0.00000000000E+00 -0.00000000000E+00 -0.13330715220E+03  0.13330715220E+03  0.00000000000E+00 0. -1.
         23    2    1    2    0    0  0.88396043276E+02 -0.59063578826E+01  0.16577968566E+02  0.15410916480E+03  0.12500424034E+03 0.  0.
         23    2    1    2    0    0 -0.88396043276E+02  0.59063578826E+01 -0.22955970032E+01  0.12678751116E+03  0.90670048474E+02 0.  0.
          5    1    3    3  502    0  0.11113454461E+03 -0.26695282247E+02  0.32762437501E+02  0.11899156445E+03  0.47000000000E+01 0.  1.
         -5    1    3    3    0  502 -0.22738501335E+02  0.20788924365E+02 -0.16184468935E+02  0.35117600344E+02  0.47000000000E+01 0.  1.
        -11    1    4    4    0    0 -0.51555865883E+01  0.28021744153E+02  0.23441817193E+02  0.36896029756E+02  0.00000000000E+00 0.  1.
         11    1    4    4    0    0 -0.83240456688E+02 -0.22115386270E+02 -0.25737414196E+02  0.89891481404E+02  0.00000000000E+00 0. -1.
<mgrwt>
<rscale>  0 0.14612586E+03</rscale>
<asrwt>0</asrwt>
<pdfrwt beam="2">  1        2 0.20508793E-01 0.15321490E+03</pdfrwt>
<pdfrwt beam="1">  1       -2 0.22706081E-01 0.15321490E+03</pdfrwt>
<totfact> 0.43802739E+03</totfact>
</mgrwt>
</event>
<event>
 8    1  0.8504141E-006  0.1269768E+03  0.7546771E-02  0.1247122E+00
         -3   -1    0    0    0  501 -0.00000000000E+00  0.00000000000E+00  0.87614574643E+02  0.87614574643E+02  0.00000000000E+00 0.  1.
          3   -1    0    0  501    0  0.00000000000E+00 -0.00000000000E+00 -0.21255947348E+03  0.21255947348E+03  0.00000000000E+00 0. -1.
         23    2    1    2    0    0 -0.87552752907E+01 -0.20546448316E+02  0.19193678042E+02  0.12841926357E+03  0.12499719435E+03 0.  0.
         23    2    1    2    0    0  0.87552752907E+01  0.20546448316E+02 -0.14413857688E+03  0.17175478455E+03  0.90691594358E+02 0.  0.
          5    1    3    3  502    0 -0.42036405625E+02  0.35950274517E+02 -0.10143867232E+02  0.56431105590E+02  0.47000000000E+01 0. -1.
         -5    1    3    3    0  502  0.33281130334E+02 -0.56496722833E+02  0.29337545274E+02  0.71988157984E+02  0.47000000000E+01 0. -1.
        -11    1    4    4    0    0  0.18424163108E+02 -0.32812889279E+02 -0.44184837285E+02  0.58038223051E+02  0.00000000000E+00 0.  1.
         11    1    4    4    0    0 -0.96688878170E+01  0.53359337595E+02 -0.99953739597E+02  0.11371656150E+03  0.00000000000E+00 0. -1.
<mgrwt>
<rscale>  0 0.11759297E+03</rscale>
<asrwt>0</asrwt>
<pdfrwt beam="2">  1        3 0.32701457E-01 0.12697681E+03</pdfrwt>
<pdfrwt beam="1">  1       -3 0.13479165E-01 0.12697681E+03</pdfrwt>
<totfact> 0.92987240E+02</totfact>
</mgrwt>
</event>
<event>
 8    1  0.8504141E-006  0.1363550E+03  0.7546771E-02  0.1231529E+00
          2   -1    0    0  501    0  0.00000000000E+00  0.00000000000E+00  0.56525301706E+03  0.56525301706E+03  0.00000000000E+00 0. -1.
         -2   -1    0    0    0  501 -0.00000000000E+00 -0.00000000000E+00 -0.28929928571E+02  0.28929928571E+02  0.00000000000E+00 0.  1.
         23    2    1    2    0    0  0.30523716154E+02  0.45070468835E+02  0.40248633418E+03  0.42495638504E+03  0.12501854093E+03 0.  0.
         23    2    1    2    0    0 -0.30523716154E+02 -0.45070468835E+02  0.13383675431E+03  0.16922656059E+03  0.88103959028E+02 0.  0.
          5    1    3    3  502    0  0.60757383968E+02  0.47901218022E+02  0.37743276964E+03  0.38530970918E+03  0.47000000000E+01 0.  1.
         -5    1    3    3    0  502 -0.30233667814E+02 -0.28307491869E+01  0.25053564546E+02  0.39646675862E+02  0.47000000000E+01 0.  1.
        -11    1    4    4    0    0  0.30613218228E+01  0.11857457100E+02 -0.66735069165E+01  0.13946564980E+02  0.00000000000E+00 0.  1.
         11    1    4    4    0    0 -0.33585037977E+02 -0.56927925935E+02  0.14051026123E+03  0.15527999561E+03  0.00000000000E+00 0. -1.
<mgrwt>
<rscale>  0 0.12729305E+03</rscale>
<asrwt>0</asrwt>
<pdfrwt beam="1">  1        2 0.86961995E-01 0.13635498E+03</pdfrwt>
<pdfrwt beam="2">  1       -2 0.44507587E-02 0.13635498E+03</pdfrwt>
<totfact> 0.12030566E+04</totfact>
</mgrwt>
</event>
<event>
 8    1  0.8504141E-006  0.2814665E+03  0.7546771E-02  0.1096639E+00
          2   -1    0    0  501    0  0.00000000000E+00  0.00000000000E+00  0.40227851729E+03  0.40227851729E+03  0.00000000000E+00 0. -1.
         -2   -1    0    0    0  501 -0.00000000000E+00 -0.00000000000E+00 -0.26835185703E+03  0.26835185703E+03  0.00000000000E+00 0.  1.
         23    2    1    2    0    0 -0.78245470130E+02 -0.23974038357E+03 -0.11514499060E+03  0.30410815812E+03  0.12500239143E+03 0.  0.
         23    2    1    2    0    0  0.78245470130E+02  0.23974038357E+03  0.24907165086E+03  0.36652221621E+03  0.93295458640E+02 0.  0.
          5    1    3    3  502    0 -0.45117858021E+02 -0.21418879592E+03 -0.46875706717E+02  0.22390150355E+03  0.47000000000E+01 0. -1.
         -5    1    3    3    0  502 -0.33127612109E+02 -0.25551587648E+02 -0.68269283882E+02  0.80206654569E+02  0.47000000000E+01 0. -1.
        -11    1    4    4    0    0  0.81424981712E+02  0.15762213321E+03  0.21179789756E+03  0.27628448009E+03  0.00000000000E+00 0.  1.
         11    1    4    4    0    0 -0.31795115825E+01  0.82118250358E+02  0.37273753301E+02  0.90237736124E+02  0.00000000000E+00 0. -1.
<mgrwt>
<rscale>  0 0.27826830E+03</rscale>
<asrwt>0</asrwt>
<pdfrwt beam="1">  1        2 0.61889003E-01 0.28146652E+03</pdfrwt>
<pdfrwt beam="2">  1       -2 0.41284901E-01 0.28146652E+03</pdfrwt>
<totfact> 0.44697726E+02</totfact>
</mgrwt>
</event>
<event>
 8    1  0.8504141E-006  0.1296039E+03  0.7546771E-02  0.1245251E+00
         -1   -1    0    0    0  501 -0.00000000000E+00  0.00000000000E+00  0.24998644873E+02  0.24998644873E+02  0.00000000000E+00 0.  1.
          1   -1    0    0  501    0  0.00000000000E+00 -0.00000000000E+00 -0.54776300986E+03  0.54776300986E+03  0.00000000000E+00 0. -1.
         23    2    1    2    0    0  0.31299921769E+02 -0.13899959118E+02 -0.20820455854E+03  0.24524745852E+03  0.12499713496E+03 0.  0.
         23    2    1    2    0    0 -0.31299921769E+02  0.13899959118E+02 -0.31455980644E+03  0.32751419621E+03  0.84526817767E+02 0.  0.
          5    1    3    3  502    0  0.70661576867E+02 -0.38801471419E+02 -0.15184489671E+03  0.17198132250E+03  0.47000000000E+01 0.  1.
         -5    1    3    3    0  502 -0.39361655099E+02  0.24901512301E+02 -0.56359661828E+02  0.73266136027E+02  0.47000000000E+01 0.  1.
        -11    1    4    4    0    0 -0.19316896612E+02  0.49538676780E+02 -0.19966372078E+03  0.20662241985E+03  0.00000000000E+00 0.  1.
         11    1    4    4    0    0 -0.11983025157E+02 -0.35638717662E+02 -0.11489608567E+03  0.12089177635E+03  0.00000000000E+00 0. -1.
<mgrwt>
<rscale>  0 0.11870360E+03</rscale>
<asrwt>0</asrwt>
<pdfrwt beam="2">  1        1 0.84271232E-01 0.12960393E+03</pdfrwt>
<pdfrwt beam="1">  1       -1 0.38459454E-02 0.12960393E+03</pdfrwt>
<totfact> 0.98940654E+03</totfact>
</mgrwt>
</event>
<event>
 8    1  0.1008987E-005  0.3315291E+03  0.7546771E-02  0.1071657E+00
         -1   -1    0    0    0  501 -0.00000000000E+00  0.00000000000E+00  0.97871619167E+02  0.97871619167E+02  0.00000000000E+00 0.  1.
          1   -1    0    0  501    0  0.00000000000E+00 -0.00000000000E+00 -0.11127338252E+04  0.11127338252E+04  0.00000000000E+00 0. -1.
         23    2    1    2    0    0 -0.79418827949E+02 -0.29661355155E+03 -0.42375892082E+03  0.53803638319E+03  0.12499830985E+03 0.  0.
         23    2    1    2    0    0  0.79418827949E+02  0.29661355155E+03 -0.59110328521E+03  0.67256906117E+03  0.93054280228E+02 0.  0.
          5    1    3    3  502    0 -0.13292550904E+02 -0.66161325021E+02 -0.19587866400E+03  0.20723067786E+03  0.47000000000E+01 0. -1.
         -5    1    3    3    0  502 -0.66126277044E+02 -0.23045222653E+03 -0.22788025683E+03  0.33080570533E+03  0.47000000000E+01 0. -1.
        -11    1    4    4    0    0  0.20331035701E+02  0.12542021850E+03 -0.34004237324E+03  0.36300468016E+03  0.00000000000E+00 0. -1.
         11    1    4    4    0    0  0.59087792248E+02  0.17119333305E+03 -0.25106091197E+03  0.30956438101E+03  0.00000000000E+00 0.  1.
<mgrwt>
<rscale>  0 0.32882697E+03</rscale>
<asrwt>0</asrwt>
<pdfrwt beam="2">  1        1 0.17118981E+00 0.33152907E+03</pdfrwt>
<pdfrwt beam="1">  1       -1 0.15057173E-01 0.33152907E+03</pdfrwt>
<totfact> 0.42140439E+02</totfact>
</mgrwt>
</event>
<event>
 8    1  0.8504141E-006  0.1322823E+03  0.7546771E-02  0.1229012E+00
         -1   -1    0    0    0  501 -0.00000000000E+00  0.00000000000E+00  0.15670354788E+03  0.15670354788E+03  0.00000000000E+00 0.  1.
          1   -1    0    0  501    0  0.00000000000E+00 -0.00000000000E+00 -0.10685023980E+03  0.10685023980E+03  0.00000000000E+00 0. -1.
         23    2    1    2    0    0 -0.24867414061E+02  0.35031568358E+02  0.56618233056E+02  0.14388967419E+03  0.12511200965E+03 0.  0.
         23    2    1    2    0    0  0.24867414061E+02 -0.35031568358E+02 -0.67649249687E+01  0.11966411349E+03  0.11148155356E+03 0.  0.
          5    1    3    3  502    0 -0.30893154668E+02  0.13332902479E+02  0.94025162966E+02  0.99974869666E+02  0.47000000000E+01 0.  1.
         -5    1    3    3    0  502  0.60257406079E+01  0.21698665879E+02 -0.37406929910E+02  0.43914804521E+02  0.47000000000E+01 0.  1.
        -11    1    4    4    0    0  0.64063786721E+01 -0.24118945312E+02  0.51690422832E+02  0.57399172670E+02  0.00000000000E+00 0.  1.
         11    1    4    4    0    0  0.18461035388E+02 -0.10912623046E+02 -0.58455347800E+02  0.62264940824E+02  0.00000000000E+00 0. -1.
<mgrwt>
<rscale>  0 0.12895660E+03</rscale>
<asrwt>0</asrwt>
<pdfrwt beam="2">  1        1 0.16438498E-01 0.13228233E+03</pdfrwt>
<pdfrwt beam="1">  1       -1 0.24108238E-01 0.13228233E+03</pdfrwt>
<totfact> 0.46628517E+03</totfact>
</mgrwt>
</event>
<event>
 8    1  0.8504141E-006  0.1545249E+03  0.7546771E-02  0.1196814E+00
         -2   -1    0    0    0  501 -0.00000000000E+00  0.00000000000E+00  0.15151273400E+03  0.15151273400E+03  0.00000000000E+00 0.  1.
          2   -1    0    0  501    0  0.00000000000E+00 -0.00000000000E+00 -0.26339723489E+03  0.26339723489E+03  0.00000000000E+00 0. -1.
         23    2    1    2    0    0  0.12748015635E+02 -0.89943405955E+02  0.78571770172E+02  0.17335358985E+03  0.12500246345E+03 0.  0.
         23    2    1    2    0    0 -0.12748015635E+02  0.89943405955E+02 -0.19045627107E+03  0.24155637904E+03  0.11757365728E+03 0.  0.
          5    1    3    3  502    0  0.60492789806E+02 -0.16545282422E+02  0.52357878489E+02  0.81832520606E+02  0.47000000000E+01 0.  1.
         -5    1    3    3    0  502 -0.47744774171E+02 -0.73398123534E+02  0.26213891683E+02  0.91521069246E+02  0.47000000000E+01 0.  1.
        -11    1    4    4    0    0 -0.38572726739E+02  0.54011950952E+02 -0.26051528572E+02  0.71300969381E+02  0.00000000000E+00 0.  1.
         11    1    4    4    0    0  0.25824711104E+02  0.35931455003E+02 -0.16440474249E+03  0.17025540965E+03  0.00000000000E+00 0. -1.
<mgrwt>
<rscale>  0 0.15301663E+03</rscale>
<asrwt>0</asrwt>
<pdfrwt beam="2">  1        2 0.40522651E-01 0.15452490E+03</pdfrwt>
<pdfrwt beam="1">  1       -2 0.23309652E-01 0.15452490E+03</pdfrwt>
<totfact> 0.19878484E+03</totfact>
</mgrwt>
</event>
<event>
 8    1  0.8504141E-006  0.1406062E+03  0.7546771E-02  0.1224140E+00
          2   -1    0    0  501    0  0.00000000000E+00  0.00000000000E+00  0.38515387687E+03  0.38515387687E+03  0.00000000000E+00 0. -1.
         -2   -1    0    0    0  501 -0.00000000000E+00 -0.00000000000E+00 -0.50679950273E+02  0.50679950273E+02  0.00000000000E+00 0.  1.
         23    2    1    2    0    0 -0.64381869209E+02 -0.17300486869E+00  0.87942804789E+02  0.16584343642E+03  0.12500021390E+03 0.  0.
         23    2    1    2    0    0  0.64381869209E+02  0.17300486869E+00  0.24653112181E+03  0.26999039073E+03  0.89286964621E+02 0.  0.
          5    1    3    3  502    0 -0.40132997883E+01  0.33147296881E+02 -0.18855644407E+02  0.38632566466E+02  0.47000000000E+01 0. -1.
         -5    1    3    3    0  502 -0.60368569421E+02 -0.33320301750E+02  0.10679844920E+03  0.12721086995E+03  0.47000000000E+01 0. -1.
        -11    1    4    4    0    0  0.40862536762E+02 -0.14803525489E+02  0.23634084957E+03  0.24030374207E+03  0.00000000000E+00 0. -1.
         11    1    4    4    0    0  0.23519332447E+02  0.14976530357E+02  0.10190272242E+02  0.29686648660E+02  0.00000000000E+00 0.  1.
<mgrwt>
<rscale>  0 0.13226007E+03</rscale>
<asrwt>0</asrwt>
<pdfrwt beam="1">  1        2 0.59254441E-01 0.14060622E+03</pdfrwt>
<pdfrwt beam="2">  1       -2 0.77969157E-02 0.14060622E+03</pdfrwt>
<totfact> 0.78270798E+03</totfact>
</mgrwt>
</event>
<event>
 8    1  0.8504141E-006  0.1459604E+03  0.7546771E-02  0.1214314E+00
         -1   -1    0    0    0  501 -0.00000000000E+00  0.00000000000E+00  0.15962546961E+03  0.15962546961E+03  0.00000000000E+00 0.  1.
          1   -1    0    0  501    0  0.00000000000E+00 -0.00000000000E+00 -0.15281654286E+03  0.15281654286E+03  0.00000000000E+00 0. -1.
         23    2    1    2    0    0 -0.75054748228E+02 -0.68884915309E+01  0.84503580434E+02  0.16865729206E+03  0.12499504194E+03 0.  0.
         23    2    1    2    0    0  0.75054748228E+02  0.68884915309E+01 -0.77694653688E+02  0.14378472041E+03  0.94641006250E+02 0.  0.
          5    1    3    3  502    0  0.37807391524E+01  0.22642182729E+02 -0.22459824192E+02  0.32457605118E+02  0.47000000000E+01 0. -1.
         -5    1    3    3    0  502 -0.78835487381E+02 -0.29530674260E+02  0.10696340463E+03  0.13619968694E+03  0.47000000000E+01 0. -1.
        -11    1    4    4    0    0  0.46225584095E+02  0.50083041566E+02 -0.52687724212E+02  0.86145876048E+02  0.00000000000E+00 0. -1.
         11    1    4    4    0    0  0.28829164133E+02 -0.43194550035E+02 -0.25006929476E+02  0.57638844360E+02  0.00000000000E+00 0.  1.
<mgrwt>
<rscale>  0 0.13927074E+03</rscale>
<asrwt>0</asrwt>
<pdfrwt beam="2">  1        1 0.23510237E-01 0.14596036E+03</pdfrwt>
<pdfrwt beam="1">  1       -1 0.24557765E-01 0.14596036E+03</pdfrwt>
<totfact> 0.28831997E+03</totfact>
</mgrwt>
</event>
<event>
 8    1  0.8504141E-006  0.1323097E+03  0.7546771E-02  0.1237130E+00
          3   -1    0    0  501    0  0.00000000000E+00  0.00000000000E+00  0.21087373736E+03  0.21087373736E+03  0.00000000000E+00 0. -1.
         -3   -1    0    0    0  501 -0.00000000000E+00 -0.00000000000E+00 -0.16224821511E+03  0.16224821511E+03  0.00000000000E+00 0.  1.
         23    2    1    2    0    0 -0.13814583975E+02 -0.41105935280E+02 -0.11863126053E+03  0.17770549164E+03  0.12500130054E+03 0.  0.
         23    2    1    2    0    0  0.13814583975E+02  0.41105935280E+02  0.16725678278E+03  0.19541646083E+03  0.91281000940E+02 0.  0.
          5    1    3    3  502    0 -0.15452565900E+02 -0.52721278694E+02  0.31885696255E+01  0.55231983454E+02  0.47000000000E+01 0. -1.
         -5    1    3    3    0  502  0.16379819249E+01  0.11615343414E+02 -0.12181983016E+03  0.12247350819E+03  0.47000000000E+01 0. -1.
        -11    1    4    4    0    0 -0.14088627839E+02  0.13420347798E+02 -0.38653996222E+01  0.19837753997E+02  0.00000000000E+00 0.  1.
         11    1    4    4    0    0  0.27903211814E+02  0.27685587482E+02  0.17112218240E+03  0.17557870684E+03  0.00000000000E+00 0. -1.
<mgrwt>
<rscale>  0 0.12369061E+03</rscale>
<asrwt>0</asrwt>
<pdfrwt beam="1">  1        3 0.32442114E-01 0.13230973E+03</pdfrwt>
<pdfrwt beam="2">  1       -3 0.24961264E-01 0.13230973E+03</pdfrwt>
<totfact> 0.32412915E+02</totfact>
</mgrwt>
</event>
<event>
 7    1  0.8504141E-006  0.5270162E+03  0.7546771E-02  0.1006958E+00
          2   -1    0    0  501    0  0.00000000000E+00  0.00000000000E+00  0.17059144319E+04  0.17059144319E+04  0.00000000000E+00 0. -1.
         -2   -1    0    0    0  501 -0.00000000000E+00 -0.00000000000E+00 -0.40703402385E+02  0.40703402385E+02  0.00000000000E+00 0.  1.
         23    2    1    2    0    0  0.11378025347E+03 -0.69032241368E+02  0.61424069689E+03  0.63526023067E+03  0.92479892607E+02 0.  0.
          5    1    1    2  502    0 -0.14933766286E+03  0.63502787759E+02  0.10612845133E+04  0.10736299408E+04  0.47000000000E+01 0. -1.
         -5    1    1    2    0  502  0.35557409389E+02  0.55294536091E+01 -0.10314180661E+02  0.37727662827E+02  0.47000000000E+01 0.  1.
        -11    1    3    3    0    0  0.61013102484E+02 -0.74708021702E+02  0.50099014446E+03  0.51019115244E+03  0.00000000000E+00 0. -1.
         11    1    3    3    0    0  0.52767150986E+02  0.56757803344E+01  0.11325055243E+03  0.12506907824E+03  0.00000000000E+00 0.  1.
<mgrwt>
<rscale>  0 0.52701621E+03</rscale>
<asrwt>0</asrwt>
<pdfrwt beam="1">  1        2 0.26244832E+00 0.52701621E+03</pdfrwt>
<pdfrwt beam="2">  1       -2 0.62620632E-02 0.52701621E+03</pdfrwt>
<totfact> 0.14495620E+03</totfact>
</mgrwt>
</event>
<event>
 8    1  0.8504141E-006  0.1755658E+03  0.7546771E-02  0.1178070E+00
         -3   -1    0    0    0  501 -0.00000000000E+00  0.00000000000E+00  0.15358736037E+03  0.15358736037E+03  0.00000000000E+00 0.  1.
          3   -1    0    0  501    0  0.00000000000E+00 -0.00000000000E+00 -0.18323522000E+03  0.18323522000E+03  0.00000000000E+00 0. -1.
         23    2    1    2    0    0 -0.13549257285E+02  0.12254043655E+03  0.16847028966E+02  0.17637221072E+03  0.12499437333E+03 0.  0.
         23    2    1    2    0    0  0.13549257285E+02 -0.12254043655E+03 -0.46494888601E+02  0.16045036965E+03  0.91557662114E+02 0.  0.
          5    1    3    3  502    0 -0.61568402979E+02  0.97511405289E+02  0.32321978406E+02  0.11985801056E+03  0.47000000000E+01 0.  1.
         -5    1    3    3    0  502  0.48019145695E+02  0.25029031265E+02 -0.15474949440E+02  0.56514200158E+02  0.47000000000E+01 0.  1.
        -11    1    4    4    0    0  0.47707892005E+02 -0.89935282084E+02 -0.49361955550E+02  0.11314150688E+03  0.00000000000E+00 0. -1.
         11    1    4    4    0    0 -0.34158634721E+02 -0.32605154470E+02  0.28670669498E+01  0.47308862773E+02  0.00000000000E+00 0.  1.
<mgrwt>
<rscale>  0 0.16978671E+03</rscale>
<asrwt>0</asrwt>
<pdfrwt beam="2">  1        3 0.28190034E-01 0.17556575E+03</pdfrwt>
<pdfrwt beam="1">  1       -3 0.23628825E-01 0.17556575E+03</pdfrwt>
<totfact> 0.48185378E+02</totfact>
</mgrwt>
</event>
<event>
 8    1  0.8504141E-006  0.1336170E+03  0.7546771E-02  0.1233618E+00
         -1   -1    0    0    0  501 -0.00000000000E+00  0.00000000000E+00  0.31463882673E+02  0.31463882673E+02  0.00000000000E+00 0.  1.
          1   -1    0    0  501    0  0.00000000000E+00 -0.00000000000E+00 -0.45418245915E+03  0.45418245915E+03  0.00000000000E+00 0. -1.
         23    2    1    2    0    0 -0.20259981750E+02 -0.42641858063E+02 -0.24038974029E+03  0.27502859379E+03  0.12499882097E+03 0.  0.
         23    2    1    2    0    0  0.20259981750E+02  0.42641858063E+02 -0.18232883619E+03  0.21061774803E+03  0.94272139907E+02 0.  0.
          5    1    3    3  502    0 -0.57408619678E+02  0.23215430600E+01 -0.18747369790E+03  0.19613672930E+03  0.47000000000E+01 0. -1.
         -5    1    3    3    0  502  0.37148637928E+02 -0.44963401123E+02 -0.52916042392E+02  0.78891864491E+02  0.47000000000E+01 0. -1.
        -11    1    4    4    0    0 -0.24898632570E+01 -0.20425921386E+02 -0.11034478442E+03  0.11224700054E+03  0.00000000000E+00 0. -1.
         11    1    4    4    0    0  0.22749845007E+02  0.63067779449E+02 -0.71984051770E+02  0.98370747490E+02  0.00000000000E+00 0.  1.
<mgrwt>
<rscale>  0 0.12593313E+03</rscale>
<asrwt>0</asrwt>
<pdfrwt beam="2">  1        1 0.69874226E-01 0.13361699E+03</pdfrwt>
<pdfrwt beam="1">  1       -1 0.48405972E-02 0.13361699E+03</pdfrwt>
<totfact> 0.90237270E+03</totfact>
</mgrwt>
</event>
<event>
 8    1  0.8504141E-006  0.1426018E+03  0.7546771E-02  0.1220597E+00
          1   -1    0    0  501    0  0.00000000000E+00  0.00000000000E+00  0.10994058770E+03  0.10994058770E+03  0.00000000000E+00 0. -1.
         -1   -1    0    0    0  501 -0.00000000000E+00 -0.00000000000E+00 -0.15529840309E+03  0.15529840309E+03  0.00000000000E+00 0.  1.
         23    2    1    2    0    0  0.31989655956E+02 -0.60724476455E+02  0.75146622479E+00  0.14260378119E+03  0.12499789430E+03 0.  0.
         23    2    1    2    0    0 -0.31989655956E+02  0.60724476455E+02 -0.46109281613E+02  0.12263520960E+03  0.90567812456E+02 0.  0.
          5    1    3    3  502    0  0.31198243608E+02 -0.48633186430E+02 -0.58254214926E+02  0.82183701445E+02  0.47000000000E+01 0.  1.
         -5    1    3    3    0  502  0.79141234766E+00 -0.12091290026E+02  0.59005681150E+02  0.60420079742E+02  0.47000000000E+01 0.  1.
        -11    1    4    4    0    0  0.25900521390E+02  0.15514045704E+02 -0.38299805849E+02  0.48768819449E+02  0.00000000000E+00 0. -1.
         11    1    4    4    0    0 -0.57890177346E+02  0.45210430751E+02 -0.78094757646E+01  0.73866390148E+02  0.00000000000E+00 0.  1.
<mgrwt>
<rscale>  0 0.13473286E+03</rscale>
<asrwt>0</asrwt>
<pdfrwt beam="1">  1        1 0.16913937E-01 0.14260180E+03</pdfrwt>
<pdfrwt beam="2">  1       -1 0.23892062E-01 0.14260180E+03</pdfrwt>
<totfact> 0.45822650E+03</totfact>
</mgrwt>
</event>
<event>
 8    1  0.8504141E-006  0.1494145E+03  0.7546771E-02  0.1210214E+00
          1   -1    0    0  501    0  0.00000000000E+00  0.00000000000E+00  0.19132964675E+03  0.19132964675E+03  0.00000000000E+00 0. -1.
         -1   -1    0    0    0  501 -0.00000000000E+00 -0.00000000000E+00 -0.97495972988E+02  0.97495972988E+02  0.00000000000E+00 0.  1.
         23    2    1    2    0    0  0.39672789012E+02 -0.71598098578E+02  0.41312783200E+02  0.15502073095E+03  0.12499785223E+03 0.  0.
         23    2    1    2    0    0 -0.39672789012E+02  0.71598098578E+02  0.52520890567E+02  0.13380488879E+03  0.91897151265E+02 0.  0.
          5    1    3    3  502    0 -0.34613898575E+02 -0.63956119289E+02  0.32095716803E+02  0.79628714709E+02  0.47000000000E+01 0. -1.
         -5    1    3    3    0  502  0.74286687587E+02 -0.76419792890E+01  0.92170663971E+01  0.75392016242E+02  0.47000000000E+01 0. -1.
        -11    1    4    4    0    0  0.11248468567E+02  0.36706657777E+02  0.60407335419E+02  0.71574806620E+02  0.00000000000E+00 0. -1.
         11    1    4    4    0    0 -0.50921257580E+02  0.34891440801E+02 -0.78864448526E+01  0.62230082171E+02  0.00000000000E+00 0.  1.
<mgrwt>
<rscale>  0 0.14234074E+03</rscale>
<asrwt>0</asrwt>
<pdfrwt beam="1">  1        1 0.29435330E-01 0.14941446E+03</pdfrwt>
<pdfrwt beam="2">  1       -1 0.14999380E-01 0.14941446E+03</pdfrwt>
<totfact> 0.48013883E+03</totfact>
</mgrwt>
</event>
<event>
 8    1  0.8504141E-006  0.1481368E+03  0.7546771E-02  0.1212333E+00
          1   -1    0    0  501    0  0.00000000000E+00  0.00000000000E+00  0.29739712944E+03  0.29739712944E+03  0.00000000000E+00 0. -1.
         -1   -1    0    0    0  501 -0.00000000000E+00 -0.00000000000E+00 -0.71380848742E+02  0.71380848742E+02  0.00000000000E+00 0.  1.
         23    2    1    2    0    0  0.75973906172E+02 -0.23400604384E+02  0.52001816998E+02  0.15699904251E+03  0.12499955070E+03 0.  0.
         23    2    1    2    0    0 -0.75973906172E+02  0.23400604384E+02  0.17401446370E+03  0.21177893567E+03  0.90827646189E+02 0.  0.
          5    1    3    3  502    0  0.73014837020E+02 -0.65635581669E+02  0.12825917965E+02  0.99125123848E+02  0.47000000000E+01 0. -1.
         -5    1    3    3    0  502  0.29590691517E+01  0.42234977285E+02  0.39175899033E+02  0.57873918665E+02  0.47000000000E+01 0. -1.
        -11    1    4    4    0    0 -0.52357613473E+02 -0.94835728309E+01  0.27742680154E+02  0.60007617386E+02  0.00000000000E+00 0.  1.
         11    1    4    4    0    0 -0.23616292699E+02  0.32884177215E+02  0.14627178355E+03  0.15177131829E+03  0.00000000000E+00 0. -1.
<mgrwt>
<rscale>  0 0.14074306E+03</rscale>
<asrwt>0</asrwt>
<pdfrwt beam="1">  1        1 0.45753404E-01 0.14813680E+03</pdfrwt>
<pdfrwt beam="2">  1       -1 0.10981669E-01 0.14813680E+03</pdfrwt>
<totfact> 0.45046046E+03</totfact>
</mgrwt>
</event>
<event>
 8    1  0.8504141E-006  0.1363740E+03  0.7546771E-02  0.1230324E+00
          3   -1    0    0  501    0  0.00000000000E+00  0.00000000000E+00  0.23363223622E+03  0.23363223622E+03  0.00000000000E+00 0. -1.
         -3   -1    0    0    0  501 -0.00000000000E+00 -0.00000000000E+00 -0.69935418132E+02  0.69935418132E+02  0.00000000000E+00 0.  1.
         23    2    1    2    0    0 -0.29527479001E+02  0.45826605355E+02  0.43314687905E+02  0.14308751732E+03  0.12500370255E+03 0.  0.
         23    2    1    2    0    0  0.29527479001E+02 -0.45826605355E+02  0.12038213018E+03  0.16048013702E+03  0.91049806909E+02 0.  0.
          5    1    3    3  502    0 -0.19225019558E+02  0.18815143092E+01  0.81431353896E+02  0.83823009195E+02  0.47000000000E+01 0. -1.
         -5    1    3    3    0  502 -0.10302459443E+02  0.43945091046E+02 -0.38116665991E+02  0.59264508130E+02  0.47000000000E+01 0. -1.
        -11    1    4    4    0    0  0.81141672635E+01 -0.69850191111E+02  0.10047770169E+03  0.12264035814E+03  0.00000000000E+00 0.  1.
         11    1    4    4    0    0  0.21413311738E+02  0.24023585756E+02  0.19904428487E+02  0.37839778879E+02  0.00000000000E+00 0. -1.
<mgrwt>
<rscale>  0 0.12808574E+03</rscale>
<asrwt>0</asrwt>
<pdfrwt beam="1">  1        3 0.35943421E-01 0.13637403E+03</pdfrwt>
<pdfrwt beam="2">  1       -3 0.10759295E-01 0.13637403E+03</pdfrwt>
<totfact> 0.11487722E+03</totfact>
</mgrwt>
</event>
<event>
 8    1  0.8504141E-006  0.1600189E+03  0.7546771E-02  0.1195915E+00
         -4   -1    0    0    0  501 -0.00000000000E+00  0.00000000000E+00  0.10176242537E+04  0.10176242537E+04  0.00000000000E+00 0. -1.
          4   -1    0    0  501    0  0.00000000000E+00 -0.00000000000E+00 -0.23582815717E+02  0.23582815717E+02  0.00000000000E+00 0.  1.
         23    2    1    2    0    0  0.43385292042E+01 -0.99815408776E+02  0.68398600012E+03  0.70245491312E+03  0.12499647174E+03 0.  0.
         23    2    1    2    0    0 -0.43385292042E+01  0.99815408776E+02  0.31005543782E+03  0.33875215625E+03  0.92933902193E+02 0.  0.
          5    1    3    3  502    0 -0.53956786256E+02 -0.73884368843E+02  0.48028997659E+03  0.48894865411E+03  0.47000000000E+01 0.  1.
         -5    1    3    3    0  502  0.58295315461E+02 -0.25931039934E+02  0.20369602352E+03  0.21350625901E+03  0.47000000000E+01 0.  1.
        -11    1    4    4    0    0  0.39393034819E+02  0.17362574945E+02  0.92948613121E+02  0.10243395376E+03  0.00000000000E+00 0.  1.
         11    1    4    4    0    0 -0.43731564023E+02  0.82452833831E+02  0.21710682470E+03  0.23631820249E+03  0.00000000000E+00 0. -1.
<mgrwt>
<rscale>  0 0.15377015E+03</rscale>
<asrwt>0</asrwt>
<pdfrwt beam="2">  1        4 0.36281263E-02 0.16001893E+03</pdfrwt>
<pdfrwt beam="1">  1       -4 0.15655754E+00 0.16001893E+03</pdfrwt>
<totfact> 0.19573675E+02</totfact>
</mgrwt>
</event>
<event>
 8    1  0.8504141E-006  0.1417736E+03  0.7546771E-02  0.1223519E+00
          2   -1    0    0  501    0  0.00000000000E+00  0.00000000000E+00  0.30774709122E+03  0.30774709122E+03  0.00000000000E+00 0. -1.
         -2   -1    0    0    0  501 -0.00000000000E+00 -0.00000000000E+00 -0.60152020871E+02  0.60152020871E+02  0.00000000000E+00 0.  1.
         23    2    1    2    0    0 -0.47129671750E+02 -0.47466756890E+02  0.66387828436E+02  0.15654745264E+03  0.12500184876E+03 0.  0.
         23    2    1    2    0    0  0.47129671750E+02  0.47466756890E+02  0.18120724191E+03  0.21135165945E+03  0.85785549263E+02 0.  0.
          5    1    3    3  502    0  0.35685126598E+02 -0.42168431299E+02  0.43118377925E+02  0.70234531204E+02  0.47000000000E+01 0.  1.
         -5    1    3    3    0  502 -0.82814798348E+02 -0.52983255904E+01  0.23269450510E+02  0.86312921435E+02  0.47000000000E+01 0.  1.
        -11    1    4    4    0    0  0.23470737936E+02  0.18490660363E+02  0.16955977882E+03  0.17217229351E+03  0.00000000000E+00 0. -1.
         11    1    4    4    0    0  0.23658933815E+02  0.28976096526E+02  0.11647463099E+02  0.39179365944E+02  0.00000000000E+00 0.  1.
<mgrwt>
<rscale>  0 0.13268919E+03</rscale>
<asrwt>0</asrwt>
<pdfrwt beam="1">  1        2 0.47345706E-01 0.14177363E+03</pdfrwt>
<pdfrwt beam="2">  1       -2 0.92541572E-02 0.14177363E+03</pdfrwt>
<totfact> 0.76194770E+03</totfact>
</mgrwt>
</event>
<event>
 8    1  0.8504141E-006  0.1394657E+03  0.7546771E-02  0.1225644E+00
         -1   -1    0    0    0  501 -0.00000000000E+00  0.00000000000E+00  0.44096184908E+02  0.44096184908E+02  0.00000000000E+00 0.  1.
          1   -1    0    0  501    0  0.00000000000E+00 -0.00000000000E+00 -0.40313820075E+03  0.40313820075E+03  0.00000000000E+00 0. -1.
         23    2    1    2    0    0  0.55121730560E+02  0.28091022030E+02 -0.11848561958E+03  0.18300139255E+03  0.12499262749E+03 0.  0.
         23    2    1    2    0    0 -0.55121730560E+02 -0.28091022030E+02 -0.24055639626E+03  0.26423299311E+03  0.90134256359E+02 0.  0.
          5    1    3    3  502    0  0.18389614966E+02  0.67747847452E+02 -0.10616436366E+03  0.12736133983E+03  0.47000000000E+01 0.  1.
         -5    1    3    3    0  502  0.36732115593E+02 -0.39656825421E+02 -0.12321255924E+02  0.55640052714E+02  0.47000000000E+01 0.  1.
        -11    1    4    4    0    0  0.15404463154E+02  0.17222358183E+02 -0.77771643008E+02  0.81131594109E+02  0.00000000000E+00 0. -1.
         11    1    4    4    0    0 -0.70526193713E+02 -0.45313380214E+02 -0.16278475325E+03  0.18310139900E+03  0.00000000000E+00 0.  1.
<mgrwt>
<rscale>  0 0.13122879E+03</rscale>
<asrwt>0</asrwt>
<pdfrwt beam="2">  1        1 0.62021262E-01 0.13946565E+03</pdfrwt>
<pdfrwt beam="1">  1       -1 0.67840284E-02 0.13946565E+03</pdfrwt>
<totfact> 0.63737538E+03</totfact>
</mgrwt>
</event>
<event>
 8    1  0.8504141E-006  0.1273520E+03  0.7546771E-02  0.1245898E+00
         -3   -1    0    0    0  501 -0.00000000000E+00  0.00000000000E+00  0.22500094833E+02  0.22500094833E+02  0.00000000000E+00 0.  1.
          3   -1    0    0  501    0  0.00000000000E+00 -0.00000000000E+00 -0.59879666919E+03  0.59879666919E+03  0.00000000000E+00 0. -1.
         23    2    1    2    0    0  0.22716973817E+02  0.89082211572E+01 -0.23780748455E+03  0.26976089280E+03  0.12499248888E+03 0.  0.
         23    2    1    2    0    0 -0.22716973817E+02 -0.89082211572E+01 -0.33848908982E+03  0.35153587122E+03  0.91690716708E+02 0.  0.
          5    1    3    3  502    0  0.48407085855E+02 -0.25264831421E+02 -0.41361409268E+02  0.68661589294E+02  0.47000000000E+01 0. -1.
         -5    1    3    3    0  502 -0.25690112039E+02  0.34173052578E+02 -0.19644607528E+03  0.20109930351E+03  0.47000000000E+01 0. -1.
        -11    1    4    4    0    0 -0.32459094949E+02  0.35491337404E+02 -0.20320571261E+03  0.20881999309E+03  0.00000000000E+00 0. -1.
         11    1    4    4    0    0  0.97421211318E+01 -0.44399558561E+02 -0.13528337720E+03  0.14271587814E+03  0.00000000000E+00 0.  1.
<mgrwt>
<rscale>  0 0.11831789E+03</rscale>
<asrwt>0</asrwt>
<pdfrwt beam="2">  1        3 0.92122544E-01 0.12735203E+03</pdfrwt>
<pdfrwt beam="1">  1       -3 0.34615538E-02 0.12735203E+03</pdfrwt>
<totfact> 0.10165348E+03</totfact>
</mgrwt>
</event>
<event>
 8    1  0.8504141E-006  0.1828893E+03  0.7546771E-02  0.1170516E+00
          2   -1    0    0  501    0  0.00000000000E+00  0.00000000000E+00  0.68271070336E+03  0.68271070336E+03  0.00000000000E+00 0. -1.
         -2   -1    0    0    0  501 -0.00000000000E+00 -0.00000000000E+00 -0.46518360435E+02  0.46518360435E+02  0.00000000000E+00 0.  1.
         23    2    1    2    0    0 -0.47040235660E+01 -0.13343038290E+03  0.43138193127E+03  0.46854976520E+03  0.12499086736E+03 0.  0.
         23    2    1    2    0    0  0.47040235660E+01  0.13343038290E+03  0.20481041165E+03  0.26067929860E+03  0.90446653201E+02 0.  0.
          5    1    3    3  502    0  0.28576728918E+02  0.10508039434E+02  0.11961053362E+03  0.12351444483E+03  0.47000000000E+01 0.  1.
         -5    1    3    3    0  502 -0.33280752484E+02 -0.14393842234E+03  0.31177139765E+03  0.34503532037E+03  0.47000000000E+01 0.  1.
        -11    1    4    4    0    0  0.18872972026E+02  0.15319505231E+02  0.97457650019E+02  0.10044336643E+03  0.00000000000E+00 0. -1.
         11    1    4    4    0    0 -0.14168948460E+02  0.11811087767E+03  0.10735276164E+03  0.16023593216E+03  0.00000000000E+00 0.  1.
<mgrwt>
<rscale>  0 0.17722554E+03</rscale>
<asrwt>0</asrwt>
<pdfrwt beam="1">  1        2 0.10503241E+00 0.18288934E+03</pdfrwt>
<pdfrwt beam="2">  1       -2 0.71566713E-02 0.18288934E+03</pdfrwt>
<totfact> 0.47815200E+03</totfact>
</mgrwt>
</event>
<event>
 8    1  0.8504141E-006  0.1694737E+03  0.7546771E-02  0.1184569E+00
         -3   -1    0    0    0  501 -0.00000000000E+00  0.00000000000E+00  0.76086459279E+03  0.76086459279E+03  0.00000000000E+00 0.  1.
          3   -1    0    0  501    0  0.00000000000E+00 -0.00000000000E+00 -0.55370781364E+02  0.55370781364E+02  0.00000000000E+00 0. -1.
         23    2    1    2    0    0  0.10853235726E+03 -0.36265276857E+02  0.62615816873E+03  0.64868744444E+03  0.12500762150E+03 0.  0.
         23    2    1    2    0    0 -0.10853235726E+03  0.36265276857E+02  0.79335642697E+02  0.16754792971E+03  0.93186488663E+02 0.  0.
          5    1    3    3  502    0  0.41157748909E+02 -0.39339390180E+01  0.50182965460E+03  0.50355191233E+03  0.47000000000E+01 0. -1.
         -5    1    3    3    0  502  0.67374608355E+02 -0.32331337839E+02  0.12432851413E+03  0.14513553212E+03  0.47000000000E+01 0. -1.
        -11    1    4    4    0    0 -0.23481242791E+02  0.54090033449E+02  0.19766006836E+02  0.62191603193E+02  0.00000000000E+00 0.  1.
         11    1    4    4    0    0 -0.85051114473E+02 -0.17824756592E+02  0.59569635861E+02  0.10535632652E+03  0.00000000000E+00 0. -1.
<mgrwt>
<rscale>  0 0.16371161E+03</rscale>
<asrwt>0</asrwt>
<pdfrwt beam="2">  1        3 0.85185823E-02 0.16947374E+03</pdfrwt>
<pdfrwt beam="1">  1       -3 0.11705608E+00 0.16947374E+03</pdfrwt>
<totfact> 0.14497367E+02</totfact>
</mgrwt>
</event>
<event>
 8    1  0.8504141E-006  0.1321112E+03  0.7546771E-02  0.1237675E+00
         -2   -1    0    0    0  501 -0.00000000000E+00  0.00000000000E+00  0.24830778023E+02  0.24830778023E+02  0.00000000000E+00 0.  1.
          2   -1    0    0  501    0  0.00000000000E+00 -0.00000000000E+00 -0.54673855977E+03  0.54673855977E+03  0.00000000000E+00 0. -1.
         23    2    1    2    0    0 -0.30263357157E+02  0.30185753996E+02 -0.27733798843E+03  0.30719655101E+03  0.12500524228E+03 0.  0.
         23    2    1    2    0    0  0.30263357157E+02 -0.30185753996E+02 -0.24456979332E+03  0.26437278679E+03  0.90837965940E+02 0.  0.
          5    1    3    3  502    0 -0.30045298367E+02 -0.18054747149E+02 -0.24806481406E+03  0.25057321450E+03  0.47000000000E+01 0. -1.
         -5    1    3    3    0  502 -0.21805879029E+00  0.48240501145E+02 -0.29273174364E+02  0.56623336511E+02  0.47000000000E+01 0. -1.
        -11    1    4    4    0    0  0.56931265300E+02 -0.34009238494E+02 -0.12181425491E+03  0.13869574605E+03  0.00000000000E+00 0.  1.
         11    1    4    4    0    0 -0.26667908143E+02  0.38234844985E+01 -0.12275553841E+03  0.12567704074E+03  0.00000000000E+00 0. -1.
<mgrwt>
<rscale>  0 0.12334729E+03</rscale>
<asrwt>0</asrwt>
<pdfrwt beam="2">  1        2 0.84113613E-01 0.13211117E+03</pdfrwt>
<pdfrwt beam="1">  1       -2 0.38201202E-02 0.13211117E+03</pdfrwt>
<totfact> 0.15636707E+04</totfact>
</mgrwt>
</event>
<event>
 7    1  0.8504141E-006  0.1403606E+03  0.7546771E-02  0.1248274E+00
         -1   -1    0    0    0  501 -0.00000000000E+00  0.00000000000E+00  0.18072634386E+02  0.18072634386E+02  0.00000000000E+00 0.  1.
          1   -1    0    0  501    0  0.00000000000E+00 -0.00000000000E+00 -0.65146050009E+03  0.65146050009E+03  0.00000000000E+00 0. -1.
         23    2    1    2    0    0  0.42691480109E+02 -0.47622393747E+02 -0.32819184839E+03  0.35694677442E+03  0.12494260906E+03 0.  0.
          5    1    3    3  502    0 -0.30788446134E+02 -0.32434929430E+02 -0.43754037997E+02  0.62741205786E+02  0.47000000000E+01 0. -1.
         -5    1    3    3    0  502  0.73479926243E+02 -0.15187464317E+02 -0.28443781039E+03  0.29420556863E+03  0.47000000000E+01 0. -1.
        -11    1    1    2    0    0 -0.27591561915E+02  0.17344169420E+02 -0.12119268744E+03  0.12549813541E+03  0.00000000000E+00 0.  1.
         11    1    1    2    0    0 -0.15099918194E+02  0.30278224327E+02 -0.18400332988E+03  0.18708822465E+03  0.00000000000E+00 0. -1.
<mgrwt>
<rscale>  0 0.11691535E+03</rscale>
<asrwt>0</asrwt>
<pdfrwt beam="2">  1        1 0.10022470E+00 0.14036064E+03</pdfrwt>
<pdfrwt beam="1">  1       -1 0.27804051E-02 0.14036064E+03</pdfrwt>
<totfact> 0.12618691E+04</totfact>
</mgrwt>
</event>
<event>
 7    1  0.8504141E-006  0.1423463E+03  0.7546771E-02  0.1230084E+00
          2   -1    0    0  501    0  0.00000000000E+00  0.00000000000E+00  0.10458907575E+03  0.10458907575E+03  0.00000000000E+00 0. -1.
         -2   -1    0    0    0  501 -0.00000000000E+00 -0.00000000000E+00 -0.13338116830E+03  0.13338116830E+03  0.00000000000E+00 0.  1.
         23    2    1    2    0    0  0.29258792367E+01  0.18015216144E+02 -0.14722943804E+02  0.94930390260E+02  0.91988614179E+02 0.  0.
          5    1    1    2  502    0 -0.31814616052E+02  0.34935119376E+02  0.39856776501E+02  0.61994233550E+02  0.47000000000E+01 0. -1.
         -5    1    1    2    0  502  0.28888736815E+02 -0.52950335520E+02 -0.53925925241E+02  0.81045620237E+02  0.47000000000E+01 0.  1.
        -11    1    3    3    0    0  0.72632622709E+00 -0.31010372316E+02  0.18078409871E+02  0.35902641190E+02  0.00000000000E+00 0.  1.
         11    1    3    3    0    0  0.21995530096E+01  0.49025588460E+02 -0.32801353675E+02  0.59027749069E+02  0.00000000000E+00 0. -1.
<mgrwt>
<rscale>  0 0.12824461E+03</rscale>
<asrwt>0</asrwt>
<pdfrwt beam="1">  1        2 0.16090627E-01 0.14234626E+03</pdfrwt>
<pdfrwt beam="2">  1       -2 0.20520180E-01 0.14234626E+03</pdfrwt>
<totfact> 0.68478592E+03</totfact>
</mgrwt>
</event>
<event>
 8    1  0.8504141E-006  0.1362358E+03  0.7546771E-02  0.1232067E+00
          2   -1    0    0  501    0  0.00000000000E+00  0.00000000000E+00  0.36415849732E+03  0.36415849732E+03  0.00000000000E+00 0. -1.
         -2   -1    0    0    0  501 -0.00000000000E+00 -0.00000000000E+00 -0.48321439541E+02  0.48321439541E+02  0.00000000000E+00 0.  1.
         23    2    1    2    0    0  0.54163685342E+02  0.51357096088E+00  0.86966762115E+02  0.16162739203E+03  0.12500491021E+03 0.  0.
         23    2    1    2    0    0 -0.54163685342E+02 -0.51357096088E+00  0.22887029566E+03  0.25085254482E+03  0.87243443562E+02 0.  0.
          5    1    3    3  502    0  0.85012560289E+02 -0.31889883252E+02  0.52805160972E+02  0.10514073942E+03  0.47000000000E+01 0.  1.
         -5    1    3    3    0  502 -0.30848874948E+02  0.32403454213E+02  0.34161601143E+02  0.56486652610E+02  0.47000000000E+01 0.  1.
        -11    1    4    4    0    0 -0.62085972492E+02  0.31497274704E+02  0.16028301116E+03  0.17474950632E+03  0.00000000000E+00 0.  1.
         11    1    4    4    0    0  0.79222871504E+01 -0.32010845665E+02  0.68587284500E+02  0.76103038500E+02  0.00000000000E+00 0. -1.
<mgrwt>
<rscale>  0 0.12694081E+03</rscale>
<asrwt>0</asrwt>
<pdfrwt beam="1">  1        2 0.56024382E-01 0.13623581E+03</pdfrwt>
<pdfrwt beam="2">  1       -2 0.74340679E-02 0.13623581E+03</pdfrwt>
<totfact> 0.89226099E+03</totfact>
</mgrwt>
</event>
<event>
 8    1  0.8504141E-006  0.2104292E+03  0.7546771E-02  0.1145057E+00
         -1   -1    0    0    0  501 -0.00000000000E+00  0.00000000000E+00  0.55184548882E+02  0.55184548882E+02  0.00000000000E+00 0.  1.
          1   -1    0    0  501    0  0.00000000000E+00 -0.00000000000E+00 -0.83427683113E+03  0.83427683113E+03  0.00000000000E+00 0. -1.
         23    2    1    2    0    0 -0.11154591277E+03 -0.12733221506E+03 -0.25085888088E+03  0.32743031564E+03  0.12499779933E+03 0.  0.
         23    2    1    2    0    0  0.11154591277E+03  0.12733221506E+03 -0.52823340137E+03  0.56203106437E+03  0.90511918239E+02 0.  0.
          5    1    3    3  502    0  0.85912709442E+01  0.14679267276E+02 -0.52831021231E+02  0.55700068479E+02  0.47000000000E+01 0.  1.
         -5    1    3    3    0  502 -0.12013718372E+03 -0.14201148234E+03 -0.19802785965E+03  0.27173024717E+03  0.47000000000E+01 0.  1.
        -11    1    4    4    0    0  0.89488023363E+02  0.46767019617E+02 -0.20993551140E+03  0.23295531631E+03  0.00000000000E+00 0.  1.
         11    1    4    4    0    0  0.22057889411E+02  0.80565195446E+02 -0.31829788997E+03  0.32907574806E+03  0.00000000000E+00 0. -1.
<mgrwt>
<rscale>  0 0.20565144E+03</rscale>
<asrwt>0</asrwt>
<pdfrwt beam="2">  1        1 0.12835028E+00 0.21042917E+03</pdfrwt>
<pdfrwt beam="1">  1       -1 0.84899306E-02 0.21042917E+03</pdfrwt>
<totfact> 0.16912836E+03</totfact>
</mgrwt>
</event>
<event>
 8    1  0.8504141E-006  0.1272262E+03  0.7546771E-02  0.1247961E+00
          2   -1    0    0  501    0  0.00000000000E+00  0.00000000000E+00  0.44636584759E+03  0.44636584759E+03  0.00000000000E+00 0. -1.
         -2   -1    0    0    0  501 -0.00000000000E+00 -0.00000000000E+00 -0.34473303369E+02  0.34473303369E+02  0.00000000000E+00 0.  1.
         23    2    1    2    0    0  0.19886961846E+02  0.12877112921E+02  0.11958900069E+03  0.17460822238E+03  0.12500076379E+03 0.  0.
         23    2    1    2    0    0 -0.19886961846E+02 -0.12877112921E+02  0.29230354353E+03  0.30623092858E+03  0.88174309008E+02 0.  0.
          5    1    3    3  502    0  0.30950564583E+02 -0.42449838531E+02  0.10282003343E+03  0.11555940253E+03  0.47000000000E+01 0.  1.
         -5    1    3    3    0  502 -0.11063602737E+02  0.55326951452E+02  0.16768967263E+02  0.59048819849E+02  0.47000000000E+01 0.  1.
        -11    1    4    4    0    0 -0.27896405842E+02 -0.46680539465E+02  0.20933390620E+03  0.21628214561E+03  0.00000000000E+00 0.  1.
         11    1    4    4    0    0  0.80094439962E+01  0.33803426544E+02  0.82969637332E+02  0.89948782972E+02  0.00000000000E+00 0. -1.
<mgrwt>
<rscale>  0 0.11709874E+03</rscale>
<asrwt>0</asrwt>
<pdfrwt beam="1">  1        2 0.68671665E-01 0.12722619E+03</pdfrwt>
<pdfrwt beam="2">  1       -2 0.53035855E-02 0.12722619E+03</pdfrwt>
<totfact> 0.11929750E+04</totfact>
</mgrwt>
</event>
<event>
 7    1  0.8504141E-006  0.2044570E+03  0.7546771E-02  0.1154553E+00
          2   -1    0    0  501    0  0.00000000000E+00  0.00000000000E+00  0.15418362433E+04  0.15418362433E+04  0.00000000000E+00 0. -1.
         -2   -1    0    0    0  501 -0.00000000000E+00 -0.00000000000E+00 -0.23159885691E+02  0.23159885691E+02  0.00000000000E+00 0.  1.
         23    2    1    2    0    0 -0.36647957707E+02 -0.11780854957E+03  0.54305705067E+03  0.56818337001E+03  0.11269185646E+03 0.  0.
          5    1    3    3  502    0  0.25024302878E+02 -0.98290508696E+02  0.35629991960E+03  0.37048476695E+03  0.47000000000E+01 0. -1.
         -5    1    3    3    0  502 -0.61672260585E+02 -0.19518040876E+02  0.18675713107E+03  0.19769860306E+03  0.47000000000E+01 0.  1.
        -11    1    1    2    0    0  0.46248679066E+02  0.14965256415E+03  0.90850731077E+03  0.92191125603E+03  0.00000000000E+00 0.  1.
         11    1    1    2    0    0 -0.96007213588E+01 -0.31844014581E+02  0.67111996178E+02  0.74901502964E+02  0.00000000000E+00 0. -1.
<mgrwt>
<rscale>  0 0.19439877E+03</rscale>
<asrwt>0</asrwt>
<pdfrwt beam="1">  1        2 0.23720550E+00 0.20445695E+03</pdfrwt>
<pdfrwt beam="2">  1       -2 0.35630605E-02 0.20445695E+03</pdfrwt>
<totfact> 0.42251370E+03</totfact>
</mgrwt>
</event>
<event>
 8    1  0.8504141E-006  0.1817455E+03  0.7546771E-02  0.1171817E+00
          1   -1    0    0  501    0  0.00000000000E+00  0.00000000000E+00  0.23064151995E+02  0.23064151995E+02  0.00000000000E+00 0. -1.
         -1   -1    0    0    0  501 -0.00000000000E+00 -0.00000000000E+00 -0.12887448935E+04  0.12887448935E+04  0.00000000000E+00 0.  1.
         23    2    1    2    0    0  0.61941849329E+02 -0.11649282198E+03 -0.57956690896E+03  0.60739544293E+03  0.12499620735E+03 0.  0.
         23    2    1    2    0    0 -0.61941849329E+02  0.11649282198E+03 -0.68611383251E+03  0.70441360254E+03  0.89660258772E+02 0.  0.
          5    1    3    3  502    0  0.97218417285E+02 -0.68486962023E+02 -0.43444389126E+03  0.45045029613E+03  0.47000000000E+01 0. -1.
         -5    1    3    3    0  502 -0.35276567956E+02 -0.48005859961E+02 -0.14512301770E+03  0.15694514680E+03  0.47000000000E+01 0. -1.
        -11    1    4    4    0    0 -0.96986701065E+01  0.10529730523E+03 -0.47724328341E+03  0.48881769429E+03  0.00000000000E+00 0.  1.
         11    1    4    4    0    0 -0.52243179222E+02  0.11195516749E+02 -0.20887054910E+03  0.21559590825E+03  0.00000000000E+00 0. -1.
<mgrwt>
<rscale>  0 0.17591419E+03</rscale>
<asrwt>0</asrwt>
<pdfrwt beam="1">  1        1 0.35483314E-02 0.18174549E+03</pdfrwt>
<pdfrwt beam="2">  1       -1 0.19826843E+00 0.18174549E+03</pdfrwt>
<totfact> 0.46046305E+02</totfact>
</mgrwt>
</event>
<event>
 8    1  0.8504141E-006  0.1643451E+03  0.7546771E-02  0.1190410E+00
          1   -1    0    0  501    0  0.00000000000E+00  0.00000000000E+00  0.55490465145E+03  0.55490465145E+03  0.00000000000E+00 0. -1.
         -1   -1    0    0    0  501 -0.00000000000E+00 -0.00000000000E+00 -0.43017225368E+02  0.43017225368E+02  0.00000000000E+00 0.  1.
         23    2    1    2    0    0  0.30707078976E+02  0.10218255003E+03  0.31205683311E+03  0.35268795553E+03  0.12500051463E+03 0.  0.
         23    2    1    2    0    0 -0.30707078976E+02 -0.10218255003E+03  0.19983059298E+03  0.24523392129E+03  0.93931954256E+02 0.  0.
          5    1    3    3  502    0  0.55580184534E+02  0.95818989549E+01  0.18486902358E+03  0.19333808621E+03  0.47000000000E+01 0. -1.
         -5    1    3    3    0  502 -0.24873105558E+02  0.92600651078E+02  0.12718780953E+03  0.15934986932E+03  0.47000000000E+01 0. -1.
        -11    1    4    4    0    0  0.32669134773E+02 -0.21037400323E+02  0.47460269700E+02  0.61337767967E+02  0.00000000000E+00 0.  1.
         11    1    4    4    0    0 -0.63376213750E+02 -0.81145149710E+02  0.15237032328E+03  0.18389615332E+03  0.00000000000E+00 0. -1.
<mgrwt>
<rscale>  0 0.15849169E+03</rscale>
<asrwt>0</asrwt>
<pdfrwt beam="1">  1        1 0.85369941E-01 0.16434515E+03</pdfrwt>
<pdfrwt beam="2">  1       -1 0.66180351E-02 0.16434515E+03</pdfrwt>
<totfact> 0.44065798E+03</totfact>
</mgrwt>
</event>
<event>
 8    1  0.8504141E-006  0.1346538E+03  0.7546771E-02  0.1233796E+00
         -4   -1    0    0    0  501 -0.00000000000E+00  0.00000000000E+00  0.44101868184E+03  0.44101868184E+03  0.00000000000E+00 0.  1.
          4   -1    0    0  501    0  0.00000000000E+00 -0.00000000000E+00 -0.33661633245E+02  0.33661633245E+02  0.00000000000E+00 0. -1.
         23    2    1    2    0    0 -0.40355870561E+02  0.29632547346E+02  0.17621284247E+03  0.22177151765E+03  0.12499982414E+03 0.  0.
         23    2    1    2    0    0  0.40355870561E+02 -0.29632547346E+02  0.23114420612E+03  0.25290879743E+03  0.89602073903E+02 0.  0.
          5    1    3    3  502    0 -0.46503345445E+02  0.67072451383E+02  0.65849685793E+02  0.10497402532E+03  0.47000000000E+01 0.  1.
         -5    1    3    3    0  502  0.61474748843E+01 -0.37439904038E+02  0.11036315668E+03  0.11679749233E+03  0.47000000000E+01 0.  1.
        -11    1    4    4    0    0  0.47949107528E+02  0.19655982516E+02  0.13490781286E+03  0.14451848509E+03  0.00000000000E+00 0. -1.
         11    1    4    4    0    0 -0.75932369675E+01 -0.49288529862E+02  0.96236393258E+02  0.10839031235E+03  0.00000000000E+00 0.  1.
<mgrwt>
<rscale>  0 0.12581845E+03</rscale>
<asrwt>0</asrwt>
<pdfrwt beam="2">  1        4 0.51787131E-02 0.13465378E+03</pdfrwt>
<pdfrwt beam="1">  1       -4 0.67849024E-01 0.13465378E+03</pdfrwt>
<totfact> 0.76103771E+02</totfact>
</mgrwt>
</event>
<event>
 8    1  0.8504141E-006  0.1256996E+03  0.7546771E-02  0.1249238E+00
         -2   -1    0    0    0  501 -0.00000000000E+00  0.00000000000E+00  0.29086235267E+02  0.29086235267E+02  0.00000000000E+00 0.  1.
          2   -1    0    0  501    0  0.00000000000E+00 -0.00000000000E+00 -0.40849925316E+03  0.40849925316E+03  0.00000000000E+00 0. -1.
         23    2    1    2    0    0  0.65763434941E+01 -0.11412694388E+02 -0.21533771839E+03  0.24934058440E+03  0.12500758449E+03 0.  0.
         23    2    1    2    0    0 -0.65763434941E+01  0.11412694388E+02 -0.16407529950E+03  0.18824490403E+03  0.91334232897E+02 0.  0.
          5    1    3    3  502    0 -0.42840758353E+02  0.10887874405E+02 -0.24211225716E+02  0.50617683037E+02  0.47000000000E+01 0. -1.
         -5    1    3    3    0  502  0.49417101847E+02 -0.22300568793E+02 -0.19112649267E+03  0.19872290136E+03  0.47000000000E+01 0. -1.
        -11    1    4    4    0    0 -0.32500887103E+02 -0.16961837772E+02 -0.13544566394E+03  0.14031941948E+03  0.00000000000E+00 0. -1.
         11    1    4    4    0    0  0.25924543608E+02  0.28374532160E+02 -0.28629635558E+02  0.47925484544E+02  0.00000000000E+00 0.  1.
<mgrwt>
<rscale>  0 0.11635267E+03</rscale>
<asrwt>0</asrwt>
<pdfrwt beam="2">  1        2 0.62846037E-01 0.12569962E+03</pdfrwt>
<pdfrwt beam="1">  1       -2 0.44748055E-02 0.12569962E+03</pdfrwt>
<totfact> 0.16902836E+04</totfact>
</mgrwt>
</event>
<event>
 8    1  0.8504141E-006  0.1538169E+03  0.7546771E-02  0.1204765E+00
         -2   -1    0    0    0  501 -0.00000000000E+00  0.00000000000E+00  0.25481089095E+02  0.25481089095E+02  0.00000000000E+00 0.  1.
          2   -1    0    0  501    0  0.00000000000E+00 -0.00000000000E+00 -0.80768864282E+03  0.80768864282E+03  0.00000000000E+00 0. -1.
         23    2    1    2    0    0 -0.89631346313E+02  0.76359855303E+00 -0.34055019112E+03  0.37367643759E+03  0.12500114405E+03 0.  0.
         23    2    1    2    0    0  0.89631346313E+02 -0.76359855303E+00 -0.44165736261E+03  0.45949329433E+03  0.89657683773E+02 0.  0.
          5    1    3    3  502    0 -0.10605040514E+03  0.33417499277E+02 -0.29364599718E+03  0.31402783212E+03  0.47000000000E+01 0. -1.
         -5    1    3    3    0  502  0.16419058826E+02 -0.32653900724E+02 -0.46904193939E+02  0.59648605468E+02  0.47000000000E+01 0. -1.
        -11    1    4    4    0    0  0.65228622693E+02 -0.40066677047E+02 -0.21658035217E+03  0.22971103755E+03  0.00000000000E+00 0.  1.
         11    1    4    4    0    0  0.24402723620E+02  0.39303078494E+02 -0.22507701044E+03  0.22978225678E+03  0.00000000000E+00 0. -1.
<mgrwt>
<rscale>  0 0.14655976E+03</rscale>
<asrwt>0</asrwt>
<pdfrwt beam="2">  1        2 0.12425981E+00 0.15381693E+03</pdfrwt>
<pdfrwt beam="1">  1       -2 0.39201670E-02 0.15381693E+03</pdfrwt>
<totfact> 0.96103593E+03</totfact>
</mgrwt>
</event>
<event>
 8    1  0.8504141E-006  0.1467969E+03  0.7546771E-02  0.1215675E+00
         -1   -1    0    0    0  501 -0.00000000000E+00  0.00000000000E+00  0.24033107792E+03  0.24033107792E+03  0.00000000000E+00 0.  1.
          1   -1    0    0  501    0  0.00000000000E+00 -0.00000000000E+00 -0.10156025480E+03  0.10156025480E+03  0.00000000000E+00 0. -1.
         23    2    1    2    0    0  0.50590722596E+02 -0.58018050094E+02  0.16760143677E+03  0.22279940890E+03  0.12499527851E+03 0.  0.
         23    2    1    2    0    0 -0.50590722596E+02  0.58018050094E+02 -0.28830613645E+02  0.11909192382E+03  0.86175209231E+02 0.  0.
          5    1    3    3  502    0  0.74829805152E+02  0.88500526885E+01  0.84451798947E+02  0.11327850421E+03  0.47000000000E+01 0. -1.
         -5    1    3    3    0  502 -0.24239082555E+02 -0.66868102783E+02  0.83149637825E+02  0.10952090469E+03  0.47000000000E+01 0. -1.
        -11    1    4    4    0    0 -0.13096915297E+02  0.42900882075E+02  0.25325303159E+02  0.51511026520E+02  0.00000000000E+00 0.  1.
         11    1    4    4    0    0 -0.37493807300E+02  0.15117168019E+02 -0.54155916804E+02  0.67580897298E+02  0.00000000000E+00 0. -1.
<mgrwt>
<rscale>  0 0.13827055E+03</rscale>
<asrwt>0</asrwt>
<pdfrwt beam="2">  1        1 0.15624655E-01 0.14679692E+03</pdfrwt>
<pdfrwt beam="1">  1       -1 0.36974012E-01 0.14679692E+03</pdfrwt>
<totfact> 0.24389236E+03</totfact>
</mgrwt>
</event>
<event>
 8    1  0.8504141E-006  0.1392736E+03  0.7546771E-02  0.1225366E+00
         -2   -1    0    0    0  501 -0.00000000000E+00  0.00000000000E+00  0.18718425895E+03  0.18718425895E+03  0.00000000000E+00 0.  1.
          2   -1    0    0  501    0  0.00000000000E+00 -0.00000000000E+00 -0.12628179356E+03  0.12628179356E+03  0.00000000000E+00 0. -1.
         23    2    1    2    0    0 -0.51550700031E+02  0.33425324627E+02  0.12384513089E+03  0.18637263700E+03  0.12498966508E+03 0.  0.
         23    2    1    2    0    0  0.51550700031E+02 -0.33425324627E+02 -0.62942665510E+02  0.12709341551E+03  0.91740013759E+02 0.  0.
          5    1    3    3  502    0 -0.54489527885E+02  0.38236427945E+02  0.14734553309E+03  0.16175267909E+03  0.47000000000E+01 0.  1.
         -5    1    3    3    0  502  0.29388278538E+01 -0.48111033183E+01 -0.23500402194E+02  0.24619957912E+02  0.47000000000E+01 0.  1.
        -11    1    4    4    0    0  0.59965315704E+02 -0.13328062940E+02 -0.10066046424E+01  0.61436874938E+02  0.00000000000E+00 0.  1.
         11    1    4    4    0    0 -0.84146156722E+01 -0.20097261686E+02 -0.61936060867E+02  0.65656540573E+02  0.00000000000E+00 0. -1.
<mgrwt>
<rscale>  0 0.13141847E+03</rscale>
<asrwt>0</asrwt>
<pdfrwt beam="2">  1        2 0.19427968E-01 0.13927363E+03</pdfrwt>
<pdfrwt beam="1">  1       -2 0.28797578E-01 0.13927363E+03</pdfrwt>
<totfact> 0.30523126E+03</totfact>
</mgrwt>
</event>
<event>
 7    1  0.8504141E-006  0.1406790E+03  0.7546771E-02  0.1226044E+00
          2   -1    0    0  501    0  0.00000000000E+00  0.00000000000E+00  0.30262804013E+03  0.30262804013E+03  0.00000000000E+00 0. -1.
         -2   -1    0    0    0  501 -0.00000000000E+00 -0.00000000000E+00 -0.87741983956E+02  0.87741983956E+02  0.00000000000E+00 0.  1.
         23    2    1    2    0    0  0.50930156491E+02  0.19451191942E+02  0.22577957633E+03  0.24926990252E+03  0.90481144487E+02 0.  0.
          5    1    1    2  502    0  0.40017479837E+02  0.14896805271E+02 -0.81871958311E+01  0.43731380899E+02  0.47000000000E+01 0. -1.
         -5    1    1    2    0  502 -0.90947636328E+02 -0.34347997213E+02 -0.27063243314E+01  0.97368740659E+02  0.47000000000E+01 0.  1.
        -11    1    3    3    0    0  0.88873541408E+01  0.42847357915E+02  0.47380288544E+02  0.64496301339E+02  0.00000000000E+00 0.  1.
         11    1    3    3    0    0  0.42042802350E+02 -0.23396165973E+02  0.17839928779E+03  0.18477360119E+03  0.00000000000E+00 0. -1.
<mgrwt>
<rscale>  0 0.13095600E+03</rscale>
<asrwt>0</asrwt>
<pdfrwt beam="1">  1        2 0.46558159E-01 0.14067898E+03</pdfrwt>
<pdfrwt beam="2">  1       -2 0.13498767E-01 0.14067898E+03</pdfrwt>
<totfact> 0.42559522E+03</totfact>
</mgrwt>
</event>
<event>
 8    1  0.8504141E-006  0.2101959E+03  0.7546771E-02  0.1145149E+00
          2   -1    0    0  501    0  0.00000000000E+00  0.00000000000E+00  0.35208553382E+03  0.35208553382E+03  0.00000000000E+00 0. -1.
         -2   -1    0    0    0  501 -0.00000000000E+00 -0.00000000000E+00 -0.13455057449E+03  0.13455057449E+03  0.00000000000E+00 0.  1.
         23    2    1    2    0    0  0.18117495532E+02  0.16799881492E+03  0.20165215406E+02  0.21116094339E+03  0.12502184867E+03 0.  0.
         23    2    1    2    0    0 -0.18117495532E+02 -0.16799881492E+03  0.19736974392E+03  0.27547516492E+03  0.91541822214E+02 0.  0.
          5    1    3    3  502    0  0.16983413755E+02  0.61056250305E+02 -0.51953543940E+02  0.82082658168E+02  0.47000000000E+01 0. -1.
         -5    1    3    3    0  502  0.11340817774E+01  0.10694256461E+03  0.72118759346E+02  0.12907828523E+03  0.47000000000E+01 0. -1.
        -11    1    4    4    0    0 -0.47201064876E+02 -0.55335685192E+02  0.10059232413E+03  0.12413216446E+03  0.00000000000E+00 0. -1.
         11    1    4    4    0    0  0.29083569344E+02 -0.11266312972E+03  0.96777419792E+02  0.15134300045E+03  0.00000000000E+00 0.  1.
<mgrwt>
<rscale>  0 0.20553848E+03</rscale>
<asrwt>0</asrwt>
<pdfrwt beam="1">  1        2 0.54167005E-01 0.21019588E+03</pdfrwt>
<pdfrwt beam="2">  1       -2 0.20700088E-01 0.21019588E+03</pdfrwt>
<totfact> 0.18047190E+03</totfact>
</mgrwt>
</event>
<event>
 8    1  0.8504141E-006  0.1904504E+03  0.7546771E-02  0.1161577E+00
         -1   -1    0    0    0  501 -0.00000000000E+00  0.00000000000E+00  0.28935686171E+03  0.28935686171E+03  0.00000000000E+00 0.  1.
          1   -1    0    0  501    0  0.00000000000E+00 -0.00000000000E+00 -0.12131144349E+03  0.12131144349E+03  0.00000000000E+00 0. -1.
         23    2    1    2    0    0  0.18705720666E+02  0.14241141986E+03  0.13152163911E+03  0.23145038662E+03  0.12506167846E+03 0.  0.
         23    2    1    2    0    0 -0.18705720666E+02 -0.14241141986E+03  0.36523779108E+02  0.17921791858E+03  0.10076784908E+03 0.  0.
          5    1    3    3  502    0 -0.29228873957E+02  0.12963958508E+03  0.12251997381E+03  0.18081477560E+03  0.47000000000E+01 0. -1.
         -5    1    3    3    0  502  0.47934594622E+02  0.12771834783E+02  0.90016652960E+01  0.50635611021E+02  0.47000000000E+01 0. -1.
        -11    1    4    4    0    0 -0.15643162367E+02 -0.15305221255E+03  0.50005268284E+02  0.16177210869E+03  0.00000000000E+00 0.  1.
         11    1    4    4    0    0 -0.30625582990E+01  0.10640792688E+02 -0.13481489176E+02  0.17445809891E+02  0.00000000000E+00 0. -1.
<mgrwt>
<rscale>  0 0.18658592E+03</rscale>
<asrwt>0</asrwt>
<pdfrwt beam="2">  1        1 0.18663299E-01 0.19045036E+03</pdfrwt>
<pdfrwt beam="1">  1       -1 0.44516440E-01 0.19045036E+03</pdfrwt>
<totfact> 0.14092675E+03</totfact>
</mgrwt>
</event>
<event>
 8    1  0.8504141E-006  0.1402313E+03  0.7546771E-02  0.1222867E+00
          3   -1    0    0  501    0  0.00000000000E+00  0.00000000000E+00  0.10722373677E+03  0.10722373677E+03  0.00000000000E+00 0. -1.
         -3   -1    0    0    0  501 -0.00000000000E+00 -0.00000000000E+00 -0.17121342114E+03  0.17121342114E+03  0.00000000000E+00 0.  1.
         23    2    1    2    0    0  0.40558525880E+02 -0.48934757090E+02 -0.82936141905E+02  0.16292088385E+03  0.12500082514E+03 0.  0.
         23    2    1    2    0    0 -0.40558525880E+02  0.48934757090E+02  0.18946457535E+02  0.11551627407E+03  0.94580319563E+02 0.  0.
          5    1    3    3  502    0  0.81534493234E+02 -0.84654666276E+01 -0.54233233249E+02  0.98401581800E+02  0.47000000000E+01 0. -1.
         -5    1    3    3    0  502 -0.40975967354E+02 -0.40469290462E+02 -0.28702908656E+02  0.64519302045E+02  0.47000000000E+01 0. -1.
        -11    1    4    4    0    0  0.18983258802E+02  0.74362170786E+01 -0.23759141616E+02  0.31307479130E+02  0.00000000000E+00 0.  1.
         11    1    4    4    0    0 -0.59541784683E+02  0.41498540011E+02  0.42705599151E+02  0.84208794939E+02  0.00000000000E+00 0. -1.
<mgrwt>
<rscale>  0 0.13314169E+03</rscale>
<asrwt>0</asrwt>
<pdfrwt beam="1">  1        3 0.16495960E-01 0.14023128E+03</pdfrwt>
<pdfrwt beam="2">  1       -3 0.26340526E-01 0.14023128E+03</pdfrwt>
<totfact> 0.99643694E+02</totfact>
</mgrwt>
</event>
<event>
 8    1  0.8504141E-006  0.1684436E+03  0.7546771E-02  0.1187244E+00
          1   -1    0    0  501    0  0.00000000000E+00  0.00000000000E+00  0.55668990123E+03  0.55668990123E+03  0.00000000000E+00 0. -1.
         -1   -1    0    0    0  501 -0.00000000000E+00 -0.00000000000E+00 -0.61133354807E+02  0.61133354807E+02  0.00000000000E+00 0.  1.
         23    2    1    2    0    0 -0.23776508586E+02 -0.11036580771E+03  0.95925439238E+02  0.19384257180E+03  0.12500927516E+03 0.  0.
         23    2    1    2    0    0  0.23776508586E+02  0.11036580771E+03  0.39963110718E+03  0.42398068424E+03  0.85490729958E+02 0.  0.
          5    1    3    3  502    0  0.33386738376E+02 -0.10113347737E+03  0.80928029497E+02  0.13384352992E+03  0.47000000000E+01 0.  1.
         -5    1    3    3    0  502 -0.57163246962E+02 -0.92323303434E+01  0.14997409741E+02  0.59999041874E+02  0.47000000000E+01 0.  1.
        -11    1    4    4    0    0  0.31811408541E+02  0.19963004872E+02  0.48678044620E+02  0.61482024242E+02  0.00000000000E+00 0.  1.
         11    1    4    4    0    0 -0.80348999554E+01  0.90402802837E+02  0.35095306256E+03  0.36249866000E+03  0.00000000000E+00 0. -1.
<mgrwt>
<rscale>  0 0.16129380E+03</rscale>
<asrwt>0</asrwt>
<pdfrwt beam="1">  1        1 0.85644597E-01 0.16844362E+03</pdfrwt>
<pdfrwt beam="2">  1       -1 0.94051319E-02 0.16844362E+03</pdfrwt>
<totfact> 0.25779733E+03</totfact>
</mgrwt>
</event>
<event>
 8    1  0.8504141E-006  0.2085362E+03  0.7546771E-02  0.1146598E+00
         -1   -1    0    0    0  501 -0.00000000000E+00  0.00000000000E+00  0.13147431043E+03  0.13147431043E+03  0.00000000000E+00 0.  1.
          1   -1    0    0  501    0  0.00000000000E+00 -0.00000000000E+00 -0.30319447830E+03  0.30319447830E+03  0.00000000000E+00 0. -1.
         23    2    1    2    0    0 -0.70270372488E+02 -0.15140205883E+03 -0.10236654794E+03  0.23230641114E+03  0.12500739919E+03 0.  0.
         23    2    1    2    0    0  0.70270372488E+02  0.15140205883E+03 -0.69353619930E+02  0.20236237758E+03  0.90995047098E+02 0.  0.
          5    1    3    3  502    0  0.29747557936E+02 -0.65536624238E+02 -0.13817197344E+02  0.73436852207E+02  0.47000000000E+01 0.  1.
         -5    1    3    3    0  502 -0.10001793042E+03 -0.85865434593E+02 -0.88549350601E+02  0.15886955893E+03  0.47000000000E+01 0.  1.
        -11    1    4    4    0    0  0.20171092886E+02 -0.75737618252E+01  0.69771247082E+00  0.21557403811E+02  0.00000000000E+00 0.  1.
         11    1    4    4    0    0  0.50099279602E+02  0.15897582066E+03 -0.70051332401E+02  0.18080497377E+03  0.00000000000E+00 0. -1.
<mgrwt>
<rscale>  0 0.20376780E+03</rscale>
<asrwt>0</asrwt>
<pdfrwt beam="2">  1        1 0.46645304E-01 0.20853623E+03</pdfrwt>
<pdfrwt beam="1">  1       -1 0.20226817E-01 0.20853623E+03</pdfrwt>
<totfact> 0.16991059E+03</totfact>
</mgrwt>
</event>
<event>
 8    1  0.8504141E-006  0.1631571E+03  0.7546771E-02  0.1197471E+00
         -2   -1    0    0    0  501 -0.00000000000E+00  0.00000000000E+00  0.24058316424E+02  0.24058316424E+02  0.00000000000E+00 0.  1.
          2   -1    0    0  501    0  0.00000000000E+00 -0.00000000000E+00 -0.85946238424E+03  0.85946238424E+03  0.00000000000E+00 0. -1.
         23    2    1    2    0    0 -0.27496827741E+02  0.10118740395E+03 -0.47736300410E+03  0.50447565469E+03  0.12500112897E+03 0.  0.
         23    2    1    2    0    0  0.27496827741E+02 -0.10118740395E+03 -0.35804106371E+03  0.37904504597E+03  0.66983410740E+02 0.  0.
          5    1    3    3  502    0 -0.68071446215E+02  0.21791627048E+02 -0.25463052194E+03  0.26451349588E+03  0.47000000000E+01 0. -1.
         -5    1    3    3    0  502  0.40574618474E+02  0.79395776899E+02 -0.22273248216E+03  0.23996215881E+03  0.47000000000E+01 0. -1.
        -11    1    4    4    0    0  0.21359718653E+02 -0.49850629146E+00 -0.39435613339E+02  0.44851462506E+02  0.00000000000E+00 0. -1.
         11    1    4    4    0    0  0.61371090882E+01 -0.10068889766E+03 -0.31860545038E+03  0.33419358346E+03  0.00000000000E+00 0.  1.
<mgrwt>
<rscale>  0 0.15246917E+03</rscale>
<asrwt>0</asrwt>
<pdfrwt beam="2">  1        2 0.13222497E+00 0.16315713E+03</pdfrwt>
<pdfrwt beam="1">  1       -2 0.37012797E-02 0.16315713E+03</pdfrwt>
<totfact> 0.97044207E+03</totfact>
</mgrwt>
</event>
<event>
 8    1  0.8504141E-006  0.1309964E+03  0.7546771E-02  0.1239878E+00
          1   -1    0    0  501    0  0.00000000000E+00  0.00000000000E+00  0.15459592010E+03  0.15459592010E+03  0.00000000000E+00 0. -1.
         -1   -1    0    0    0  501 -0.00000000000E+00 -0.00000000000E+00 -0.85355839963E+02  0.85355839963E+02  0.00000000000E+00 0.  1.
         23    2    1    2    0    0  0.32393043391E+02 -0.22060300653E+02  0.45437843744E+02  0.13865298153E+03  0.12499634201E+03 0.  0.
         23    2    1    2    0    0 -0.32393043391E+02  0.22060300653E+02  0.23802236390E+02  0.10129877854E+03  0.90326795307E+02 0.  0.
          5    1    3    3  502    0 -0.85558132958E+00 -0.56731846197E+02 -0.17294143016E+02  0.59501359438E+02  0.47000000000E+01 0. -1.
         -5    1    3    3    0  502  0.33248624720E+02  0.34671545543E+02  0.62731986760E+02  0.79151622087E+02  0.47000000000E+01 0. -1.
        -11    1    4    4    0    0 -0.50725870072E+02 -0.16968904554E+02  0.22857349098E+02  0.58167998282E+02  0.00000000000E+00 0.  1.
         11    1    4    4    0    0  0.18332826681E+02  0.39029205208E+02  0.94488729196E+00  0.43130780253E+02  0.00000000000E+00 0. -1.
<mgrwt>
<rscale>  0 0.12197262E+03</rscale>
<asrwt>0</asrwt>
<pdfrwt beam="1">  1        1 0.23783988E-01 0.13099638E+03</pdfrwt>
<pdfrwt beam="2">  1       -1 0.13131668E-01 0.13099638E+03</pdfrwt>
<totfact> 0.76517672E+03</totfact>
</mgrwt>
</event>
<event>
 8    1  0.8504141E-006  0.1435510E+03  0.7546771E-02  0.1218740E+00
         -1   -1    0    0    0  501 -0.00000000000E+00  0.00000000000E+00  0.20563562706E+03  0.20563562706E+03  0.00000000000E+00 0.  1.
          1   -1    0    0  501    0  0.00000000000E+00 -0.00000000000E+00 -0.12965368768E+03  0.12965368768E+03  0.00000000000E+00 0. -1.
         23    2    1    2    0    0  0.70573838938E+02  0.13721788870E+01  0.14204086451E+03  0.20194679534E+03  0.12499740533E+03 0.  0.
         23    2    1    2    0    0 -0.70573838938E+02 -0.13721788870E+01 -0.66058925129E+02  0.13334251939E+03  0.91836247047E+02 0.  0.
          5    1    3    3  502    0 -0.19789171794E+02  0.36737309115E+02  0.67494074118E+02  0.79490761994E+02  0.47000000000E+01 0. -1.
         -5    1    3    3    0  502  0.90363010733E+02 -0.35365130228E+02  0.74546790391E+02  0.12245603334E+03  0.47000000000E+01 0. -1.
        -11    1    4    4    0    0 -0.48988439695E+02  0.18565563276E+02  0.86178506500E+01  0.53092510897E+02  0.00000000000E+00 0.  1.
         11    1    4    4    0    0 -0.21585399243E+02 -0.19937742163E+02 -0.74676775779E+02  0.80250008497E+02  0.00000000000E+00 0. -1.
<mgrwt>
<rscale>  0 0.13605341E+03</rscale>
<asrwt>0</asrwt>
<pdfrwt beam="2">  1        1 0.19946721E-01 0.14355104E+03</pdfrwt>
<pdfrwt beam="1">  1       -1 0.31636250E-01 0.14355104E+03</pdfrwt>
<totfact> 0.23261808E+03</totfact>
</mgrwt>
</event>
<event>
 8    1  0.8504141E-006  0.1354669E+03  0.7546771E-02  0.1231807E+00
         -2   -1    0    0    0  501 -0.00000000000E+00  0.00000000000E+00  0.92807873233E+02  0.92807873233E+02  0.00000000000E+00 0.  1.
          2   -1    0    0  501    0  0.00000000000E+00 -0.00000000000E+00 -0.18641926737E+03  0.18641926737E+03  0.00000000000E+00 0. -1.
         23    2    1    2    0    0 -0.31734659782E+02  0.41460515935E+02  0.44634285109E+01  0.13554043007E+03  0.12500089190E+03 0.  0.
         23    2    1    2    0    0  0.31734659782E+02 -0.41460515935E+02 -0.98074822650E+02  0.14368671054E+03  0.91110575313E+02 0.  0.
          5    1    3    3  502    0 -0.48061403198E+02  0.78209060305E+02  0.16320002373E+02  0.93354100438E+02  0.47000000000E+01 0.  1.
         -5    1    3    3    0  502  0.16326743416E+02 -0.36748544371E+02 -0.11856573862E+02  0.42186329630E+02  0.47000000000E+01 0.  1.
        -11    1    4    4    0    0  0.36388457530E+02 -0.67893472926E+00  0.10391441136E+01  0.36409622551E+02  0.00000000000E+00 0.  1.
         11    1    4    4    0    0 -0.46537977477E+01 -0.40781581205E+02 -0.99113966764E+02  0.10727708799E+03  0.00000000000E+00 0. -1.
<mgrwt>
<rscale>  0 0.12711099E+03</rscale>
<asrwt>0</asrwt>
<pdfrwt beam="2">  1        2 0.28679887E-01 0.13546692E+03</pdfrwt>
<pdfrwt beam="1">  1       -2 0.14278134E-01 0.13546692E+03</pdfrwt>
<totfact> 0.65119978E+03</totfact>
</mgrwt>
</event>
<event>
 8    1  0.8504141E-006  0.1361869E+03  0.7546771E-02  0.1230491E+00
          1   -1    0    0  501    0  0.00000000000E+00  0.00000000000E+00  0.12353503337E+03  0.12353503337E+03  0.00000000000E+00 0. -1.
         -1   -1    0    0    0  501 -0.00000000000E+00 -0.00000000000E+00 -0.11893640918E+03  0.11893640918E+03  0.00000000000E+00 0.  1.
         23    2    1    2    0    0 -0.46079050394E+02  0.28276095812E+02  0.23523515095E+00  0.13618712708E+03  0.12499624701E+03 0.  0.
         23    2    1    2    0    0  0.46079050394E+02 -0.28276095812E+02  0.43633890361E+01  0.10628431547E+03  0.91402954396E+02 0.  0.
          5    1    3    3  502    0 -0.45299421447E+01  0.14378733114E+01 -0.58713061903E+02  0.59092313320E+02  0.47000000000E+01 0.  1.
         -5    1    3    3    0  502 -0.41549108249E+02  0.26838222501E+02  0.58948297054E+02  0.77094813761E+02  0.47000000000E+01 0.  1.
        -11    1    4    4    0    0  0.37532436290E+02 -0.49702498646E+02 -0.26556675393E+02  0.67707305023E+02  0.00000000000E+00 0.  1.
         11    1    4    4    0    0  0.85466141039E+01  0.21426402834E+02  0.30920064429E+02  0.38577010451E+02  0.00000000000E+00 0. -1.
<mgrwt>
<rscale>  0 0.12797563E+03</rscale>
<asrwt>0</asrwt>
<pdfrwt beam="1">  1        1 0.19005390E-01 0.13618692E+03</pdfrwt>
<pdfrwt beam="2">  1       -1 0.18297909E-01 0.13618692E+03</pdfrwt>
<totfact> 0.60525071E+03</totfact>
</mgrwt>
</event>
<event>
 8    1  0.8504141E-006  0.1854263E+03  0.7546771E-02  0.1168059E+00
         -2   -1    0    0    0  501 -0.00000000000E+00  0.00000000000E+00  0.59834632264E+02  0.59834632264E+02  0.00000000000E+00 0.  1.
          2   -1    0    0  501    0  0.00000000000E+00 -0.00000000000E+00 -0.51035417076E+03  0.51035417076E+03  0.00000000000E+00 0. -1.
         23    2    1    2    0    0 -0.11353825145E+03  0.76589785705E+02 -0.22603232830E+03  0.29235856942E+03  0.12500395937E+03 0.  0.
         23    2    1    2    0    0  0.11353825145E+03 -0.76589785705E+02 -0.22448721019E+03  0.27783023360E+03  0.89656016793E+02 0.  0.
          5    1    3    3  502    0 -0.76247950381E+01  0.78745441207E+02 -0.91213932657E+02  0.12083481916E+03  0.47000000000E+01 0.  1.
         -5    1    3    3    0  502 -0.10591345641E+03 -0.21556555020E+01 -0.13481839564E+03  0.17152375026E+03  0.47000000000E+01 0.  1.
        -11    1    4    4    0    0  0.85535255382E+02 -0.39955581770E+02 -0.72590103715E+02  0.11908841919E+03  0.00000000000E+00 0.  1.
         11    1    4    4    0    0  0.28002996066E+02 -0.36634203936E+02 -0.15189710648E+03  0.15874181441E+03  0.00000000000E+00 0. -1.
<mgrwt>
<rscale>  0 0.17973618E+03</rscale>
<asrwt>0</asrwt>
<pdfrwt beam="2">  1        2 0.78516024E-01 0.18542632E+03</pdfrwt>
<pdfrwt beam="1">  1       -2 0.92053283E-02 0.18542632E+03</pdfrwt>
<totfact> 0.45159677E+03</totfact>
</mgrwt>
</event>
<event>
 8    1  0.8504141E-006  0.1464070E+03  0.7546771E-02  0.1214135E+00
         -1   -1    0    0    0  501 -0.00000000000E+00  0.00000000000E+00  0.49473439744E+02  0.49473439744E+02  0.00000000000E+00 0.  1.
          1   -1    0    0  501    0  0.00000000000E+00 -0.00000000000E+00 -0.42152469253E+03  0.42152469253E+03  0.00000000000E+00 0. -1.
         23    2    1    2    0    0  0.25848020805E+02 -0.71703265223E+02 -0.11160261957E+03  0.18409278047E+03  0.12500211480E+03 0.  0.
         23    2    1    2    0    0 -0.25848020805E+02  0.71703265223E+02 -0.26044863322E+03  0.28690535180E+03  0.93122027062E+02 0.  0.
          5    1    3    3  502    0  0.56131283387E+02 -0.86257102831E+02 -0.10913284490E+03  0.15007690229E+03  0.47000000000E+01 0. -1.
         -5    1    3    3    0  502 -0.30283262582E+02  0.14553837608E+02 -0.24697746644E+01  0.34015878184E+02  0.47000000000E+01 0. -1.
        -11    1    4    4    0    0  0.11202339570E+02 -0.17891822810E+02 -0.28147929174E+02  0.35184025524E+02  0.00000000000E+00 0.  1.
         11    1    4    4    0    0 -0.37050360375E+02  0.89595088033E+02 -0.23230070405E+03  0.25172132628E+03  0.00000000000E+00 0. -1.
<mgrwt>
<rscale>  0 0.13940293E+03</rscale>
<asrwt>0</asrwt>
<pdfrwt beam="2">  1        1 0.64849950E-01 0.14640699E+03</pdfrwt>
<pdfrwt beam="1">  1       -1 0.76112987E-02 0.14640699E+03</pdfrwt>
<totfact> 0.50807074E+03</totfact>
</mgrwt>
</event>
<event>
 8    1  0.8504141E-006  0.1273274E+03  0.7546771E-02  0.1243867E+00
          2   -1    0    0  501    0  0.00000000000E+00  0.00000000000E+00  0.18386268607E+03  0.18386268607E+03  0.00000000000E+00 0. -1.
         -2   -1    0    0    0  501 -0.00000000000E+00 -0.00000000000E+00 -0.75442245025E+02  0.75442245025E+02  0.00000000000E+00 0.  1.
         23    2    1    2    0    0 -0.20673084407E+02  0.12664359364E+02  0.24645894464E+02  0.12969072652E+03  0.12499800805E+03 0.  0.
         23    2    1    2    0    0  0.20673084407E+02 -0.12664359364E+02  0.83774546576E+02  0.12961420457E+03  0.95884852581E+02 0.  0.
          5    1    3    3  502    0  0.21666204518E+02  0.59700514192E+02  0.88616602397E+01  0.64297704743E+02  0.47000000000E+01 0. -1.
         -5    1    3    3    0  502 -0.42339288925E+02 -0.47036154828E+02  0.15784234225E+02  0.65393021781E+02  0.47000000000E+01 0. -1.
        -11    1    4    4    0    0  0.36532161670E+02 -0.10267775600E+02 -0.59991672857E+01  0.38418954439E+02  0.00000000000E+00 0.  1.
         11    1    4    4    0    0 -0.15859077264E+02 -0.23965837644E+01  0.89773713861E+02  0.91195250128E+02  0.00000000000E+00 0. -1.
<mgrwt>
<rscale>  0 0.11953442E+03</rscale>
<asrwt>0</asrwt>
<pdfrwt beam="1">  1        2 0.28286567E-01 0.12732739E+03</pdfrwt>
<pdfrwt beam="2">  1       -2 0.11606499E-01 0.12732739E+03</pdfrwt>
<totfact> 0.91794746E+03</totfact>
</mgrwt>
</event>
<event>
 8    1  0.8504141E-006  0.1895395E+03  0.7546771E-02  0.1163879E+00
          1   -1    0    0  501    0  0.00000000000E+00  0.00000000000E+00  0.65360275151E+03  0.65360275151E+03  0.00000000000E+00 0. -1.
         -1   -1    0    0    0  501 -0.00000000000E+00 -0.00000000000E+00 -0.49679093201E+02  0.49679093201E+02  0.00000000000E+00 0.  1.
         23    2    1    2    0    0 -0.11840231865E+03 -0.79263695415E+02  0.28145545607E+03  0.33932636789E+03  0.12499347071E+03 0.  0.
         23    2    1    2    0    0  0.11840231865E+03  0.79263695415E+02  0.32246820224E+03  0.36395547682E+03  0.90421265095E+02 0.  0.
          5    1    3    3  502    0 -0.14075070663E+03 -0.64732410753E+02  0.19714588439E+03  0.25077806154E+03  0.47000000000E+01 0.  1.
         -5    1    3    3    0  502  0.22348387986E+02 -0.14531284663E+02  0.84309571682E+02  0.88548306346E+02  0.47000000000E+01 0.  1.
        -11    1    4    4    0    0  0.40738526334E+02 -0.17283901873E+01  0.29773260334E+02  0.50488235179E+02  0.00000000000E+00 0.  1.
         11    1    4    4    0    0  0.77663792314E+02  0.80992085603E+02  0.29269494190E+03  0.31346724164E+03  0.00000000000E+00 0. -1.
<mgrwt>
<rscale>  0 0.18411456E+03</rscale>
<asrwt>0</asrwt>
<pdfrwt beam="1">  1        1 0.10055426E+00 0.18953947E+03</pdfrwt>
<pdfrwt beam="2">  1       -1 0.76429379E-02 0.18953947E+03</pdfrwt>
<totfact> 0.28443393E+03</totfact>
</mgrwt>
</event>
<event>
 8    1  0.8504141E-006  0.1293844E+03  0.7546771E-02  0.1245195E+00
         -3   -1    0    0    0  501 -0.00000000000E+00  0.00000000000E+00  0.25794791399E+03  0.25794791399E+03  0.00000000000E+00 0.  1.
          3   -1    0    0  501    0  0.00000000000E+00 -0.00000000000E+00 -0.49546700247E+02  0.49546700247E+02  0.00000000000E+00 0. -1.
         23    2    1    2    0    0 -0.52543806189E+01  0.32969536240E+02  0.15269667115E+03  0.20014146134E+03  0.12500292929E+03 0.  0.
         23    2    1    2    0    0  0.52543806189E+01 -0.32969536240E+02  0.55704542600E+02  0.10735315291E+03  0.85481603500E+02 0.  0.
          5    1    3    3  502    0  0.59330230196E+02  0.19843009706E+02  0.83810788104E+02  0.10469078017E+03  0.47000000000E+01 0.  1.
         -5    1    3    3    0  502 -0.64584610815E+02  0.13126526534E+02  0.68885883043E+02  0.95450681169E+02  0.47000000000E+01 0.  1.
        -11    1    4    4    0    0 -0.46366450884E+01 -0.40737294242E+02 -0.85475148095E+01  0.41881805468E+02  0.00000000000E+00 0. -1.
         11    1    4    4    0    0  0.98910257073E+01  0.77677580027E+01  0.64252057409E+02  0.65471347437E+02  0.00000000000E+00 0.  1.
<mgrwt>
<rscale>  0 0.11873712E+03</rscale>
<asrwt>0</asrwt>
<pdfrwt beam="2">  1        3 0.76225694E-02 0.12938443E+03</pdfrwt>
<pdfrwt beam="1">  1       -3 0.39684294E-01 0.12938443E+03</pdfrwt>
<totfact> 0.16585874E+03</totfact>
</mgrwt>
</event>
<event>
 8    1  0.8504141E-006  0.1333731E+03  0.7546771E-02  0.1234371E+00
          2   -1    0    0  501    0  0.00000000000E+00  0.00000000000E+00  0.41449747480E+03  0.41449747480E+03  0.00000000000E+00 0. -1.
         -2   -1    0    0    0  501 -0.00000000000E+00 -0.00000000000E+00 -0.36296353979E+02  0.36296353979E+02  0.00000000000E+00 0.  1.
         23    2    1    2    0    0 -0.20309303487E+02  0.41847815734E+02  0.15564273026E+03  0.20497085724E+03  0.12499874138E+03 0.  0.
         23    2    1    2    0    0  0.20309303487E+02 -0.41847815734E+02  0.22255839057E+03  0.24582297154E+03  0.93450460868E+02 0.  0.
          5    1    3    3  502    0 -0.67185631354E+02  0.34817857645E+01  0.53330336646E+02  0.85978175715E+02  0.47000000000E+01 0. -1.
         -5    1    3    3    0  502  0.46876327867E+02  0.38366029970E+02  0.10231239361E+03  0.11899268152E+03  0.47000000000E+01 0. -1.
        -11    1    4    4    0    0  0.24451284077E+02 -0.54763782880E+02  0.22427073262E+03  0.23215145642E+03  0.00000000000E+00 0. -1.
         11    1    4    4    0    0 -0.41419805904E+01  0.12915967145E+02 -0.17123420504E+01  0.13671515125E+02  0.00000000000E+00 0.  1.
<mgrwt>
<rscale>  0 0.12544782E+03</rscale>
<asrwt>0</asrwt>
<pdfrwt beam="1">  1        2 0.63768839E-01 0.13337313E+03</pdfrwt>
<pdfrwt beam="2">  1       -2 0.55840547E-02 0.13337313E+03</pdfrwt>
<totfact> 0.11996962E+04</totfact>
</mgrwt>
</event>
<event>
 7    1  0.8504141E-006  0.2601320E+03  0.7546771E-02  0.1107064E+00
          1   -1    0    0  501    0  0.00000000000E+00  0.00000000000E+00  0.73347016960E+03  0.73347016960E+03  0.00000000000E+00 0. -1.
         -1   -1    0    0    0  501 -0.00000000000E+00 -0.00000000000E+00 -0.23064564430E+02  0.23064564430E+02  0.00000000000E+00 0.  1.
         23    2    1    2    0    0 -0.13229894862E+02  0.13753171654E+02  0.31655406199E+03  0.32995929338E+03  0.91117952537E+02 0.  0.
          5    1    1    2  502    0  0.55618127370E+02 -0.69659281498E+02  0.17103481936E+03  0.19292690591E+03  0.47000000000E+01 0. -1.
         -5    1    1    2    0  502 -0.42388232508E+02  0.55906109844E+02  0.22281672381E+03  0.23364853474E+03  0.47000000000E+01 0.  1.
        -11    1    3    3    0    0 -0.48859508601E+02  0.13275214588E+02  0.12068349349E+03  0.13087394128E+03  0.00000000000E+00 0.  1.
         11    1    3    3    0    0  0.35629613739E+02  0.47795706674E+00  0.19587056850E+03  0.19908535211E+03  0.00000000000E+00 0. -1.
<mgrwt>
<rscale>  0 0.26013204E+03</rscale>
<asrwt>0</asrwt>
<pdfrwt beam="1">  1        1 0.11284155E+00 0.26013204E+03</pdfrwt>
<pdfrwt beam="2">  1       -1 0.35483951E-02 0.26013204E+03</pdfrwt>
<totfact> 0.76954415E+03</totfact>
</mgrwt>
</event>
<event>
 8    1  0.8504141E-006  0.1344724E+03  0.7546771E-02  0.1233823E+00
          1   -1    0    0  501    0  0.00000000000E+00  0.00000000000E+00  0.17358375527E+03  0.17358375527E+03  0.00000000000E+00 0. -1.
         -1   -1    0    0    0  501 -0.00000000000E+00 -0.00000000000E+00 -0.10544456351E+03  0.10544456351E+03  0.00000000000E+00 0.  1.
         23    2    1    2    0    0 -0.41529909209E+02 -0.27129039526E+02 -0.28870801360E+02  0.13753669508E+03  0.12498840417E+03 0.  0.
         23    2    1    2    0    0  0.41529909209E+02  0.27129039526E+02  0.97009993115E+02  0.14149162371E+03  0.90267506170E+02 0.  0.
          5    1    3    3  502    0 -0.57176506470E+02 -0.55922169594E+02  0.16077342175E+02  0.81712990863E+02  0.47000000000E+01 0. -1.
         -5    1    3    3    0  502  0.15646597261E+02  0.28793130068E+02 -0.44948143536E+02  0.55823704215E+02  0.47000000000E+01 0. -1.
        -11    1    4    4    0    0  0.36376924704E+02  0.31195777863E+01  0.10842849920E+03  0.11441045343E+03  0.00000000000E+00 0. -1.
         11    1    4    4    0    0  0.51529845057E+01  0.24009461740E+02 -0.11418506080E+02  0.27081170275E+02  0.00000000000E+00 0.  1.
<mgrwt>
<rscale>  0 0.12580092E+03</rscale>
<asrwt>0</asrwt>
<pdfrwt beam="1">  1        1 0.26705193E-01 0.13447237E+03</pdfrwt>
<pdfrwt beam="2">  1       -1 0.16222241E-01 0.13447237E+03</pdfrwt>
<totfact> 0.47638191E+03</totfact>
</mgrwt>
</event>
<event>
 8    1  0.8504141E-006  0.1429350E+03  0.7546771E-02  0.1220004E+00
          2   -1    0    0  501    0  0.00000000000E+00  0.00000000000E+00  0.17569045042E+03  0.17569045042E+03  0.00000000000E+00 0.  1.
         -2   -1    0    0    0  501 -0.00000000000E+00 -0.00000000000E+00 -0.98752398242E+02  0.98752398242E+02  0.00000000000E+00 0. -1.
         23    2    1    2    0    0  0.29380157083E+02 -0.62785834090E+02  0.13031141614E+02  0.14352776278E+03  0.12500061378E+03 0.  0.
         23    2    1    2    0    0 -0.29380157083E+02  0.62785834090E+02  0.63906910569E+02  0.13091508588E+03  0.90826273184E+02 0.  0.
          5    1    3    3  502    0 -0.26417003657E+01 -0.87894501882E+02 -0.20705106822E+02  0.90461115903E+02  0.47000000000E+01 0.  1.
         -5    1    3    3    0  502  0.32021857449E+02  0.25108667792E+02  0.33736248436E+02  0.53066646882E+02  0.47000000000E+01 0.  1.
        -11    1    4    4    0    0  0.17355300048E+02  0.52138948939E+02  0.53053686088E+01  0.55207095308E+02  0.00000000000E+00 0. -1.
         11    1    4    4    0    0 -0.46735457131E+02  0.10646885150E+02  0.58601541960E+02  0.75707990574E+02  0.00000000000E+00 0.  1.
<mgrwt>
<rscale>  0 0.13515266E+03</rscale>
<asrwt>0</asrwt>
<pdfrwt beam="1">  1        2 0.27029300E-01 0.14293498E+03</pdfrwt>
<pdfrwt beam="2">  1       -2 0.15192677E-01 0.14293498E+03</pdfrwt>
<totfact> 0.63001399E+03</totfact>
</mgrwt>
</event>
<event>
 8    1  0.8504141E-006  0.1491941E+03  0.7546771E-02  0.1211314E+00
          1   -1    0    0  501    0  0.00000000000E+00  0.00000000000E+00  0.17553732230E+03  0.17553732230E+03  0.00000000000E+00 0. -1.
         -1   -1    0    0    0  501 -0.00000000000E+00 -0.00000000000E+00 -0.10507184739E+03  0.10507184739E+03  0.00000000000E+00 0.  1.
         23    2    1    2    0    0 -0.62469079698E+02  0.52258249555E+02  0.23412291852E+02  0.15101995439E+03  0.12500232257E+03 0.  0.
         23    2    1    2    0    0  0.62469079698E+02 -0.52258249555E+02  0.47053183063E+02  0.12958921530E+03  0.89140631147E+02 0.  0.
          5    1    3    3  502    0 -0.68838726332E+02  0.86721808944E+02  0.30528375472E+02  0.11495005045E+03  0.47000000000E+01 0. -1.
         -5    1    3    3    0  502  0.63696466334E+01 -0.34463559389E+02 -0.71160836201E+01  0.36069903938E+02  0.47000000000E+01 0. -1.
        -11    1    4    4    0    0  0.93713816009E+01 -0.15890596152E+02  0.61007376635E+02  0.63735655979E+02  0.00000000000E+00 0. -1.
         11    1    4    4    0    0  0.53097698097E+02 -0.36367653403E+02 -0.13954193572E+02  0.65853559323E+02  0.00000000000E+00 0.  1.
<mgrwt>
<rscale>  0 0.14150805E+03</rscale>
<asrwt>0</asrwt>
<pdfrwt beam="1">  1        1 0.27005742E-01 0.14919414E+03</pdfrwt>
<pdfrwt beam="2">  1       -1 0.16164900E-01 0.14919414E+03</pdfrwt>
<totfact> 0.47524791E+03</totfact>
</mgrwt>
</event>
<event>
 8    1  0.8504141E-006  0.1837010E+03  0.7546771E-02  0.1169811E+00
          1   -1    0    0  501    0  0.00000000000E+00  0.00000000000E+00  0.10668460364E+03  0.10668460364E+03  0.00000000000E+00 0. -1.
         -1   -1    0    0    0  501 -0.00000000000E+00 -0.00000000000E+00 -0.57887991657E+03  0.57887991657E+03  0.00000000000E+00 0.  1.
         23    2    1    2    0    0  0.57608202020E+02 -0.12166181844E+03 -0.48958313865E+03  0.52291273028E+03  0.12500308331E+03 0.  0.
         23    2    1    2    0    0 -0.57608202020E+02  0.12166181844E+03  0.17387825713E+02  0.16265178993E+03  0.89626811160E+02 0.  0.
          5    1    3    3  502    0 -0.18249626307E+02  0.89603946737E+01 -0.17511426983E+02  0.27241101447E+02  0.47000000000E+01 0. -1.
         -5    1    3    3    0  502  0.75857828327E+02 -0.13062221311E+03 -0.47207171166E+03  0.49567162883E+03  0.47000000000E+01 0. -1.
        -11    1    4    4    0    0 -0.93538574595E+01  0.94243501618E+02 -0.18585681615E+02  0.96513003308E+02  0.00000000000E+00 0.  1.
         11    1    4    4    0    0 -0.48254344560E+02  0.27418316820E+02  0.35973507328E+02  0.66138786621E+02  0.00000000000E+00 0. -1.
<mgrwt>
<rscale>  0 0.17794036E+03</rscale>
<asrwt>0</asrwt>
<pdfrwt beam="1">  1        1 0.16413016E-01 0.18370104E+03</pdfrwt>
<pdfrwt beam="2">  1       -1 0.89058446E-01 0.18370104E+03</pdfrwt>
<totfact> 0.43162468E+02</totfact>
</mgrwt>
</event>
<event>
 8    1  0.8504141E-006  0.1277691E+03  0.7546771E-02  0.1244838E+00
          2   -1    0    0  501    0  0.00000000000E+00  0.00000000000E+00  0.10357481805E+03  0.10357481805E+03  0.00000000000E+00 0. -1.
         -2   -1    0    0    0  501 -0.00000000000E+00 -0.00000000000E+00 -0.12909272758E+03  0.12909272758E+03  0.00000000000E+00 0.  1.
         23    2    1    2    0    0 -0.14173551892E+02 -0.22334753657E+02  0.14677048128E+02  0.12860936738E+03  0.12500089136E+03 0.  0.
         23    2    1    2    0    0  0.14173551892E+02  0.22334753657E+02 -0.40194957658E+02  0.10405817826E+03  0.92264505887E+02 0.  0.
          5    1    3    3  502    0 -0.15031518248E+02 -0.70453229254E+02  0.29569202231E+02  0.78013023103E+02  0.47000000000E+01 0.  1.
         -5    1    3    3    0  502  0.85796635588E+00  0.48118475597E+02 -0.14892154103E+02  0.50596344274E+02  0.47000000000E+01 0.  1.
        -11    1    4    4    0    0  0.12876508499E+02 -0.25755987471E+01  0.28280710724E+02  0.31180711651E+02  0.00000000000E+00 0. -1.
         11    1    4    4    0    0  0.12970433936E+01  0.24910352404E+02 -0.68475668381E+02  0.72877466605E+02  0.00000000000E+00 0.  1.
<mgrwt>
<rscale>  0 0.11895056E+03</rscale>
<asrwt>0</asrwt>
<pdfrwt beam="1">  1        2 0.15934587E-01 0.12776914E+03</pdfrwt>
<pdfrwt beam="2">  1       -2 0.19860420E-01 0.12776914E+03</pdfrwt>
<totfact> 0.72619902E+03</totfact>
</mgrwt>
</event>
<event>
 8    1  0.8504141E-006  0.1324071E+03  0.7546771E-02  0.1235190E+00
         -2   -1    0    0    0  501 -0.00000000000E+00  0.00000000000E+00  0.92660760088E+02  0.92660760088E+02  0.00000000000E+00 0. -1.
          2   -1    0    0  501    0  0.00000000000E+00 -0.00000000000E+00 -0.19655237002E+03  0.19655237002E+03  0.00000000000E+00 0.  1.
         23    2    1    2    0    0  0.12576876809E+02  0.41817972512E+02  0.11925188255E+02  0.13294306672E+03  0.12499891287E+03 0.  0.
         23    2    1    2    0    0 -0.12576876809E+02 -0.41817972512E+02 -0.11581679819E+03  0.15627006339E+03  0.95393298060E+02 0.  0.
          5    1    3    3  502    0  0.57838903986E+02 -0.27398717690E+01  0.31797316927E+02  0.66226921077E+02  0.47000000000E+01 0.  1.
         -5    1    3    3    0  502 -0.45262027177E+02  0.44557844281E+02 -0.19872128672E+02  0.66716145640E+02  0.47000000000E+01 0.  1.
        -11    1    4    4    0    0 -0.11421307535E+02  0.22504469714E+02 -0.77238165874E+02  0.81256579368E+02  0.00000000000E+00 0.  1.
         11    1    4    4    0    0 -0.11555692748E+01 -0.64322442227E+02 -0.38578632316E+02  0.75013484026E+02  0.00000000000E+00 0. -1.
<mgrwt>
<rscale>  0 0.12492265E+03</rscale>
<asrwt>0</asrwt>
<pdfrwt beam="2">  1        2 0.30238826E-01 0.13240713E+03</pdfrwt>
<pdfrwt beam="1">  1       -2 0.14255502E-01 0.13240713E+03</pdfrwt>
<totfact> 0.61553902E+03</totfact>
</mgrwt>
</event>
<event>
 8    1  0.8504141E-006  0.1436713E+03  0.7546771E-02  0.1218660E+00
         -1   -1    0    0    0  501 -0.00000000000E+00  0.00000000000E+00  0.66375045639E+03  0.66375045639E+03  0.00000000000E+00 0.  1.
          1   -1    0    0  501    0  0.00000000000E+00 -0.00000000000E+00 -0.33758816834E+02  0.33758816834E+02  0.00000000000E+00 0. -1.
         23    2    1    2    0    0  0.67096120770E+02 -0.21995053266E+02  0.51381361967E+03  0.53352213660E+03  0.12512299025E+03 0.  0.
         23    2    1    2    0    0 -0.67096120770E+02  0.21995053266E+02  0.11617801988E+03  0.16398713662E+03  0.91699383224E+02 0.  0.
          5    1    3    3  502    0  0.10024003238E+03 -0.17711314938E+02  0.44934165474E+03  0.46075130760E+03  0.47000000000E+01 0. -1.
         -5    1    3    3    0  502 -0.33143911614E+02 -0.42837383280E+01  0.64471964937E+02  0.72770829004E+02  0.47000000000E+01 0. -1.
        -11    1    4    4    0    0 -0.10504820831E+02  0.36504186493E+02  0.48932772448E+01  0.38299491568E+02  0.00000000000E+00 0. -1.
         11    1    4    4    0    0 -0.56591299939E+02 -0.14509133227E+02  0.11128474263E+03  0.12568764505E+03  0.00000000000E+00 0.  1.
<mgrwt>
<rscale>  0 0.13611095E+03</rscale>
<asrwt>0</asrwt>
<pdfrwt beam="2">  1        1 0.51936646E-02 0.14367127E+03</pdfrwt>
<pdfrwt beam="1">  1       -1 0.10211545E+00 0.14367127E+03</pdfrwt>
<totfact> 0.14855643E+03</totfact>
</mgrwt>
</event>
<event>
 8    1  0.8504141E-006  0.1541557E+03  0.7546771E-02  0.1203633E+00
         -4   -1    0    0    0  501 -0.00000000000E+00  0.00000000000E+00  0.31801366303E+03  0.31801366303E+03  0.00000000000E+00 0. -1.
          4   -1    0    0  501    0  0.00000000000E+00 -0.00000000000E+00 -0.85260386412E+02  0.85260386412E+02  0.00000000000E+00 0.  1.
         23    2    1    2    0    0  0.74700749582E+02  0.50521068809E+02  0.22660492366E+03  0.27406892358E+03  0.12502560964E+03 0.  0.
         23    2    1    2    0    0 -0.74700749582E+02 -0.50521068809E+02  0.61483529614E+01  0.12920512586E+03  0.92323246924E+02 0.  0.
          5    1    3    3  502    0  0.51020776477E+02  0.80666408268E+02  0.21241899329E+03  0.23292511193E+03  0.47000000000E+01 0.  1.
         -5    1    3    3    0  502  0.23679973105E+02 -0.30145339459E+02  0.14185930368E+02  0.41143811658E+02  0.47000000000E+01 0.  1.
        -11    1    4    4    0    0  0.62348255917E+01 -0.38735810463E+02 -0.19060473826E+02  0.43619235721E+02  0.00000000000E+00 0. -1.
         11    1    4    4    0    0 -0.80935575173E+02 -0.11785258346E+02  0.25208826787E+02  0.85585890139E+02  0.00000000000E+00 0.  1.
<mgrwt>
<rscale>  0 0.14745740E+03</rscale>
<asrwt>0</asrwt>
<pdfrwt beam="2">  1        4 0.13116983E-01 0.15415571E+03</pdfrwt>
<pdfrwt beam="1">  1       -4 0.48925178E-01 0.15415571E+03</pdfrwt>
<totfact> 0.32904688E+02</totfact>
</mgrwt>
</event>
<event>
 8    1  0.8504141E-006  0.2162254E+03  0.7546771E-02  0.1140286E+00
         -2   -1    0    0    0  501 -0.00000000000E+00  0.00000000000E+00  0.87159126393E+02  0.87159126393E+02  0.00000000000E+00 0.  1.
          2   -1    0    0  501    0  0.00000000000E+00 -0.00000000000E+00 -0.54588722760E+03  0.54588722760E+03  0.00000000000E+00 0. -1.
         23    2    1    2    0    0  0.11373568034E+03 -0.13488048914E+03 -0.13993325056E+03  0.25755534497E+03  0.12499955911E+03 0.  0.
         23    2    1    2    0    0 -0.11373568034E+03  0.13488048914E+03 -0.31879485065E+03  0.37549100902E+03  0.90745742172E+02 0.  0.
          5    1    3    3  502    0  0.11951118870E+03 -0.49927005885E+02 -0.70209262617E+02  0.14740102000E+03  0.47000000000E+01 0. -1.
         -5    1    3    3    0  502 -0.57755083556E+01 -0.84953483258E+02 -0.69723987945E+02  0.11015432497E+03  0.47000000000E+01 0. -1.
        -11    1    4    4    0    0 -0.24500429204E+02 -0.36683211632E+01 -0.91143750747E+02  0.94450573908E+02  0.00000000000E+00 0. -1.
         11    1    4    4    0    0 -0.89235251140E+02  0.13854881031E+03 -0.22765109990E+03  0.28104043511E+03  0.00000000000E+00 0.  1.
<mgrwt>
<rscale>  0 0.21162481E+03</rscale>
<asrwt>0</asrwt>
<pdfrwt beam="2">  1        2 0.83982650E-01 0.21622544E+03</pdfrwt>
<pdfrwt beam="1">  1       -2 0.13409096E-01 0.21622544E+03</pdfrwt>
<totfact> 0.23045494E+03</totfact>
</mgrwt>
</event>
<event>
 8    1  0.8504141E-006  0.1211163E+03  0.7546771E-02  0.1253008E+00
          2   -1    0    0  501    0  0.00000000000E+00  0.00000000000E+00  0.61264508196E+03  0.61264508196E+03  0.00000000000E+00 0. -1.
         -2   -1    0    0    0  501 -0.00000000000E+00 -0.00000000000E+00 -0.19772862026E+02  0.19772862026E+02  0.00000000000E+00 0.  1.
         23    2    1    2    0    0 -0.20516253494E+02 -0.35805420032E+02  0.27579634601E+03  0.30121883795E+03  0.11386930711E+03 0.  0.
         23    2    1    2    0    0  0.20516253494E+02  0.35805420032E+02  0.31707587393E+03  0.33119910604E+03  0.86329561881E+02 0.  0.
          5    1    3    3  502    0  0.30395518241E+02  0.15133602951E+02  0.16820838730E+03  0.17166556156E+03  0.47000000000E+01 0. -1.
         -5    1    3    3    0  502 -0.50911771736E+02 -0.50939022983E+02  0.10758795871E+03  0.12955327639E+03  0.47000000000E+01 0.  1.
        -11    1    4    4    0    0  0.45628219913E+02  0.22985267780E+02  0.27998543309E+03  0.28460867824E+03  0.00000000000E+00 0. -1.
         11    1    4    4    0    0 -0.25111966419E+02  0.12820152252E+02  0.37090440842E+02  0.46590427805E+02  0.00000000000E+00 0.  1.
<mgrwt>
<rscale>  0 0.11418622E+03</rscale>
<asrwt>0</asrwt>
<pdfrwt beam="1">  1        2 0.94253075E-01 0.12111632E+03</pdfrwt>
<pdfrwt beam="2">  1       -2 0.30419792E-02 0.12111632E+03</pdfrwt>
<totfact> 0.19106244E+04</totfact>
</mgrwt>
</event>
<event>
 8    1  0.8504141E-006  0.1357333E+03  0.7546771E-02  0.1230363E+00
          1   -1    0    0  501    0  0.00000000000E+00  0.00000000000E+00  0.37205516328E+02  0.37205516328E+02  0.00000000000E+00 0. -1.
         -1   -1    0    0    0  501 -0.00000000000E+00 -0.00000000000E+00 -0.52745124916E+03  0.52745124916E+03  0.00000000000E+00 0.  1.
         23    2    1    2    0    0 -0.29027010397E+02  0.44224500410E+02 -0.40586211563E+03  0.42795745921E+03  0.12500062488E+03 0.  0.
         23    2    1    2    0    0  0.29027010397E+02 -0.44224500410E+02 -0.84383617203E+02  0.13669930628E+03  0.93636166712E+02 0.  0.
          5    1    3    3  502    0 -0.24464579756E+02 -0.41200113838E+02 -0.11322082169E+03  0.12303255467E+03  0.47000000000E+01 0.  1.
         -5    1    3    3    0  502 -0.45624306409E+01  0.85424614248E+02 -0.29264129394E+03  0.30492490454E+03  0.47000000000E+01 0.  1.
        -11    1    4    4    0    0  0.23558423449E+02 -0.68864890191E+02 -0.84414543195E+02  0.11145935366E+03  0.00000000000E+00 0. -1.
         11    1    4    4    0    0  0.54685869479E+01  0.24640389781E+02  0.30925991119E-01  0.25239952618E+02  0.00000000000E+00 0.  1.
<mgrwt>
<rscale>  0 0.12805992E+03</rscale>
<asrwt>0</asrwt>
<pdfrwt beam="1">  1        1 0.57239256E-02 0.13573330E+03</pdfrwt>
<pdfrwt beam="2">  1       -1 0.81146346E-01 0.13573330E+03</pdfrwt>
<totfact> 0.21192218E+03</totfact>
</mgrwt>
</event>
<event>
 8    1  0.8504141E-006  0.1299656E+03  0.7546771E-02  0.1246476E+00
         -1   -1    0    0    0  501 -0.00000000000E+00  0.00000000000E+00  0.44500070638E+02  0.44500070638E+02  0.00000000000E+00 0.  1.
          1   -1    0    0  501    0  0.00000000000E+00 -0.00000000000E+00 -0.27166929629E+03  0.27166929629E+03  0.00000000000E+00 0. -1.
         23    2    1    2    0    0 -0.33389546574E+02 -0.12304429743E+02 -0.11572516637E+03  0.17402119547E+03  0.12499920612E+03 0.  0.
         23    2    1    2    0    0  0.33389546574E+02  0.12304429743E+02 -0.11144405928E+03  0.14214817145E+03  0.80746910071E+02 0.  0.
          5    1    3    3  502    0 -0.67870183286E+01  0.55845574392E+02 -0.55203563573E+02  0.78957679982E+02  0.47000000000E+01 0.  1.
         -5    1    3    3    0  502 -0.26602528245E+02 -0.68150004136E+02 -0.60521602794E+02  0.95063515491E+02  0.47000000000E+01 0.  1.
        -11    1    4    4    0    0  0.39777220554E+02  0.32735455142E+02 -0.33815937579E+02  0.61622681966E+02  0.00000000000E+00 0.  1.
         11    1    4    4    0    0 -0.63876739801E+01 -0.20431025399E+02 -0.77628121702E+02  0.80525489485E+02  0.00000000000E+00 0. -1.
<mgrwt>
<rscale>  0 0.11797444E+03</rscale>
<asrwt>0</asrwt>
<pdfrwt beam="2">  1        1 0.41795276E-01 0.12996562E+03</pdfrwt>
<pdfrwt beam="1">  1       -1 0.68461647E-02 0.12996562E+03</pdfrwt>
<totfact> 0.10225587E+04</totfact>
</mgrwt>
</event>
<event>
 8    1  0.8504141E-006  0.1341776E+03  0.7546771E-02  0.1234003E+00
          1   -1    0    0  501    0  0.00000000000E+00  0.00000000000E+00  0.23060922904E+03  0.23060922904E+03  0.00000000000E+00 0. -1.
         -1   -1    0    0    0  501 -0.00000000000E+00 -0.00000000000E+00 -0.10206384532E+03  0.10206384532E+03  0.00000000000E+00 0.  1.
         23    2    1    2    0    0  0.12217672188E+02  0.47244160873E+02 -0.35518114540E+02  0.13879896976E+03  0.12498934072E+03 0.  0.
         23    2    1    2    0    0 -0.12217672188E+02 -0.47244160873E+02  0.16406349826E+03  0.19387410460E+03  0.91044245973E+02 0.  0.
          5    1    3    3  502    0  0.19009280781E+02  0.24862975581E+02  0.44890991001E+02  0.54925507586E+02  0.47000000000E+01 0. -1.
         -5    1    3    3    0  502 -0.67916085926E+01  0.22381185292E+02 -0.80409105541E+02  0.83873462169E+02  0.47000000000E+01 0. -1.
        -11    1    4    4    0    0 -0.32861005975E+02 -0.66291102623E+02  0.10474262653E+03  0.12823951736E+03  0.00000000000E+00 0. -1.
         11    1    4    4    0    0  0.20643333787E+02  0.19046941750E+02  0.59320871725E+02  0.65634587240E+02  0.00000000000E+00 0.  1.
<mgrwt>
<rscale>  0 0.12568463E+03</rscale>
<asrwt>0</asrwt>
<pdfrwt beam="1">  1        1 0.35478343E-01 0.13417756E+03</pdfrwt>
<pdfrwt beam="2">  1       -1 0.15702130E-01 0.13417756E+03</pdfrwt>
<totfact> 0.35225976E+03</totfact>
</mgrwt>
</event>
<event>
 8    1  0.8504141E-006  0.1581278E+03  0.7546771E-02  0.1198560E+00
         -2   -1    0    0    0  501 -0.00000000000E+00  0.00000000000E+00  0.11547161762E+03  0.11547161762E+03  0.00000000000E+00 0.  1.
          2   -1    0    0  501    0  0.00000000000E+00 -0.00000000000E+00 -0.20112931729E+03  0.20112931729E+03  0.00000000000E+00 0. -1.
         23    2    1    2    0    0  0.90325636709E+02 -0.34941108534E+02 -0.23060081764E+00  0.15812792190E+03  0.12499913917E+03 0.  0.
         23    2    1    2    0    0 -0.90325636709E+02  0.34941108534E+02 -0.85427098860E+02  0.15847301301E+03  0.91849359944E+02 0.  0.
          5    1    3    3  502    0 -0.25364633998E+02 -0.10432411582E+01 -0.23900631557E+02  0.35182143181E+02  0.47000000000E+01 0.  1.
         -5    1    3    3    0  502  0.11569027071E+03 -0.33897867376E+02  0.23670030739E+02  0.12294577872E+03  0.47000000000E+01 0.  1.
        -11    1    4    4    0    0  0.12813454905E+02 -0.43026228500E+01 -0.34269852379E+02  0.36839109274E+02  0.00000000000E+00 0. -1.
         11    1    4    4    0    0 -0.10313909161E+03  0.39243731384E+02 -0.51157246480E+02  0.12163390374E+03  0.00000000000E+00 0.  1.
<mgrwt>
<rscale>  0 0.15156784E+03</rscale>
<asrwt>0</asrwt>
<pdfrwt beam="2">  1        2 0.30942972E-01 0.15812775E+03</pdfrwt>
<pdfrwt beam="1">  1       -2 0.17764864E-01 0.15812775E+03</pdfrwt>
<totfact> 0.42226904E+03</totfact>
</mgrwt>
</event>
<event>
 8    1  0.8504141E-006  0.1402830E+03  0.7546771E-02  0.1220445E+00
          2   -1    0    0  501    0  0.00000000000E+00  0.00000000000E+00  0.82574620790E+03  0.82574620790E+03  0.00000000000E+00 0. -1.
         -2   -1    0    0    0  501 -0.00000000000E+00 -0.00000000000E+00 -0.21639623764E+02  0.21639623764E+02  0.00000000000E+00 0.  1.
         23    2    1    2    0    0 -0.56622608490E+02 -0.53855479714E+02  0.33392321005E+03  0.36219336190E+03  0.11650231201E+03 0.  0.
         23    2    1    2    0    0  0.56622608490E+02  0.53855479714E+02  0.47018337408E+03  0.48519246977E+03  0.90734750593E+02 0.  0.
          5    1    3    3  502    0 -0.57765374382E+02 -0.16875134924E+02  0.31431270108E+03  0.32005651488E+03  0.47000000000E+01 0. -1.
         -5    1    3    3    0  502  0.11427658921E+01 -0.36980344790E+02  0.19610508975E+02  0.42136847021E+02  0.47000000000E+01 0.  1.
        -11    1    4    4    0    0  0.78264644456E+02  0.28641277721E+02  0.28044170063E+03  0.29256319798E+03  0.00000000000E+00 0.  1.
         11    1    4    4    0    0 -0.21642035966E+02  0.25214201992E+02  0.18974167345E+03  0.19262927178E+03  0.00000000000E+00 0. -1.
<mgrwt>
<rscale>  0 0.13484036E+03</rscale>
<asrwt>0</asrwt>
<pdfrwt beam="1">  1        2 0.12703785E+00 0.14028300E+03</pdfrwt>
<pdfrwt beam="2">  1       -2 0.33291735E-02 0.14028300E+03</pdfrwt>
<totfact> 0.11844005E+04</totfact>
</mgrwt>
</event>
<event>
 8    1  0.8504141E-006  0.1704322E+03  0.7546771E-02  0.1183728E+00
         -2   -1    0    0    0  501 -0.00000000000E+00  0.00000000000E+00  0.59722589455E+02  0.59722589455E+02  0.00000000000E+00 0.  1.
          2   -1    0    0  501    0  0.00000000000E+00 -0.00000000000E+00 -0.44802731253E+03  0.44802731253E+03  0.00000000000E+00 0. -1.
         23    2    1    2    0    0 -0.11352741831E+03 -0.23090221667E+02 -0.14860270874E+03  0.22611922461E+03  0.12500202257E+03 0.  0.
         23    2    1    2    0    0  0.11352741831E+03  0.23090221667E+02 -0.23970201434E+03  0.28163067738E+03  0.91853958658E+02 0.  0.
          5    1    3    3  502    0 -0.99677334120E+01  0.24805781989E+02 -0.97143422608E+02  0.10086434992E+03  0.47000000000E+01 0.  1.
         -5    1    3    3    0  502 -0.10355968490E+03 -0.47896003656E+02 -0.51459286136E+02  0.12525487468E+03  0.47000000000E+01 0.  1.
        -11    1    4    4    0    0  0.85493145634E+02 -0.23482406163E+02 -0.11202869533E+03  0.14286682584E+03  0.00000000000E+00 0. -1.
         11    1    4    4    0    0  0.28034272678E+02  0.46572627830E+02 -0.12767331901E+03  0.13876385154E+03  0.00000000000E+00 0.  1.
<mgrwt>
<rscale>  0 0.16448148E+03</rscale>
<asrwt>0</asrwt>
<pdfrwt beam="2">  1        2 0.68927276E-01 0.17043221E+03</pdfrwt>
<pdfrwt beam="1">  1       -2 0.91880910E-02 0.17043221E+03</pdfrwt>
<totfact> 0.52079477E+03</totfact>
</mgrwt>
</event>
<event>
 8    1  0.8504141E-006  0.1441345E+03  0.7546771E-02  0.1218320E+00
          2   -1    0    0  501    0  0.00000000000E+00  0.00000000000E+00  0.26161167149E+03  0.26161167149E+03  0.00000000000E+00 0. -1.
         -2   -1    0    0    0  501 -0.00000000000E+00 -0.00000000000E+00 -0.65755027868E+02  0.65755027868E+02  0.00000000000E+00 0.  1.
         23    2    1    2    0    0 -0.48334484882E+02  0.53057605387E+02  0.85090339262E+02  0.16737722119E+03  0.12499374552E+03 0.  0.
         23    2    1    2    0    0  0.48334484882E+02 -0.53057605387E+02  0.11076630436E+03  0.15998947817E+03  0.90421938844E+02 0.  0.
          5    1    3    3  502    0 -0.43733057947E+02  0.70717089377E+02  0.10884825976E+03  0.13705298516E+03  0.47000000000E+01 0. -1.
         -5    1    3    3    0  502 -0.46014269347E+01 -0.17659483990E+02 -0.23757920500E+02  0.30324236035E+02  0.47000000000E+01 0. -1.
        -11    1    4    4    0    0  0.17060766834E+02 -0.52146315704E+02  0.11595005118E+03  0.12827596180E+03  0.00000000000E+00 0. -1.
         11    1    4    4    0    0  0.31273718048E+02 -0.91128968317E+00 -0.51837468200E+01  0.31713516369E+02  0.00000000000E+00 0.  1.
<mgrwt>
<rscale>  0 0.13635450E+03</rscale>
<asrwt>0</asrwt>
<pdfrwt beam="1">  1        2 0.40247949E-01 0.14413455E+03</pdfrwt>
<pdfrwt beam="2">  1       -2 0.10116158E-01 0.14413455E+03</pdfrwt>
<totfact> 0.78817104E+03</totfact>
</mgrwt>
</event>
<event>
 8    1  0.8504141E-006  0.1253545E+03  0.7546771E-02  0.1248032E+00
          2   -1    0    0  501    0  0.00000000000E+00  0.00000000000E+00  0.16679198629E+03  0.16679198629E+03  0.00000000000E+00 0. -1.
         -2   -1    0    0    0  501 -0.00000000000E+00 -0.00000000000E+00 -0.76531418912E+02  0.76531418912E+02  0.00000000000E+00 0.  1.
         23    2    1    2    0    0 -0.65028381236E+01 -0.68836966457E+01  0.25046793224E+02  0.12783231243E+03  0.12499634421E+03 0.  0.
         23    2    1    2    0    0  0.65028381236E+01  0.68836966457E+01  0.65213774158E+02  0.11549109278E+03  0.94845579695E+02 0.  0.
          5    1    3    3  502    0  0.43798189713E+02  0.83206166291E+01  0.51943851103E+02  0.68613174760E+02  0.47000000000E+01 0.  1.
         -5    1    3    3    0  502 -0.50301027836E+02 -0.15204313275E+02 -0.26897057880E+02  0.59219137668E+02  0.47000000000E+01 0.  1.
        -11    1    4    4    0    0 -0.15623854269E+02 -0.46672777969E+01 -0.20513048602E+02  0.26204455102E+02  0.00000000000E+00 0.  1.
         11    1    4    4    0    0  0.22126692393E+02  0.11550974443E+02  0.85726822760E+02  0.89286637675E+02  0.00000000000E+00 0. -1.
<mgrwt>
<rscale>  0 0.11705710E+03</rscale>
<asrwt>0</asrwt>
<pdfrwt beam="1">  1        2 0.25660306E-01 0.12535453E+03</pdfrwt>
<pdfrwt beam="2">  1       -2 0.11774064E-01 0.12535453E+03</pdfrwt>
<totfact> 0.99675463E+03</totfact>
</mgrwt>
</event>
<event>
 8    1  0.8504141E-006  0.1286975E+03  0.7546771E-02  0.1243405E+00
          1   -1    0    0  501    0  0.00000000000E+00  0.00000000000E+00  0.43220424117E+02  0.43220424117E+02  0.00000000000E+00 0. -1.
         -1   -1    0    0    0  501 -0.00000000000E+00 -0.00000000000E+00 -0.30063990456E+03  0.30063990456E+03  0.00000000000E+00 0.  1.
         23    2    1    2    0    0  0.27857691208E+02  0.12745438810E+02 -0.17225571181E+03  0.21502343983E+03  0.12499820901E+03 0.  0.
         23    2    1    2    0    0 -0.27857691208E+02 -0.12745438810E+02 -0.85163768639E+02  0.12883688885E+03  0.91692852888E+02 0.  0.
          5    1    3    3  502    0 -0.27927940876E+02 -0.18815283884E+02 -0.31846447426E+01  0.34149915832E+02  0.47000000000E+01 0. -1.
         -5    1    3    3    0  502  0.55785632084E+02  0.31560722694E+02 -0.16907106706E+03  0.18087352399E+03  0.47000000000E+01 0. -1.
        -11    1    4    4    0    0  0.32082534944E+02  0.43802391547E+01 -0.41911847777E+02  0.52962992056E+02  0.00000000000E+00 0.  1.
         11    1    4    4    0    0 -0.59940226152E+02 -0.17125677965E+02 -0.43251920863E+02  0.75873896797E+02  0.00000000000E+00 0. -1.
<mgrwt>
<rscale>  0 0.11981364E+03</rscale>
<asrwt>0</asrwt>
<pdfrwt beam="1">  1        1 0.66492961E-02 0.12869751E+03</pdfrwt>
<pdfrwt beam="2">  1       -1 0.46252292E-01 0.12869751E+03</pdfrwt>
<totfact> 0.50547143E+03</totfact>
</mgrwt>
</event>
<event>
 8    1  0.8504141E-006  0.1407662E+03  0.7546771E-02  0.1222165E+00
         -1   -1    0    0    0  501 -0.00000000000E+00  0.00000000000E+00  0.52542847338E+02  0.52542847338E+02  0.00000000000E+00 0.  1.
          1   -1    0    0  501    0  0.00000000000E+00 -0.00000000000E+00 -0.37433253666E+03  0.37433253666E+03  0.00000000000E+00 0. -1.
         23    2    1    2    0    0  0.62982928520E+02  0.14861577818E+02 -0.86334288113E+02  0.16513244550E+03  0.12500959753E+03 0.  0.
         23    2    1    2    0    0 -0.62982928520E+02 -0.14861577818E+02 -0.23545540121E+03  0.26174293849E+03  0.94246507167E+02 0.  0.
          5    1    3    3  502    0  0.79357450903E+02  0.54167229211E+02 -0.47383560422E+02  0.10723332286E+03  0.47000000000E+01 0.  1.
         -5    1    3    3    0  502 -0.16374522383E+02 -0.39305651393E+02 -0.38950727691E+02  0.57899122639E+02  0.47000000000E+01 0.  1.
        -11    1    4    4    0    0 -0.33276330426E+02 -0.22701775585E+02 -0.22605086823E+03  0.22961202018E+03  0.00000000000E+00 0. -1.
         11    1    4    4    0    0 -0.29706598094E+02  0.78401977669E+01 -0.94045329742E+01  0.32130918315E+02  0.00000000000E+00 0.  1.
<mgrwt>
<rscale>  0 0.13363145E+03</rscale>
<asrwt>0</asrwt>
<pdfrwt beam="2">  1        1 0.57589619E-01 0.14076617E+03</pdfrwt>
<pdfrwt beam="1">  1       -1 0.80835152E-02 0.14076617E+03</pdfrwt>
<totfact> 0.53782240E+03</totfact>
</mgrwt>
</event>
<event>
 8    1  0.8504141E-006  0.1291809E+03  0.7546771E-02  0.1242983E+00
          2   -1    0    0  501    0  0.00000000000E+00  0.00000000000E+00  0.30309925500E+02  0.30309925500E+02  0.00000000000E+00 0.  1.
         -2   -1    0    0    0  501 -0.00000000000E+00 -0.00000000000E+00 -0.42004293704E+03  0.42004293704E+03  0.00000000000E+00 0. -1.
         23    2    1    2    0    0 -0.13122941874E+02  0.29877478802E+02 -0.22890545705E+03  0.26284104333E+03  0.12499132151E+03 0.  0.
         23    2    1    2    0    0  0.13122941874E+02 -0.29877478802E+02 -0.16082755449E+03  0.18751181921E+03  0.90721026864E+02 0.  0.
          5    1    3    3  502    0 -0.19129530558E+02  0.13620253167E+01 -0.23229192448E+03  0.23312962538E+03  0.47000000000E+01 0. -1.
         -5    1    3    3    0  502  0.60065886833E+01  0.28515453485E+02  0.33864674318E+01  0.29711417952E+02  0.47000000000E+01 0. -1.
        -11    1    4    4    0    0 -0.33336182184E+02 -0.86320762876E+01 -0.25460686041E+02  0.42825930432E+02  0.00000000000E+00 0.  1.
         11    1    4    4    0    0  0.46459124059E+02 -0.21245402514E+02 -0.13536686845E+03  0.14468588878E+03  0.00000000000E+00 0. -1.
<mgrwt>
<rscale>  0 0.12006902E+03</rscale>
<asrwt>0</asrwt>
<pdfrwt beam="1">  1        2 0.46630659E-02 0.12918090E+03</pdfrwt>
<pdfrwt beam="2">  1       -2 0.64621984E-01 0.12918090E+03</pdfrwt>
<totfact> 0.37038647E+03</totfact>
</mgrwt>
</event>
<event>
 8    1  0.8504141E-006  0.1376530E+03  0.7546771E-02  0.1228386E+00
          2   -1    0    0  501    0  0.00000000000E+00  0.00000000000E+00  0.89307275668E+02  0.89307275668E+02  0.00000000000E+00 0. -1.
         -2   -1    0    0    0  501 -0.00000000000E+00 -0.00000000000E+00 -0.17079060868E+03  0.17079060868E+03  0.00000000000E+00 0.  1.
         23    2    1    2    0    0  0.14575460627E+02 -0.55777975939E+02 -0.61838631117E+02  0.15090514463E+03  0.12499887890E+03 0.  0.
         23    2    1    2    0    0 -0.14575460627E+02  0.55777975939E+02 -0.19644701895E+02  0.10919273972E+03  0.90628436168E+02 0.  0.
          5    1    3    3  502    0 -0.34509167481E+02  0.24702054274E+02 -0.13000298093E+02  0.44633752656E+02  0.47000000000E+01 0.  1.
         -5    1    3    3    0  502  0.49084628109E+02 -0.80480030214E+02 -0.48838333024E+02  0.10627139198E+03  0.47000000000E+01 0.  1.
        -11    1    4    4    0    0 -0.45191873348E+02  0.54056984038E+02  0.38470303481E+01  0.70563890075E+02  0.00000000000E+00 0. -1.
         11    1    4    4    0    0  0.30616412720E+02  0.17209919007E+01 -0.23491732244E+02  0.38628849644E+02  0.00000000000E+00 0.  1.
<mgrwt>
<rscale>  0 0.12937534E+03</rscale>
<asrwt>0</asrwt>
<pdfrwt beam="1">  1        2 0.13739581E-01 0.13765299E+03</pdfrwt>
<pdfrwt beam="2">  1       -2 0.26275478E-01 0.13765299E+03</pdfrwt>
<totfact> 0.53624207E+03</totfact>
</mgrwt>
</event>
<event>
 8    1  0.8504141E-006  0.1322513E+03  0.7546771E-02  0.1237228E+00
         -2   -1    0    0    0  501 -0.00000000000E+00  0.00000000000E+00  0.60632728804E+02  0.60632728804E+02  0.00000000000E+00 0.  1.
          2   -1    0    0  501    0  0.00000000000E+00 -0.00000000000E+00 -0.28573943497E+03  0.28573943497E+03  0.00000000000E+00 0. -1.
         23    2    1    2    0    0  0.71106659252E+01  0.42603135646E+02 -0.44662088810E+02  0.13958906998E+03  0.12499927017E+03 0.  0.
         23    2    1    2    0    0 -0.71106659252E+01 -0.42603135646E+02 -0.18044461736E+03  0.20678309379E+03  0.91287453738E+02 0.  0.
          5    1    3    3  502    0 -0.52302482646E+02 -0.55427827833E+00  0.18305363572E+01  0.52548052092E+02  0.47000000000E+01 0.  1.
         -5    1    3    3    0  502  0.59413148571E+02  0.43157413924E+02 -0.46492625167E+02  0.87041017886E+02  0.47000000000E+01 0.  1.
        -11    1    4    4    0    0  0.31984010493E+02 -0.27937907445E+02 -0.14780478871E+03  0.15378478197E+03  0.00000000000E+00 0. -1.
         11    1    4    4    0    0 -0.39094676418E+02 -0.14665228201E+02 -0.32639828647E+02  0.52998311827E+02  0.00000000000E+00 0.  1.
<mgrwt>
<rscale>  0 0.12362878E+03</rscale>
<asrwt>0</asrwt>
<pdfrwt beam="2">  1        2 0.43959914E-01 0.13225130E+03</pdfrwt>
<pdfrwt beam="1">  1       -2 0.93281120E-02 0.13225130E+03</pdfrwt>
<totfact> 0.81028524E+03</totfact>
</mgrwt>
</event>
<event>
 8    1  0.8504141E-006  0.1882926E+03  0.7546771E-02  0.1165134E+00
         -3   -1    0    0    0  501 -0.00000000000E+00  0.00000000000E+00  0.56925416054E+03  0.56925416054E+03  0.00000000000E+00 0.  1.
          3   -1    0    0  501    0  0.00000000000E+00 -0.00000000000E+00 -0.61713578491E+02  0.61713578491E+02  0.00000000000E+00 0. -1.
         23    2    1    2    0    0 -0.37555163244E+02  0.13571625647E+03  0.36721555623E+03  0.41267584979E+03  0.12499919880E+03 0.  0.
         23    2    1    2    0    0  0.37555163244E+02 -0.13571625647E+03  0.14032502581E+03  0.21829188924E+03  0.90171744364E+02 0.  0.
          5    1    3    3  502    0 -0.53060890937E+02  0.78106642716E+02  0.32744754389E+03  0.34082266618E+03  0.47000000000E+01 0.  1.
         -5    1    3    3    0  502  0.15505727693E+02  0.57609613757E+02  0.39768012343E+02  0.71853183606E+02  0.47000000000E+01 0.  1.
        -11    1    4    4    0    0  0.44778416826E+02 -0.30610331680E+02  0.18682281489E+02  0.57368341972E+02  0.00000000000E+00 0. -1.
         11    1    4    4    0    0 -0.72232535818E+01 -0.10510592479E+03  0.12164274433E+03  0.16092354727E+03  0.00000000000E+00 0.  1.
<mgrwt>
<rscale>  0 0.18278582E+03</rscale>
<asrwt>0</asrwt>
<pdfrwt beam="2">  1        3 0.94943970E-02 0.18829257E+03</pdfrwt>
<pdfrwt beam="1">  1       -3 0.87577560E-01 0.18829257E+03</pdfrwt>
<totfact> 0.23824575E+02</totfact>
</mgrwt>
</event>
<event>
 8    1  0.8504141E-006  0.1697808E+03  0.7546771E-02  0.1184495E+00
          1   -1    0    0  501    0  0.00000000000E+00  0.00000000000E+00  0.10448747732E+03  0.10448747732E+03  0.00000000000E+00 0. -1.
         -1   -1    0    0    0  501 -0.00000000000E+00 -0.00000000000E+00 -0.31255804418E+03  0.31255804418E+03  0.00000000000E+00 0.  1.
         23    2    1    2    0    0 -0.51499631416E+02 -0.10270505952E+03 -0.20996081198E+03  0.27001679086E+03  0.12499993397E+03 0.  0.
         23    2    1    2    0    0  0.51499631416E+02  0.10270505952E+03  0.18902451156E+01  0.14702873064E+03  0.91724224279E+02 0.  0.
          5    1    3    3  502    0  0.11813093575E+02 -0.23576454871E+02 -0.14957797185E+03  0.15195742189E+03  0.47000000000E+01 0.  1.
         -5    1    3    3    0  502 -0.63312724992E+02 -0.79128604651E+02 -0.60382840123E+02  0.11805936897E+03  0.47000000000E+01 0.  1.
        -11    1    4    4    0    0 -0.19892739836E+02  0.59436379411E+02 -0.70422434993E+01  0.63071368221E+02  0.00000000000E+00 0.  1.
         11    1    4    4    0    0  0.71392371252E+02  0.43268680110E+02  0.89324886150E+01  0.83957362419E+02  0.00000000000E+00 0. -1.
<mgrwt>
<rscale>  0 0.16377893E+03</rscale>
<asrwt>0</asrwt>
<pdfrwt beam="1">  1        1 0.16074996E-01 0.16978081E+03</pdfrwt>
<pdfrwt beam="2">  1       -1 0.48085853E-01 0.16978081E+03</pdfrwt>
<totfact> 0.14818931E+03</totfact>
</mgrwt>
</event>
<event>
 8    1  0.8504141E-006  0.1319895E+03  0.7546771E-02  0.1237686E+00
         -1   -1    0    0    0  501 -0.00000000000E+00  0.00000000000E+00  0.17371229965E+03  0.17371229965E+03  0.00000000000E+00 0.  1.
          1   -1    0    0  501    0  0.00000000000E+00 -0.00000000000E+00 -0.78799876135E+02  0.78799876135E+02  0.00000000000E+00 0. -1.
         23    2    1    2    0    0  0.10123426787E+02 -0.41151392528E+02  0.40307718360E+02  0.13800700706E+03  0.12500120384E+03 0.  0.
         23    2    1    2    0    0 -0.10123426787E+02  0.41151392528E+02  0.54604705158E+02  0.11450516873E+03  0.91289862327E+02 0.  0.
          5    1    3    3  502    0  0.89214573397E+01  0.15650628298E+02  0.70903348918E+02  0.73306953660E+02  0.47000000000E+01 0.  1.
         -5    1    3    3    0  502  0.12019694470E+01 -0.56802020826E+02 -0.30595630558E+02  0.64700053398E+02  0.47000000000E+01 0.  1.
        -11    1    4    4    0    0 -0.16313113460E+02  0.69258792532E+02  0.44880898718E+02  0.84126054724E+02  0.00000000000E+00 0.  1.
         11    1    4    4    0    0  0.61896866735E+01 -0.28107400004E+02  0.97238064404E+01  0.30379114006E+02  0.00000000000E+00 0. -1.
<mgrwt>
<rscale>  0 0.12334012E+03</rscale>
<asrwt>0</asrwt>
<pdfrwt beam="2">  1        1 0.12123058E-01 0.13198948E+03</pdfrwt>
<pdfrwt beam="1">  1       -1 0.26724969E-01 0.13198948E+03</pdfrwt>
<totfact> 0.58435977E+03</totfact>
</mgrwt>
</event>
<event>
 8    1  0.8504141E-006  0.1337230E+03  0.7546771E-02  0.1234785E+00
         -2   -1    0    0    0  501 -0.00000000000E+00  0.00000000000E+00  0.44227757796E+03  0.44227757796E+03  0.00000000000E+00 0.  1.
          2   -1    0    0  501    0  0.00000000000E+00 -0.00000000000E+00 -0.32254674512E+02  0.32254674512E+02  0.00000000000E+00 0. -1.
         23    2    1    2    0    0  0.47818045454E+02 -0.58450858621E+01  0.19770165227E+03  0.23867924497E+03  0.12474417089E+03 0.  0.
         23    2    1    2    0    0 -0.47818045454E+02  0.58450858621E+01  0.21232125118E+03  0.23585300750E+03  0.90695076735E+02 0.  0.
          5    1    3    3  502    0  0.11180006754E+02  0.58241415121E+02  0.80737493440E+02  0.10028802438E+03  0.47000000000E+01 0.  1.
         -5    1    3    3    0  502  0.36638038699E+02 -0.64086500983E+02  0.11696415883E+03  0.13839122060E+03  0.47000000000E+01 0.  1.
        -11    1    4    4    0    0 -0.61160208073E+02 -0.27284661007E+02  0.13693581643E+03  0.15243504059E+03  0.00000000000E+00 0.  1.
         11    1    4    4    0    0  0.13342162620E+02  0.33129746870E+02  0.75385434754E+02  0.83417966914E+02  0.00000000000E+00 0. -1.
<mgrwt>
<rscale>  0 0.12518210E+03</rscale>
<asrwt>0</asrwt>
<pdfrwt beam="2">  1        2 0.49622580E-02 0.13372299E+03</pdfrwt>
<pdfrwt beam="1">  1       -2 0.68042700E-01 0.13372299E+03</pdfrwt>
<totfact> 0.30721979E+03</totfact>
</mgrwt>
</event>
<event>
 8    1  0.8504141E-006  0.2720871E+03  0.7546771E-02  0.1102011E+00
          1   -1    0    0  501    0  0.00000000000E+00  0.00000000000E+00  0.33011664227E+03  0.33011664227E+03  0.00000000000E+00 0. -1.
         -1   -1    0    0    0  501 -0.00000000000E+00 -0.00000000000E+00 -0.25698519573E+03  0.25698519573E+03  0.00000000000E+00 0.  1.
         23    2    1    2    0    0 -0.15588931521E+03  0.18467485680E+03 -0.83383818367E+02  0.28457729224E+03  0.12500037105E+03 0.  0.
         23    2    1    2    0    0  0.15588931521E+03 -0.18467485680E+03  0.15651526491E+03  0.30252454576E+03  0.92832059678E+02 0.  0.
          5    1    3    3  502    0 -0.81370384081E+02  0.14734028792E+03 -0.10487931311E+03  0.19837353696E+03  0.47000000000E+01 0.  1.
         -5    1    3    3    0  502 -0.74518931131E+02  0.37334568882E+02  0.21495494739E+02  0.86203755281E+02  0.47000000000E+01 0.  1.
        -11    1    4    4    0    0  0.83583124376E+02 -0.69270195614E+02  0.11940098737E+03  0.16137253318E+03  0.00000000000E+00 0. -1.
         11    1    4    4    0    0  0.72306190836E+02 -0.11540466119E+03  0.37114277545E+02  0.14115201258E+03  0.00000000000E+00 0.  1.
<mgrwt>
<rscale>  0 0.26872606E+03</rscale>
<asrwt>0</asrwt>
<pdfrwt beam="1">  1        1 0.50787176E-01 0.27208707E+03</pdfrwt>
<pdfrwt beam="2">  1       -1 0.39536184E-01 0.27208707E+03</pdfrwt>
<totfact> 0.49139248E+02</totfact>
</mgrwt>
</event>
<event>
 8    1  0.8504141E-006  0.1405297E+03  0.7546771E-02  0.1222966E+00
         -2   -1    0    0    0  501 -0.00000000000E+00  0.00000000000E+00  0.10673551062E+03  0.10673551062E+03  0.00000000000E+00 0.  1.
          2   -1    0    0  501    0  0.00000000000E+00 -0.00000000000E+00 -0.15058721100E+03  0.15058721100E+03  0.00000000000E+00 0. -1.
         23    2    1    2    0    0 -0.16979352662E+02 -0.61933549842E+02 -0.22202129708E+02  0.14227270504E+03  0.12499810008E+03 0.  0.
         23    2    1    2    0    0  0.16979352662E+02  0.61933549842E+02 -0.21649570674E+02  0.11505001658E+03  0.92971712862E+02 0.  0.
          5    1    3    3  502    0 -0.20447646596E+02 -0.67396488703E+02  0.38936305340E+02  0.80613391036E+02  0.47000000000E+01 0. -1.
         -5    1    3    3    0  502  0.34682939336E+01  0.54629388609E+01 -0.61138435049E+02  0.61659314008E+02  0.47000000000E+01 0. -1.
        -11    1    4    4    0    0 -0.17874309825E+02 -0.25199427108E+01 -0.36103251569E+02  0.40364413001E+02  0.00000000000E+00 0. -1.
         11    1    4    4    0    0  0.34853662487E+02  0.64453492553E+02  0.14453680895E+02  0.74685603583E+02  0.00000000000E+00 0.  1.
<mgrwt>
<rscale>  0 0.13307318E+03</rscale>
<asrwt>0</asrwt>
<pdfrwt beam="2">  1        2 0.23167263E-01 0.14052967E+03</pdfrwt>
<pdfrwt beam="1">  1       -2 0.16420848E-01 0.14052967E+03</pdfrwt>
<totfact> 0.65657042E+03</totfact>
</mgrwt>
</event>
<event>
 8    1  0.8504141E-006  0.1391648E+03  0.7546771E-02  0.1225510E+00
          1   -1    0    0  501    0  0.00000000000E+00  0.00000000000E+00  0.44910142038E+03  0.44910142038E+03  0.00000000000E+00 0. -1.
         -1   -1    0    0    0  501 -0.00000000000E+00 -0.00000000000E+00 -0.35625031609E+02  0.35625031609E+02  0.00000000000E+00 0.  1.
         23    2    1    2    0    0 -0.11006253651E+02 -0.60205865322E+02  0.19022744062E+03  0.23569752079E+03  0.12498383216E+03 0.  0.
         23    2    1    2    0    0  0.11006253651E+02  0.60205865322E+02  0.22324894814E+03  0.24902893120E+03  0.91811937610E+02 0.  0.
          5    1    3    3  502    0  0.40636287952E+02 -0.73020580474E+02  0.95832253219E+02  0.12723688077E+03  0.47000000000E+01 0. -1.
         -5    1    3    3    0  502 -0.51642541604E+02  0.12814715152E+02  0.94395187406E+02  0.10846064002E+03  0.47000000000E+01 0. -1.
        -11    1    4    4    0    0 -0.33967812785E+02  0.35159021658E+02  0.16096334340E+03  0.16822356264E+03  0.00000000000E+00 0. -1.
         11    1    4    4    0    0  0.44974066436E+02  0.25046843665E+02  0.62285604747E+02  0.80805368559E+02  0.00000000000E+00 0.  1.
<mgrwt>
<rscale>  0 0.13132037E+03</rscale>
<asrwt>0</asrwt>
<pdfrwt beam="1">  1        1 0.69092522E-01 0.13916480E+03</pdfrwt>
<pdfrwt beam="2">  1       -1 0.54807744E-02 0.13916480E+03</pdfrwt>
<totfact> 0.76366923E+03</totfact>
</mgrwt>
</event>
<event>
 8    1  0.8504141E-006  0.2072499E+03  0.7546771E-02  0.1147681E+00
          1   -1    0    0  501    0  0.00000000000E+00  0.00000000000E+00  0.18158660154E+03  0.18158660154E+03  0.00000000000E+00 0. -1.
         -1   -1    0    0    0  501 -0.00000000000E+00 -0.00000000000E+00 -0.23376186782E+03  0.23376186782E+03  0.00000000000E+00 0.  1.
         23    2    1    2    0    0  0.16483176174E+03 -0.12552658449E+02 -0.84585422815E+02  0.22384638535E+03  0.12500172628E+03 0.  0.
         23    2    1    2    0    0 -0.16483176174E+03  0.12552658449E+02  0.32410156526E+02  0.19150208401E+03  0.91079915580E+02 0.  0.
          5    1    3    3  502    0  0.14043377575E+03  0.38700036518E+02 -0.81083163372E+02  0.16678101685E+03  0.47000000000E+01 0. -1.
         -5    1    3    3    0  502  0.24397985985E+02 -0.51252694968E+02 -0.35022594430E+01  0.57065368507E+02  0.47000000000E+01 0. -1.
        -11    1    4    4    0    0 -0.91033081341E+02  0.35839969543E+01 -0.28432142454E+02  0.95437171255E+02  0.00000000000E+00 0.  1.
         11    1    4    4    0    0 -0.73798680395E+02  0.89686614948E+01  0.60842298980E+02  0.96064912753E+02  0.00000000000E+00 0. -1.
<mgrwt>
<rscale>  0 0.20245870E+03</rscale>
<asrwt>0</asrwt>
<pdfrwt beam="1">  1        1 0.27936400E-01 0.20724987E+03</pdfrwt>
<pdfrwt beam="2">  1       -1 0.35963364E-01 0.20724987E+03</pdfrwt>
<totfact> 0.12312211E+03</totfact>
</mgrwt>
</event>
<event>
 8    1  0.8504141E-006  0.1457696E+03  0.7546771E-02  0.1216797E+00
         -1   -1    0    0    0  501 -0.00000000000E+00  0.00000000000E+00  0.34338362779E+02  0.34338362779E+02  0.00000000000E+00 0.  1.
          1   -1    0    0  501    0  0.00000000000E+00 -0.00000000000E+00 -0.49843925287E+03  0.49843925287E+03  0.00000000000E+00 0. -1.
         23    2    1    2    0    0 -0.34933132678E+02 -0.63006799621E+02 -0.24058950375E+03  0.28130425450E+03  0.12672250680E+03 0.  0.
         23    2    1    2    0    0  0.34933132678E+02  0.63006799621E+02 -0.22351138634E+03  0.25147336115E+03  0.89951825915E+02 0.  0.
          5    1    3    3  502    0  0.18245373042E+02  0.26843312058E+02 -0.10565537763E+03  0.11062823266E+03  0.47000000000E+01 0. -1.
         -5    1    3    3    0  502 -0.53178505720E+02 -0.89850111679E+02 -0.13493412612E+03  0.17067602184E+03  0.47000000000E+01 0. -1.
        -11    1    4    4    0    0  0.21839539464E+02  0.41265756799E+02 -0.22110440234E+03  0.22598005422E+03  0.00000000000E+00 0. -1.
         11    1    4    4    0    0  0.13093593213E+02  0.21741042822E+02 -0.24069839963E+01  0.25493306929E+02  0.00000000000E+00 0.  1.
<mgrwt>
<rscale>  0 0.13745361E+03</rscale>
<asrwt>0</asrwt>
<pdfrwt beam="2">  1        1 0.76682957E-01 0.14576959E+03</pdfrwt>
<pdfrwt beam="1">  1       -1 0.52828254E-02 0.14576959E+03</pdfrwt>
<totfact> 0.70683439E+03</totfact>
</mgrwt>
</event>
<event>
 8    1  0.1346874E-005  0.3646035E+03  0.7546771E-02  0.1057793E+00
         -2   -1    0    0    0  501 -0.00000000000E+00  0.00000000000E+00  0.15827964997E+03  0.15827964997E+03  0.00000000000E+00 0.  1.
          2   -1    0    0  501    0  0.00000000000E+00 -0.00000000000E+00 -0.81704857437E+03  0.81704857437E+03  0.00000000000E+00 0. -1.
         23    2    1    2    0    0 -0.32350453852E+03  0.11249842977E+03 -0.34844013243E+03  0.50432752735E+03  0.12499858324E+03 0.  0.
         23    2    1    2    0    0  0.32350453852E+03 -0.11249842977E+03 -0.31032879196E+03  0.47100069698E+03  0.90700685177E+02 0.  0.
          5    1    3    3  502    0 -0.29105142746E+03  0.63748429150E+02 -0.24676371978E+03  0.38689691011E+03  0.47000000000E+01 0.  1.
         -5    1    3    3    0  502 -0.32453111057E+02  0.48750000625E+02 -0.10167641265E+03  0.11743061725E+03  0.47000000000E+01 0.  1.
        -11    1    4    4    0    0  0.16192730265E+03 -0.34679264430E+02 -0.95535914536E+02  0.19118110181E+03  0.00000000000E+00 0.  1.
         11    1    4    4    0    0  0.16157723587E+03 -0.77819165345E+02 -0.21479287743E+03  0.27981959517E+03  0.00000000000E+00 0. -1.
<mgrwt>
<rscale>  0 0.36200320E+03</rscale>
<asrwt>0</asrwt>
<pdfrwt beam="2">  1        2 0.12569978E+00 0.36460352E+03</pdfrwt>
<pdfrwt beam="1">  1       -2 0.24350715E-01 0.36460352E+03</pdfrwt>
<totfact> 0.51405126E+02</totfact>
</mgrwt>
</event>
<event>
 8    1  0.8504141E-006  0.1453687E+03  0.7546771E-02  0.1216019E+00
          1   -1    0    0  501    0  0.00000000000E+00  0.00000000000E+00  0.67532205694E+03  0.67532205694E+03  0.00000000000E+00 0. -1.
         -1   -1    0    0    0  501 -0.00000000000E+00 -0.00000000000E+00 -0.26893985063E+02  0.26893985063E+02  0.00000000000E+00 0.  1.
         23    2    1    2    0    0  0.71055413553E+02 -0.21377013697E+02  0.28272962568E+03  0.31791208068E+03  0.12500480509E+03 0.  0.
         23    2    1    2    0    0 -0.71055413553E+02  0.21377013697E+02  0.36569844620E+03  0.38430396133E+03  0.91914811806E+02 0.  0.
          5    1    3    3  502    0  0.49545384937E+02 -0.73503314082E+02  0.17496913706E+03  0.19619829579E+03  0.47000000000E+01 0.  1.
         -5    1    3    3    0  502  0.21510028616E+02  0.52126300385E+02  0.10776048862E+03  0.12171378488E+03  0.47000000000E+01 0.  1.
        -11    1    4    4    0    0 -0.43478261510E+02 -0.32679501809E+02  0.21669999138E+03  0.22342156415E+03  0.00000000000E+00 0.  1.
         11    1    4    4    0    0 -0.27577152043E+02  0.54056515506E+02  0.14899845483E+03  0.16088239719E+03  0.00000000000E+00 0. -1.
<mgrwt>
<rscale>  0 0.13801972E+03</rscale>
<asrwt>0</asrwt>
<pdfrwt beam="1">  1        1 0.10389569E+00 0.14536867E+03</pdfrwt>
<pdfrwt beam="2">  1       -1 0.41375367E-02 0.14536867E+03</pdfrwt>
<totfact> 0.67205228E+03</totfact>
</mgrwt>
</event>
<event>
 8    1  0.8504141E-006  0.1349575E+03  0.7546771E-02  0.1232278E+00
          2   -1    0    0  501    0  0.00000000000E+00  0.00000000000E+00  0.16033305243E+03  0.16033305243E+03  0.00000000000E+00 0. -1.
         -2   -1    0    0    0  501 -0.00000000000E+00 -0.00000000000E+00 -0.91700652694E+02  0.91700652694E+02  0.00000000000E+00 0.  1.
         23    2    1    2    0    0  0.44645344984E+02  0.24381585342E+02  0.21039775511E+02  0.13658773531E+03  0.12500347495E+03 0.  0.
         23    2    1    2    0    0 -0.44645344984E+02 -0.24381585342E+02  0.47592624223E+02  0.11544596981E+03  0.92060010501E+02 0.  0.
          5    1    3    3  502    0  0.13643176568E+02  0.34794512904E+02  0.68844768398E+02  0.78476025198E+02  0.47000000000E+01 0. -1.
         -5    1    3    3    0  502  0.31002168416E+02 -0.10412927562E+02 -0.47804992887E+02  0.58111710109E+02  0.47000000000E+01 0. -1.
        -11    1    4    4    0    0  0.28786215667E+02 -0.49926276508E+01  0.12343044684E+02  0.31716293847E+02  0.00000000000E+00 0.  1.
         11    1    4    4    0    0 -0.73431560651E+02 -0.19388957691E+02  0.35249579538E+02  0.83729675968E+02  0.00000000000E+00 0. -1.
<mgrwt>
<rscale>  0 0.12680330E+03</rscale>
<asrwt>0</asrwt>
<pdfrwt beam="1">  1        2 0.24666623E-01 0.13495754E+03</pdfrwt>
<pdfrwt beam="2">  1       -2 0.14107793E-01 0.13495754E+03</pdfrwt>
<totfact> 0.78308200E+03</totfact>
</mgrwt>
</event>
<event>
 8    1  0.8504141E-006  0.1342265E+03  0.7546771E-02  0.1233978E+00
         -1   -1    0    0    0  501 -0.00000000000E+00  0.00000000000E+00  0.16396379062E+02  0.16396379062E+02  0.00000000000E+00 0.  1.
          1   -1    0    0  501    0  0.00000000000E+00 -0.00000000000E+00 -0.93923238951E+03  0.93923238951E+03  0.00000000000E+00 0. -1.
         23    2    1    2    0    0  0.36638075952E+02 -0.32387735360E+02 -0.65442194611E+03  0.66804553958E+03  0.12500178154E+03 0.  0.
         23    2    1    2    0    0 -0.36638075952E+02  0.32387735360E+02 -0.26841406434E+03  0.28758322899E+03  0.90921337727E+02 0.  0.
          5    1    3    3  502    0  0.73161481873E+02 -0.40463427461E+02 -0.29508149835E+03  0.30673290020E+03  0.47000000000E+01 0.  1.
         -5    1    3    3    0  502 -0.36523405921E+02  0.80756921004E+01 -0.35934044776E+03  0.36131263939E+03  0.47000000000E+01 0.  1.
        -11    1    4    4    0    0 -0.55581100025E+02  0.86974019113E+01 -0.86685397499E+02  0.10334051296E+03  0.00000000000E+00 0.  1.
         11    1    4    4    0    0  0.18943024073E+02  0.23690333449E+02 -0.18172866684E+03  0.18424271603E+03  0.00000000000E+00 0. -1.
<mgrwt>
<rscale>  0 0.12570086E+03</rscale>
<asrwt>0</asrwt>
<pdfrwt beam="2">  1        1 0.14449728E+00 0.13422652E+03</pdfrwt>
<pdfrwt beam="1">  1       -1 0.25225200E-02 0.13422652E+03</pdfrwt>
<totfact> 0.83746263E+03</totfact>
</mgrwt>
</event>
<event>
 8    1  0.8504141E-006  0.1358737E+03  0.7546771E-02  0.1231099E+00
          4   -1    0    0  501    0  0.00000000000E+00  0.00000000000E+00  0.14361105854E+02  0.14361105854E+02  0.00000000000E+00 0. -1.
         -4   -1    0    0    0  501 -0.00000000000E+00 -0.00000000000E+00 -0.15512208486E+04  0.15512208486E+04  0.00000000000E+00 0.  1.
         23    2    1    2    0    0  0.30637542235E+02  0.43548922017E+02 -0.12893187813E+04  0.12964584780E+04  0.12500599089E+03 0.  0.
         23    2    1    2    0    0 -0.30637542235E+02 -0.43548922017E+02 -0.24754096146E+03  0.26912347647E+03  0.91190736280E+02 0.  0.
          5    1    3    3  502    0  0.14305877871E+02 -0.42162445655E+02 -0.59114084422E+03  0.59283380274E+03  0.47000000000E+01 0.  1.
         -5    1    3    3    0  502  0.16331664364E+02  0.85711367672E+02 -0.69817793710E+03  0.70362467528E+03  0.47000000000E+01 0.  1.
        -11    1    4    4    0    0  0.30409592101E+02 -0.76392733941E+01 -0.47507263205E+02  0.56921365470E+02  0.00000000000E+00 0. -1.
         11    1    4    4    0    0 -0.61047134336E+02 -0.35909648623E+02 -0.20003369826E+03  0.21220211100E+03  0.00000000000E+00 0.  1.
<mgrwt>
<rscale>  0 0.12757495E+03</rscale>
<asrwt>0</asrwt>
<pdfrwt beam="1">  1        4 0.22094018E-02 0.13587371E+03</pdfrwt>
<pdfrwt beam="2">  1       -4 0.23864927E+00 0.13587371E+03</pdfrwt>
<totfact> 0.12514903E+02</totfact>
</mgrwt>
</event>
<event>
 7    1  0.8504141E-006  0.1849891E+03  0.7546771E-02  0.1191085E+00
         -1   -1    0    0    0  501 -0.00000000000E+00  0.00000000000E+00  0.80210468680E+03  0.80210468680E+03  0.00000000000E+00 0.  1.
          1   -1    0    0  501    0  0.00000000000E+00 -0.00000000000E+00 -0.59232926777E+02  0.59232926777E+02  0.00000000000E+00 0. -1.
         23    2    1    2    0    0 -0.28732904426E+02  0.17012081194E+02  0.25295429279E+01  0.98233707196E+02  0.92349726252E+02 0.  0.
          5    1    1    2  502    0 -0.30032582044E+02  0.65766475030E+02  0.18774818282E+03  0.20124277720E+03  0.47000000000E+01 0. -1.
         -5    1    1    2    0  502  0.58765486470E+02 -0.82778556224E+02  0.55259403427E+03  0.56186112918E+03  0.47000000000E+01 0.  1.
        -11    1    3    3    0    0  0.33933446851E+02  0.37149350541E+01  0.12666356664E+01  0.34159682720E+02  0.00000000000E+00 0.  1.
         11    1    3    3    0    0 -0.62666351276E+02  0.13297146140E+02  0.12629072615E+01  0.64074024476E+02  0.00000000000E+00 0. -1.
<mgrwt>
<rscale>  0 0.15790241E+03</rscale>
<asrwt>0</asrwt>
<pdfrwt beam="2">  1        1 0.91127585E-02 0.18498912E+03</pdfrwt>
<pdfrwt beam="1">  1       -1 0.12340071E+00 0.18498912E+03</pdfrwt>
<totfact> 0.45029656E+02</totfact>
</mgrwt>
</event>
<event>
 8    1  0.8504141E-006  0.1612834E+03  0.7546771E-02  0.1194610E+00
          2   -1    0    0  501    0  0.00000000000E+00  0.00000000000E+00  0.11564433745E+03  0.11564433745E+03  0.00000000000E+00 0. -1.
         -2   -1    0    0    0  501 -0.00000000000E+00 -0.00000000000E+00 -0.19948077824E+03  0.19948077824E+03  0.00000000000E+00 0.  1.
         23    2    1    2    0    0  0.33028938716E+02  0.96413535079E+02 -0.15830391091E+02  0.16205844309E+03  0.12500342858E+03 0.  0.
         23    2    1    2    0    0 -0.33028938716E+02 -0.96413535079E+02 -0.68006049700E+02  0.15306667259E+03  0.91750220290E+02 0.  0.
          5    1    3    3  502    0  0.59294015718E+02  0.17896246970E+02  0.28144850092E+02  0.68192950826E+02  0.47000000000E+01 0.  1.
         -5    1    3    3    0  502 -0.26265077002E+02  0.78517288108E+02 -0.43975241183E+02  0.93865492269E+02  0.47000000000E+01 0.  1.
        -11    1    4    4    0    0  0.25761657598E+02 -0.53296946066E+02 -0.51156803391E+02  0.78238392081E+02  0.00000000000E+00 0. -1.
         11    1    4    4    0    0 -0.58790596314E+02 -0.43116589012E+02 -0.16849246309E+02  0.74828280510E+02  0.00000000000E+00 0.  1.
<mgrwt>
<rscale>  0 0.15487283E+03</rscale>
<asrwt>0</asrwt>
<pdfrwt beam="1">  1        2 0.17791437E-01 0.16128341E+03</pdfrwt>
<pdfrwt beam="2">  1       -2 0.30689350E-01 0.16128341E+03</pdfrwt>
<totfact> 0.30335445E+03</totfact>
</mgrwt>
</event>
<event>
 8    1  0.8504141E-006  0.1460630E+03  0.7546771E-02  0.1213573E+00
          1   -1    0    0  501    0  0.00000000000E+00  0.00000000000E+00  0.29379894611E+02  0.29379894611E+02  0.00000000000E+00 0. -1.
         -1   -1    0    0    0  501 -0.00000000000E+00 -0.00000000000E+00 -0.61883279057E+03  0.61883279057E+03  0.00000000000E+00 0.  1.
         23    2    1    2    0    0 -0.30640534077E+02  0.69053843699E+02 -0.34758783119E+03  0.37703008778E+03  0.12500844390E+03 0.  0.
         23    2    1    2    0    0  0.30640534077E+02 -0.69053843699E+02 -0.24186506477E+03  0.27118259739E+03  0.96612710938E+02 0.  0.
          5    1    3    3  502    0 -0.54232928209E+02  0.95490975096E+02 -0.27384567565E+03  0.29508182068E+03  0.47000000000E+01 0. -1.
         -5    1    3    3    0  502  0.23592394131E+02 -0.26437131397E+02 -0.73742155540E+02  0.81948267102E+02  0.47000000000E+01 0. -1.
        -11    1    4    4    0    0 -0.33186912547E+02 -0.13774212184E+02 -0.97854715712E+02  0.10424320348E+03  0.00000000000E+00 0.  1.
         11    1    4    4    0    0  0.63827446624E+02 -0.55279631515E+02 -0.14401034906E+03  0.16693939391E+03  0.00000000000E+00 0. -1.
<mgrwt>
<rscale>  0 0.13981884E+03</rscale>
<asrwt>0</asrwt>
<pdfrwt beam="1">  1        1 0.45199837E-02 0.14606295E+03</pdfrwt>
<pdfrwt beam="2">  1       -1 0.95205047E-01 0.14606295E+03</pdfrwt>
<totfact> 0.20969533E+03</totfact>
</mgrwt>
</event>
<event>
 8    1  0.8504141E-006  0.1574396E+03  0.7546771E-02  0.1200831E+00
          4   -1    0    0  501    0  0.00000000000E+00  0.00000000000E+00  0.51768377662E+03  0.51768377662E+03  0.00000000000E+00 0. -1.
         -4   -1    0    0    0  501 -0.00000000000E+00 -0.00000000000E+00 -0.40074373937E+02  0.40074373937E+02  0.00000000000E+00 0.  1.
         23    2    1    2    0    0 -0.37674151398E+02  0.87991668815E+02  0.23058031820E+03  0.27920335640E+03  0.12500142248E+03 0.  0.
         23    2    1    2    0    0  0.37674151398E+02 -0.87991668815E+02  0.24702908448E+03  0.27855479415E+03  0.86067004716E+02 0.  0.
          5    1    3    3  502    0 -0.83191172114E+02  0.46402604756E+02  0.14720854484E+03  0.17540358753E+03  0.47000000000E+01 0. -1.
         -5    1    3    3    0  502  0.45517020716E+02  0.41589064059E+02  0.83371773360E+02  0.10379976887E+03  0.47000000000E+01 0. -1.
        -11    1    4    4    0    0  0.63351590295E+01 -0.75908451796E+02  0.89693021203E+02  0.11767355415E+03  0.00000000000E+00 0.  1.
         11    1    4    4    0    0  0.31338992369E+02 -0.12083217019E+02  0.15733606328E+03  0.16088124000E+03  0.00000000000E+00 0. -1.
<mgrwt>
<rscale>  0 0.14970933E+03</rscale>
<asrwt>0</asrwt>
<pdfrwt beam="1">  1        4 0.79643653E-01 0.15743961E+03</pdfrwt>
<pdfrwt beam="2">  1       -4 0.61652887E-02 0.15743961E+03</pdfrwt>
<totfact> 0.41670133E+02</totfact>
</mgrwt>
</event>
<event>
 8    1  0.8504141E-006  0.1301060E+03  0.7546771E-02  0.1241901E+00
          2   -1    0    0  501    0  0.00000000000E+00  0.00000000000E+00  0.24431508733E+03  0.24431508733E+03  0.00000000000E+00 0. -1.
         -2   -1    0    0    0  501 -0.00000000000E+00 -0.00000000000E+00 -0.10673494672E+03  0.10673494672E+03  0.00000000000E+00 0.  1.
         23    2    1    2    0    0 -0.29279695460E+02 -0.11164435780E+02 -0.50591697790E+02  0.13959621161E+03  0.12627603580E+03 0.  0.
         23    2    1    2    0    0  0.29279695460E+02  0.11164435780E+02  0.18817183840E+03  0.21145382245E+03  0.91225725916E+02 0.  0.
          5    1    3    3  502    0  0.89195088128E+01 -0.48294474014E+02  0.18091892642E+02  0.52548267689E+02  0.47000000000E+01 0. -1.
         -5    1    3    3    0  502 -0.38199204273E+02  0.37130038234E+02 -0.68683590432E+02  0.87047943921E+02  0.47000000000E+01 0.  1.
        -11    1    4    4    0    0 -0.20434443181E+02 -0.22054856420E+02  0.30509849771E+02  0.42834963440E+02  0.00000000000E+00 0.  1.
         11    1    4    4    0    0  0.49714138641E+02  0.33219292201E+02  0.15766198863E+03  0.16861885901E+03  0.00000000000E+00 0. -1.
<mgrwt>
<rscale>  0 0.12072780E+03</rscale>
<asrwt>0</asrwt>
<pdfrwt beam="1">  1        2 0.37586936E-01 0.13010604E+03</pdfrwt>
<pdfrwt beam="2">  1       -2 0.16420761E-01 0.13010604E+03</pdfrwt>
<totfact> 0.38631637E+03</totfact>
</mgrwt>
</event>
<event>
 8    1  0.8504141E-006  0.1286207E+03  0.7546771E-02  0.1242761E+00
         -4   -1    0    0    0  501 -0.00000000000E+00  0.00000000000E+00  0.24310606638E+03  0.24310606638E+03  0.00000000000E+00 0.  1.
          4   -1    0    0  501    0  0.00000000000E+00 -0.00000000000E+00 -0.53079913690E+02  0.53079913690E+02  0.00000000000E+00 0. -1.
         23    2    1    2    0    0  0.42283593526E+01  0.30051085636E+02  0.11701797629E+03  0.17388643460E+03  0.12498935391E+03 0.  0.
         23    2    1    2    0    0 -0.42283593526E+01 -0.30051085636E+02  0.73008176398E+02  0.12229954547E+03  0.93306153234E+02 0.  0.
          5    1    3    3  502    0  0.27912058313E+02  0.70713220068E+02  0.94879501382E+02  0.12167026043E+03  0.47000000000E+01 0.  1.
         -5    1    3    3    0  502 -0.23683698960E+02 -0.40662134432E+02  0.22138474911E+02  0.52216174164E+02  0.47000000000E+01 0.  1.
        -11    1    4    4    0    0 -0.39328105310E+02 -0.34258060953E+01  0.67097380514E+02  0.77849177816E+02  0.00000000000E+00 0.  1.
         11    1    4    4    0    0  0.35099745958E+02 -0.26625279541E+02  0.59107958838E+01  0.44450367658E+02  0.00000000000E+00 0. -1.
<mgrwt>
<rscale>  0 0.12020415E+03</rscale>
<asrwt>0</asrwt>
<pdfrwt beam="2">  1        4 0.81661407E-02 0.12862070E+03</pdfrwt>
<pdfrwt beam="1">  1       -4 0.37400933E-01 0.12862070E+03</pdfrwt>
<totfact> 0.12078710E+03</totfact>
</mgrwt>
</event>
<event>
 8    1  0.8504141E-006  0.1332919E+03  0.7546771E-02  0.1233895E+00
         -1   -1    0    0    0  501 -0.00000000000E+00  0.00000000000E+00  0.12450275186E+02  0.12450275186E+02  0.00000000000E+00 0.  1.
          1   -1    0    0  501    0  0.00000000000E+00 -0.00000000000E+00 -0.11741128182E+04  0.11741128182E+04  0.00000000000E+00 0. -1.
         23    2    1    2    0    0 -0.41311830280E+02  0.20837220734E+02 -0.55530723990E+03  0.57108043223E+03  0.12500348916E+03 0.  0.
         23    2    1    2    0    0  0.41311830280E+02 -0.20837220734E+02 -0.60635530308E+03  0.61548266112E+03  0.94927843536E+02 0.  0.
          5    1    3    3  502    0 -0.55360123485E+02 -0.20280409542E+02 -0.12206349621E+03  0.13563784645E+03  0.47000000000E+01 0.  1.
         -5    1    3    3    0  502  0.14048293205E+02  0.41117630276E+02 -0.43324374369E+03  0.43544258578E+03  0.47000000000E+01 0.  1.
        -11    1    4    4    0    0  0.63860226129E+02  0.12743537285E+02 -0.36619762572E+03  0.37194250538E+03  0.00000000000E+00 0.  1.
         11    1    4    4    0    0 -0.22548395849E+02 -0.33580758019E+02 -0.24015767736E+03  0.24354015574E+03  0.00000000000E+00 0. -1.
<mgrwt>
<rscale>  0 0.12575424E+03</rscale>
<asrwt>0</asrwt>
<pdfrwt beam="2">  1        1 0.18063275E+00 0.13329190E+03</pdfrwt>
<pdfrwt beam="1">  1       -1 0.19154269E-02 0.13329190E+03</pdfrwt>
<totfact> 0.84567838E+03</totfact>
</mgrwt>
</event>
<event>
 8    1  0.8504141E-006  0.1305339E+03  0.7546771E-02  0.1240181E+00
          2   -1    0    0  501    0  0.00000000000E+00  0.00000000000E+00  0.15095263433E+03  0.15095263433E+03  0.00000000000E+00 0. -1.
         -2   -1    0    0    0  501 -0.00000000000E+00 -0.00000000000E+00 -0.10917101194E+03  0.10917101194E+03  0.00000000000E+00 0.  1.
         23    2    1    2    0    0  0.21652793676E+02  0.30740805476E+02 -0.34736129435E+02  0.13507662033E+03  0.12500101630E+03 0.  0.
         23    2    1    2    0    0 -0.21652793676E+02 -0.30740805476E+02  0.76517751827E+02  0.12504702595E+03  0.91476509326E+02 0.  0.
          5    1    3    3  502    0 -0.12036309682E+02  0.49978142443E+02 -0.66874215534E+02  0.84480401136E+02  0.47000000000E+01 0.  1.
         -5    1    3    3    0  502  0.33689103358E+02 -0.19237336968E+02  0.32138086099E+02  0.50596219194E+02  0.47000000000E+01 0.  1.
        -11    1    4    4    0    0  0.21357541567E+02 -0.20135516023E+02 -0.72966799332E+01  0.30246076198E+02  0.00000000000E+00 0.  1.
         11    1    4    4    0    0 -0.43010335244E+02 -0.10605289452E+02  0.83814431760E+02  0.94800949749E+02  0.00000000000E+00 0. -1.
<mgrwt>
<rscale>  0 0.12178527E+03</rscale>
<asrwt>0</asrwt>
<pdfrwt beam="1">  1        2 0.23223482E-01 0.13053388E+03</pdfrwt>
<pdfrwt beam="2">  1       -2 0.16795540E-01 0.13053388E+03</pdfrwt>
<totfact> 0.62766449E+03</totfact>
</mgrwt>
</event>
<event>
 8    1  0.8504141E-006  0.1321488E+03  0.7546771E-02  0.1236176E+00
         -1   -1    0    0    0  501 -0.00000000000E+00  0.00000000000E+00  0.21772929215E+02  0.21772929215E+02  0.00000000000E+00 0.  1.
          1   -1    0    0  501    0  0.00000000000E+00 -0.00000000000E+00 -0.64232264811E+03  0.64232264811E+03  0.00000000000E+00 0. -1.
         23    2    1    2    0    0  0.31791483921E+02 -0.28728797037E+02 -0.31836135598E+03  0.34469880731E+03  0.12500908988E+03 0.  0.
         23    2    1    2    0    0 -0.31791483921E+02  0.28728797037E+02 -0.30218836292E+03  0.31939677002E+03  0.94129951579E+02 0.  0.
          5    1    3    3  502    0  0.64441535015E+02 -0.35035506329E+02 -0.29441708954E+03  0.30345297947E+03  0.47000000000E+01 0. -1.
         -5    1    3    3    0  502 -0.32650051094E+02  0.63067092920E+01 -0.23944266438E+02  0.41245827835E+02  0.47000000000E+01 0. -1.
        -11    1    4    4    0    0  0.17550315432E+01 -0.29127283137E+02 -0.15505842031E+03  0.15778020303E+03  0.00000000000E+00 0. -1.
         11    1    4    4    0    0 -0.33546515464E+02  0.57856080175E+02 -0.14712994261E+03  0.16161656699E+03  0.00000000000E+00 0.  1.
<mgrwt>
<rscale>  0 0.12429472E+03</rscale>
<asrwt>0</asrwt>
<pdfrwt beam="2">  1        1 0.98818860E-01 0.13214884E+03</pdfrwt>
<pdfrwt beam="1">  1       -1 0.33496817E-02 0.13214884E+03</pdfrwt>
<totfact> 0.97702660E+03</totfact>
</mgrwt>
</event>
<event>
 8    1  0.8504141E-006  0.1411167E+03  0.7546771E-02  0.1222485E+00
         -1   -1    0    0    0  501 -0.00000000000E+00  0.00000000000E+00  0.69898552280E+03  0.69898552280E+03  0.00000000000E+00 0.  1.
          1   -1    0    0  501    0  0.00000000000E+00 -0.00000000000E+00 -0.24927157051E+02  0.24927157051E+02  0.00000000000E+00 0. -1.
         23    2    1    2    0    0 -0.64058987517E+01 -0.65221323922E+02  0.47078207126E+03  0.49147702672E+03  0.12497620791E+03 0.  0.
         23    2    1    2    0    0  0.64058987517E+01  0.65221323922E+02  0.20327629449E+03  0.23243565313E+03  0.91707275127E+02 0.  0.
          5    1    3    3  502    0  0.41434806709E+02  0.14913111650E+02  0.10522265093E+03  0.11416278017E+03  0.47000000000E+01 0.  1.
         -5    1    3    3    0  502 -0.47840705461E+02 -0.80134435571E+02  0.36555942033E+03  0.37731424655E+03  0.47000000000E+01 0.  1.
        -11    1    4    4    0    0 -0.25567953579E+02  0.31600815094E+02  0.17137468458E+03  0.17612953835E+03  0.00000000000E+00 0.  1.
         11    1    4    4    0    0  0.31973852331E+02  0.33620508828E+02  0.31901609912E+02  0.56306114780E+02  0.00000000000E+00 0. -1.
<mgrwt>
<rscale>  0 0.13340769E+03</rscale>
<asrwt>0</asrwt>
<pdfrwt beam="2">  1        1 0.38349478E-02 0.14111665E+03</pdfrwt>
<pdfrwt beam="1">  1       -1 0.10753622E+00 0.14111665E+03</pdfrwt>
<totfact> 0.20051841E+03</totfact>
</mgrwt>
</event>
<event>
 8    1  0.8504141E-006  0.1520379E+03  0.7546771E-02  0.1206516E+00
         -2   -1    0    0    0  501 -0.00000000000E+00  0.00000000000E+00  0.19229022620E+02  0.19229022620E+02  0.00000000000E+00 0.  1.
          2   -1    0    0  501    0  0.00000000000E+00 -0.00000000000E+00 -0.10185669581E+04  0.10185669581E+04  0.00000000000E+00 0. -1.
         23    2    1    2    0    0  0.81943838216E+02  0.27846682665E+02 -0.49294039105E+03  0.51585439308E+03  0.12500118152E+03 0.  0.
         23    2    1    2    0    0 -0.81943838216E+02 -0.27846682665E+02 -0.50639754444E+03  0.52194158764E+03  0.92164621955E+02 0.  0.
          5    1    3    3  502    0  0.37959076208E+02 -0.54693052073E+01 -0.28220316857E+02  0.47846431942E+02  0.47000000000E+01 0.  1.
         -5    1    3    3    0  502  0.43984762008E+02  0.33315987872E+02 -0.46472007419E+03  0.46800796114E+03  0.47000000000E+01 0.  1.
        -11    1    4    4    0    0 -0.19523438364E+02  0.33586394722E+02 -0.15463029036E+03  0.15943568375E+03  0.00000000000E+00 0.  1.
         11    1    4    4    0    0 -0.62420399853E+02 -0.61433077386E+02 -0.35176725407E+03  0.36250590388E+03  0.00000000000E+00 0. -1.
<mgrwt>
<rscale>  0 0.14518658E+03</rscale>
<asrwt>0</asrwt>
<pdfrwt beam="2">  1        2 0.15670265E+00 0.15203791E+03</pdfrwt>
<pdfrwt beam="1">  1       -2 0.29583104E-02 0.15203791E+03</pdfrwt>
<totfact> 0.10727526E+04</totfact>
</mgrwt>
</event>
<event>
 8    1  0.8504141E-006  0.1510632E+03  0.7546771E-02  0.1208593E+00
         -3   -1    0    0    0  501 -0.00000000000E+00  0.00000000000E+00  0.79133871907E+03  0.79133871907E+03  0.00000000000E+00 0.  1.
          3   -1    0    0  501    0  0.00000000000E+00 -0.00000000000E+00 -0.26429678750E+02  0.26429678750E+02  0.00000000000E+00 0. -1.
         23    2    1    2    0    0  0.82337640701E+02  0.20386168364E+02  0.54623574951E+03  0.56673943044E+03  0.12500002015E+03 0.  0.
         23    2    1    2    0    0 -0.82337640701E+02 -0.20386168364E+02  0.21867329080E+03  0.25102896737E+03  0.89456421865E+02 0.  0.
          5    1    3    3  502    0  0.10413798619E+03 -0.17870703709E+02  0.35355796079E+03  0.36903848561E+03  0.47000000000E+01 0.  1.
         -5    1    3    3    0  502 -0.21800345485E+02  0.38256872073E+02  0.19267778872E+03  0.19770094484E+03  0.47000000000E+01 0.  1.
        -11    1    4    4    0    0 -0.63561487546E+02 -0.37101555847E+02  0.21286377967E+03  0.22522783318E+03  0.00000000000E+00 0.  1.
         11    1    4    4    0    0 -0.18776153155E+02  0.16715387483E+02  0.58095111375E+01  0.25801134193E+02  0.00000000000E+00 0. -1.
<mgrwt>
<rscale>  0 0.14357890E+03</rscale>
<asrwt>0</asrwt>
<pdfrwt beam="2">  1        3 0.40661050E-02 0.15106319E+03</pdfrwt>
<pdfrwt beam="1">  1       -3 0.12174440E+00 0.15106319E+03</pdfrwt>
<totfact> 0.42645739E+02</totfact>
</mgrwt>
</event>
<event>
 7    1  0.8504141E-006  0.3322601E+03  0.7546771E-02  0.1071685E+00
         -1   -1    0    0    0  501 -0.00000000000E+00  0.00000000000E+00  0.20111036871E+03  0.20111036871E+03  0.00000000000E+00 0.  1.
          1   -1    0    0  501    0  0.00000000000E+00 -0.00000000000E+00 -0.99652118324E+03  0.99652118324E+03  0.00000000000E+00 0. -1.
         23    2    1    2    0    0  0.20880413698E+03  0.22253729017E+03 -0.80449560495E+03  0.86524727554E+03  0.91201185935E+02 0.  0.
          5    1    1    2  502    0 -0.17582541244E+02  0.13190516247E+02 -0.16282626246E+02  0.27755168760E+02  0.47000000000E+01 0. -1.
         -5    1    1    2    0  502 -0.19122159574E+03 -0.23572780642E+03  0.25367416661E+02  0.30462910764E+03  0.47000000000E+01 0.  1.
        -11    1    3    3    0    0  0.91671535325E+02  0.16256530500E+03 -0.48930702453E+03  0.52369123826E+03  0.00000000000E+00 0.  1.
         11    1    3    3    0    0  0.11713260166E+03  0.59971985169E+02 -0.31518858042E+03  0.34155603728E+03  0.00000000000E+00 0. -1.
<mgrwt>
<rscale>  0 0.32876428E+03</rscale>
<asrwt>0</asrwt>
<pdfrwt beam="2">  1        1 0.15331095E+00 0.33226010E+03</pdfrwt>
<pdfrwt beam="1">  1       -1 0.30940056E-01 0.33226010E+03</pdfrwt>
<totfact> 0.15596064E+02</totfact>
</mgrwt>
</event>
<event>
 8    1  0.8504141E-006  0.1409759E+03  0.7546771E-02  0.1222369E+00
         -2   -1    0    0    0  501 -0.00000000000E+00  0.00000000000E+00  0.15409230488E+03  0.15409230488E+03  0.00000000000E+00 0.  1.
          2   -1    0    0  501    0  0.00000000000E+00 -0.00000000000E+00 -0.13757340369E+03  0.13757340369E+03  0.00000000000E+00 0. -1.
         23    2    1    2    0    0 -0.56970881732E+02 -0.31708127795E+02  0.79668809438E+02  0.16193002539E+03  0.12499250855E+03 0.  0.
         23    2    1    2    0    0  0.56970881732E+02  0.31708127795E+02 -0.63149908243E+02  0.12973568317E+03  0.92694928902E+02 0.  0.
          5    1    3    3  502    0 -0.42899803195E+02 -0.62138944104E+01 -0.26982309252E+02  0.51275146129E+02  0.47000000000E+01 0. -1.
         -5    1    3    3    0  502 -0.14071078536E+02 -0.25494233384E+02  0.10665111869E+03  0.11065487926E+03  0.47000000000E+01 0. -1.
        -11    1    4    4    0    0  0.37271520332E+02  0.21086570498E+02  0.17333833942E+02  0.46198176179E+02  0.00000000000E+00 0.  1.
         11    1    4    4    0    0  0.19699361400E+02  0.10621557297E+02 -0.80483742184E+02  0.83537506995E+02  0.00000000000E+00 0. -1.
<mgrwt>
<rscale>  0 0.13348851E+03</rscale>
<asrwt>0</asrwt>
<pdfrwt beam="2">  1        2 0.21165139E-01 0.14097593E+03</pdfrwt>
<pdfrwt beam="1">  1       -2 0.23706509E-01 0.14097593E+03</pdfrwt>
<totfact> 0.39045770E+03</totfact>
</mgrwt>
</event>
<event>
 8    1  0.8504141E-006  0.1284662E+03  0.7546771E-02  0.1243461E+00
          1   -1    0    0  501    0  0.00000000000E+00  0.00000000000E+00  0.20694480640E+03  0.20694480640E+03  0.00000000000E+00 0. -1.
         -1   -1    0    0    0  501 -0.00000000000E+00 -0.00000000000E+00 -0.74234941365E+02  0.74234941365E+02  0.00000000000E+00 0.  1.
         23    2    1    2    0    0 -0.21665649098E+02  0.20290423808E+02  0.16142915242E+02  0.12947649919E+03  0.12498987351E+03 0.  0.
         23    2    1    2    0    0  0.21665649098E+02 -0.20290423808E+02  0.11656694980E+03  0.15170324858E+03  0.92438737533E+02 0.  0.
          5    1    3    3  502    0  0.58745978691E+01 -0.43376278158E+02  0.36329451275E+02  0.57078292169E+02  0.47000000000E+01 0. -1.
         -5    1    3    3    0  502 -0.27540246967E+02  0.63666701966E+02 -0.20186536033E+02  0.72398207016E+02  0.47000000000E+01 0. -1.
        -11    1    4    4    0    0  0.45872313845E+02 -0.36158521720E+02  0.10574076505E+03  0.12080073371E+03  0.00000000000E+00 0. -1.
         11    1    4    4    0    0 -0.24206664748E+02  0.15868097912E+02  0.10826184745E+02  0.30902514876E+02  0.00000000000E+00 0.  1.
<mgrwt>
<rscale>  0 0.11977958E+03</rscale>
<asrwt>0</asrwt>
<pdfrwt beam="1">  1        1 0.31837662E-01 0.12846622E+03</pdfrwt>
<pdfrwt beam="2">  1       -1 0.11420760E-01 0.12846622E+03</pdfrwt>
<totfact> 0.65873179E+03</totfact>
</mgrwt>
</event>
<event>
 8    1  0.8504141E-006  0.2459536E+03  0.7546771E-02  0.1118524E+00
         -1   -1    0    0    0  501 -0.00000000000E+00  0.00000000000E+00  0.72669076786E+02  0.72669076786E+02  0.00000000000E+00 0.  1.
          1   -1    0    0  501    0  0.00000000000E+00 -0.00000000000E+00 -0.78287232209E+03  0.78287232209E+03  0.00000000000E+00 0. -1.
         23    2    1    2    0    0  0.10169848166E+02 -0.21157513125E+03 -0.34066539151E+03  0.42017390027E+03  0.12500294205E+03 0.  0.
         23    2    1    2    0    0 -0.10169848166E+02  0.21157513125E+03 -0.36953785379E+03  0.43536749860E+03  0.90106445278E+02 0.  0.
          5    1    3    3  502    0 -0.42374492852E+02 -0.20641262006E+02 -0.76721058176E+02  0.90165792346E+02  0.47000000000E+01 0. -1.
         -5    1    3    3    0  502  0.52544341018E+02 -0.19093386924E+03 -0.26394433334E+03  0.33000810793E+03  0.47000000000E+01 0. -1.
        -11    1    4    4    0    0 -0.36597822109E+01  0.81282324861E+02 -0.65258899677E+02  0.10430213002E+03  0.00000000000E+00 0.  1.
         11    1    4    4    0    0 -0.65100659552E+01  0.13029280639E+03 -0.30427895411E+03  0.33106536857E+03  0.00000000000E+00 0. -1.
<mgrwt>
<rscale>  0 0.24191386E+03</rscale>
<asrwt>0</asrwt>
<pdfrwt beam="2">  1        1 0.12044189E+00 0.24595365E+03</pdfrwt>
<pdfrwt beam="1">  1       -1 0.11179859E-01 0.24595365E+03</pdfrwt>
<totfact> 0.12208865E+03</totfact>
</mgrwt>
</event>
<event>
 8    1  0.8504141E-006  0.1694386E+03  0.7546771E-02  0.1184780E+00
         -3   -1    0    0    0  501 -0.00000000000E+00  0.00000000000E+00  0.24843995220E+03  0.24843995220E+03  0.00000000000E+00 0.  1.
          3   -1    0    0  501    0  0.00000000000E+00 -0.00000000000E+00 -0.12356990450E+03  0.12356990450E+03  0.00000000000E+00 0. -1.
         23    2    1    2    0    0  0.45175966563E+02 -0.10547972237E+03  0.14582653742E+03  0.22355045198E+03  0.12466990726E+03 0.  0.
         23    2    1    2    0    0 -0.45175966563E+02  0.10547972237E+03 -0.20956489716E+02  0.14845940472E+03  0.91837795063E+02 0.  0.
          5    1    3    3  502    0  0.80590362847E+02 -0.36508824080E+02  0.98986847817E+02  0.13284647854E+03  0.47000000000E+01 0. -1.
         -5    1    3    3    0  502 -0.35414396284E+02 -0.68970898294E+02  0.46839689605E+02  0.90703973441E+02  0.47000000000E+01 0. -1.
        -11    1    4    4    0    0 -0.47485812934E+02  0.45639423448E+02 -0.49237390794E+02  0.82232475670E+02  0.00000000000E+00 0. -1.
         11    1    4    4    0    0  0.23098463708E+01  0.59840298926E+02  0.28280901078E+02  0.66226929051E+02  0.00000000000E+00 0.  1.
<mgrwt>
<rscale>  0 0.16351909E+03</rscale>
<asrwt>0</asrwt>
<pdfrwt beam="2">  1        3 0.19010755E-01 0.16943856E+03</pdfrwt>
<pdfrwt beam="1">  1       -3 0.38221531E-01 0.16943856E+03</pdfrwt>
<totfact> 0.39842630E+02</totfact>
</mgrwt>
</event>
<event>
 8    1  0.8504141E-006  0.3436377E+03  0.7546771E-02  0.1066409E+00
         -2   -1    0    0    0  501 -0.00000000000E+00  0.00000000000E+00  0.87031056523E+02  0.87031056523E+02  0.00000000000E+00 0.  1.
          2   -1    0    0  501    0  0.00000000000E+00 -0.00000000000E+00 -0.13805352373E+04  0.13805352373E+04  0.00000000000E+00 0. -1.
         23    2    1    2    0    0 -0.29418067194E+03 -0.12617968006E+03 -0.49622574851E+03  0.60359494065E+03  0.12499311777E+03 0.  0.
         23    2    1    2    0    0  0.29418067194E+03  0.12617968006E+03 -0.79727843229E+03  0.86397135320E+03  0.91268949530E+02 0.  0.
          5    1    3    3  502    0 -0.28688947038E+03 -0.83266027934E+02 -0.44773674785E+03  0.53826488368E+03  0.47000000000E+01 0. -1.
         -5    1    3    3    0  502 -0.72912015566E+01 -0.42913652125E+02 -0.48489000656E+02  0.65330056968E+02  0.47000000000E+01 0. -1.
        -11    1    4    4    0    0  0.22579287465E+03  0.13565008102E+03 -0.61375157085E+03  0.66788798271E+03  0.00000000000E+00 0. -1.
         11    1    4    4    0    0  0.68387797289E+02 -0.94704009655E+01 -0.18352686144E+03  0.19608337049E+03  0.00000000000E+00 0.  1.
<mgrwt>
<rscale>  0 0.34091014E+03</rscale>
<asrwt>0</asrwt>
<pdfrwt beam="2">  1        2 0.21239002E+00 0.34363769E+03</pdfrwt>
<pdfrwt beam="1">  1       -2 0.13389394E-01 0.34363769E+03</pdfrwt>
<totfact> 0.65221220E+02</totfact>
</mgrwt>
</event>
<event>
 8    1  0.8504141E-006  0.1461492E+03  0.7546771E-02  0.1214459E+00
          2   -1    0    0  501    0  0.00000000000E+00  0.00000000000E+00  0.72586352001E+03  0.72586352001E+03  0.00000000000E+00 0. -1.
         -2   -1    0    0    0  501 -0.00000000000E+00 -0.00000000000E+00 -0.25425912237E+02  0.25425912237E+02  0.00000000000E+00 0.  1.
         23    2    1    2    0    0  0.89804410447E+01  0.75194423874E+02  0.30884292642E+03  0.34167756041E+03  0.12499900954E+03 0.  0.
         23    2    1    2    0    0 -0.89804410447E+01 -0.75194423874E+02  0.39159468136E+03  0.40961187184E+03  0.93277228637E+02 0.  0.
          5    1    3    3  502    0 -0.12688330146E+02  0.81132803025E+02  0.91142682398E+02  0.12277053394E+03  0.47000000000E+01 0. -1.
         -5    1    3    3    0  502  0.21668771191E+02 -0.59383791506E+01  0.21770024402E+03  0.21890702647E+03  0.47000000000E+01 0. -1.
        -11    1    4    4    0    0  0.23929336756E+02 -0.79311657276E+02  0.22544153124E+03  0.24018084051E+03  0.00000000000E+00 0.  1.
         11    1    4    4    0    0 -0.32909777801E+02  0.41172334020E+01  0.16615315012E+03  0.16943103133E+03  0.00000000000E+00 0. -1.
<mgrwt>
<rscale>  0 0.13916383E+03</rscale>
<asrwt>0</asrwt>
<pdfrwt beam="1">  1        2 0.11167130E+00 0.14614925E+03</pdfrwt>
<pdfrwt beam="2">  1       -2 0.39116794E-02 0.14614925E+03</pdfrwt>
<totfact> 0.10960262E+04</totfact>
</mgrwt>
</event>
<event>
 8    1  0.8504141E-006  0.2824908E+03  0.7546771E-02  0.1095912E+00
          2   -1    0    0  501    0  0.00000000000E+00  0.00000000000E+00  0.51182585611E+03  0.51182585611E+03  0.00000000000E+00 0. -1.
         -2   -1    0    0    0  501 -0.00000000000E+00 -0.00000000000E+00 -0.14991010540E+03  0.14991010540E+03  0.00000000000E+00 0.  1.
         23    2    1    2    0    0  0.25305913161E+03 -0.11704129345E+02  0.19776670557E+03  0.34483721703E+03  0.12500050272E+03 0.  0.
         23    2    1    2    0    0 -0.25305913161E+03  0.11704129345E+02  0.16414904514E+03  0.31689874448E+03  0.96457215884E+02 0.  0.
          5    1    3    3  502    0  0.13849386449E+03 -0.53065247595E+02  0.15767959287E+03  0.21652116527E+03  0.47000000000E+01 0.  1.
         -5    1    3    3    0  502  0.11456526712E+03  0.41361118250E+02  0.40087112704E+02  0.12831605176E+03  0.47000000000E+01 0.  1.
        -11    1    4    4    0    0 -0.18378520572E+03  0.25994720416E+02  0.16162581779E+03  0.24612117403E+03  0.00000000000E+00 0. -1.
         11    1    4    4    0    0 -0.69273925894E+02 -0.14290591071E+02  0.25232273457E+01  0.70777570445E+02  0.00000000000E+00 0.  1.
<mgrwt>
<rscale>  0 0.27959170E+03</rscale>
<asrwt>0</asrwt>
<pdfrwt beam="1">  1        2 0.78742439E-01 0.28249077E+03</pdfrwt>
<pdfrwt beam="2">  1       -2 0.23063093E-01 0.28249077E+03</pdfrwt>
<totfact> 0.99593245E+02</totfact>
</mgrwt>
</event>
<event>
 8    1  0.8504141E-006  0.1359933E+03  0.7546771E-02  0.1230910E+00
         -2   -1    0    0    0  501 -0.00000000000E+00  0.00000000000E+00  0.40843150707E+02  0.40843150707E+02  0.00000000000E+00 0.  1.
          2   -1    0    0  501    0  0.00000000000E+00 -0.00000000000E+00 -0.45826821980E+03  0.45826821980E+03  0.00000000000E+00 0. -1.
         23    2    1    2    0    0  0.13777843038E+02 -0.51767590347E+02 -0.11288891846E+03  0.17674296792E+03  0.12499782570E+03 0.  0.
         23    2    1    2    0    0 -0.13777843038E+02  0.51767590347E+02 -0.30453615064E+03  0.32236840259E+03  0.91155951931E+02 0.  0.
          5    1    3    3  502    0  0.20567856754E+02 -0.33897343361E+02 -0.13867095857E+03  0.14430450917E+03  0.47000000000E+01 0. -1.
         -5    1    3    3    0  502 -0.67900137156E+01 -0.17870246986E+02  0.25782040110E+02  0.32438458746E+02  0.47000000000E+01 0. -1.
        -11    1    4    4    0    0  0.26616060330E+02  0.46513363688E+02 -0.96500553829E+02  0.11038235619E+03  0.00000000000E+00 0.  1.
         11    1    4    4    0    0 -0.40393903368E+02  0.52542266588E+01 -0.20803559681E+03  0.21198604640E+03  0.00000000000E+00 0. -1.
<mgrwt>
<rscale>  0 0.12769944E+03</rscale>
<asrwt>0</asrwt>
<pdfrwt beam="2">  1        2 0.70502802E-01 0.13599327E+03</pdfrwt>
<pdfrwt beam="1">  1       -2 0.62835617E-02 0.13599327E+03</pdfrwt>
<totfact> 0.90166781E+03</totfact>
</mgrwt>
</event>
<event>
 8    1  0.8504141E-006  0.1635133E+03  0.7546771E-02  0.1191988E+00
          2   -1    0    0  501    0  0.00000000000E+00  0.00000000000E+00  0.98176997203E+03  0.98176997203E+03  0.00000000000E+00 0. -1.
         -2   -1    0    0    0  501 -0.00000000000E+00 -0.00000000000E+00 -0.30861336362E+02  0.30861336362E+02  0.00000000000E+00 0.  1.
         23    2    1    2    0    0 -0.88022538467E+02 -0.57988483019E+02  0.75304997937E+03  0.77059774623E+03  0.12500393441E+03 0.  0.
         23    2    1    2    0    0  0.88022538467E+02  0.57988483019E+02  0.19785865630E+03  0.24203356217E+03  0.91222617271E+02 0.  0.
          5    1    3    3  502    0 -0.65892199159E+00 -0.28581839066E+02  0.50664814718E+03  0.50747590164E+03  0.47000000000E+01 0. -1.
         -5    1    3    3    0  502 -0.87363616475E+02 -0.29406643953E+02  0.24640183219E+03  0.26312184459E+03  0.47000000000E+01 0. -1.
        -11    1    4    4    0    0  0.41152501853E+02  0.48527584845E+02  0.35670849222E+02  0.72944255318E+02  0.00000000000E+00 0.  1.
         11    1    4    4    0    0  0.46870036614E+02  0.94608981737E+01  0.16218780707E+03  0.16908930685E+03  0.00000000000E+00 0. -1.
<mgrwt>
<rscale>  0 0.15711952E+03</rscale>
<asrwt>0</asrwt>
<pdfrwt beam="1">  1        2 0.15104151E+00 0.16351335E+03</pdfrwt>
<pdfrwt beam="2">  1       -2 0.47478987E-02 0.16351335E+03</pdfrwt>
<totfact> 0.56018845E+03</totfact>
</mgrwt>
</event>
<event>
 8    1  0.8504141E-006  0.1978074E+03  0.7546771E-02  0.1156296E+00
          1   -1    0    0  501    0  0.00000000000E+00  0.00000000000E+00  0.98879081623E+03  0.98879081623E+03  0.00000000000E+00 0. -1.
         -1   -1    0    0    0  501 -0.00000000000E+00 -0.00000000000E+00 -0.35549947575E+02  0.35549947575E+02  0.00000000000E+00 0.  1.
         23    2    1    2    0    0  0.12145137186E+03  0.93551301470E+02  0.49521496886E+03  0.53325945674E+03  0.12500200432E+03 0.  0.
         23    2    1    2    0    0 -0.12145137186E+03 -0.93551301470E+02  0.45802589979E+03  0.49108130706E+03  0.88717774642E+02 0.  0.
          5    1    3    3  502    0  0.47621815201E+01 -0.25046399250E+02  0.12024436671E+03  0.12300730960E+03  0.47000000000E+01 0.  1.
         -5    1    3    3    0  502  0.11668919034E+03  0.11859770072E+03  0.37497060215E+03  0.41025214714E+03  0.47000000000E+01 0.  1.
        -11    1    4    4    0    0 -0.70460330567E+02 -0.14446300060E+02  0.11729903931E+03  0.13759512489E+03  0.00000000000E+00 0.  1.
         11    1    4    4    0    0 -0.50991041290E+02 -0.79105001410E+02  0.34072686047E+03  0.35348618217E+03  0.00000000000E+00 0. -1.
<mgrwt>
<rscale>  0 0.19242065E+03</rscale>
<asrwt>0</asrwt>
<pdfrwt beam="1">  1        1 0.15212164E+00 0.19780744E+03</pdfrwt>
<pdfrwt beam="2">  1       -1 0.54692234E-02 0.19780744E+03</pdfrwt>
<totfact> 0.24937258E+03</totfact>
</mgrwt>
</event>
<event>
 8    1  0.8504141E-006  0.1409136E+03  0.7546771E-02  0.1216583E+00
          3   -1    0    0  501    0  0.00000000000E+00  0.00000000000E+00  0.13626807137E+03  0.13626807137E+03  0.00000000000E+00 0. -1.
         -3   -1    0    0    0  501 -0.00000000000E+00 -0.00000000000E+00 -0.13364658846E+03  0.13364658846E+03  0.00000000000E+00 0.  1.
         23    2    1    2    0    0  0.14654522237E+02  0.63374331551E+02 -0.92218749982E+01  0.14121506501E+03  0.12500236272E+03 0.  0.
         23    2    1    2    0    0 -0.14654522237E+02 -0.63374331551E+02  0.11843357907E+02  0.12869959483E+03  0.11041856574E+03 0.  0.
          5    1    3    3  502    0  0.60975900973E+02  0.26635666863E+02 -0.36383671263E+02  0.75982766357E+02  0.47000000000E+01 0. -1.
         -5    1    3    3    0  502 -0.46321378736E+02  0.36738664689E+02  0.27161796265E+02  0.65232298652E+02  0.47000000000E+01 0. -1.
        -11    1    4    4    0    0 -0.12115187654E+02 -0.84647675929E+02 -0.22319011811E+02  0.88375025320E+02  0.00000000000E+00 0.  1.
         11    1    4    4    0    0 -0.25393345828E+01  0.21273344378E+02  0.34162369718E+02  0.40324569507E+02  0.00000000000E+00 0. -1.
<mgrwt>
<rscale>  0 0.13760917E+03</rscale>
<asrwt>0</asrwt>
<pdfrwt beam="1">  1        3 0.20964319E-01 0.14091363E+03</pdfrwt>
<pdfrwt beam="2">  1       -3 0.20561014E-01 0.14091363E+03</pdfrwt>
<totfact> 0.10224114E+03</totfact>
</mgrwt>
</event>
<event>
 7    1  0.8504141E-006  0.1595959E+03  0.7546771E-02  0.1207250E+00
         -2   -1    0    0    0  501 -0.00000000000E+00  0.00000000000E+00  0.23369903405E+03  0.23369903405E+03  0.00000000000E+00 0.  1.
          2   -1    0    0  501    0  0.00000000000E+00 -0.00000000000E+00 -0.77634260007E+02  0.77634260007E+02  0.00000000000E+00 0. -1.
         23    2    1    2    0    0 -0.47377558615E+02 -0.31671509001E+02  0.43605568556E+02  0.11609513588E+03  0.91262902780E+02 0.  0.
          5    1    1    2  502    0  0.83063457125E+02 -0.25702970576E+02  0.86401281817E+02  0.12266805658E+03  0.47000000000E+01 0. -1.
         -5    1    1    2    0  502 -0.35685898510E+02  0.57374479577E+02  0.26057923673E+02  0.72570101594E+02  0.47000000000E+01 0.  1.
        -11    1    3    3    0    0 -0.20562669572E+02 -0.56239224173E+02  0.74588266991E+00  0.59885140531E+02  0.00000000000E+00 0. -1.
         11    1    3    3    0    0 -0.26814889043E+02  0.24567715172E+02  0.42859685886E+02  0.56209995351E+02  0.00000000000E+00 0.  1.
<mgrwt>
<rscale>  0 0.14461528E+03</rscale>
<asrwt>0</asrwt>
<pdfrwt beam="2">  1        2 0.11943732E-01 0.15959594E+03</pdfrwt>
<pdfrwt beam="1">  1       -2 0.35953697E-01 0.15959594E+03</pdfrwt>
<totfact> 0.36287252E+03</totfact>
</mgrwt>
</event>
<event>
 8    1  0.8504141E-006  0.1280822E+03  0.7546771E-02  0.1245497E+00
          2   -1    0    0  501    0  0.00000000000E+00  0.00000000000E+00  0.27706295973E+03  0.27706295973E+03  0.00000000000E+00 0. -1.
         -2   -1    0    0    0  501 -0.00000000000E+00 -0.00000000000E+00 -0.44705529511E+02  0.44705529511E+02  0.00000000000E+00 0.  1.
         23    2    1    2    0    0  0.24879604832E+01 -0.27804523945E+02  0.12347069737E+03  0.17790463403E+03  0.12500305677E+03 0.  0.
         23    2    1    2    0    0 -0.24879604832E+01  0.27804523945E+02  0.10888673286E+03  0.14386385522E+03  0.89784223257E+02 0.  0.
          5    1    3    3  502    0 -0.34193384924E+02  0.28933368093E+02  0.10591123693E+02  0.46266502601E+02  0.47000000000E+01 0.  1.
         -5    1    3    3    0  502  0.36681345408E+02 -0.56737892039E+02  0.11287957367E+03  0.13163813143E+03  0.47000000000E+01 0.  1.
        -11    1    4    4    0    0  0.54696833992E+01 -0.30675242494E+02  0.19522962809E+02  0.36770015167E+02  0.00000000000E+00 0.  1.
         11    1    4    4    0    0 -0.79576438824E+01  0.58479766439E+02  0.89363770049E+02  0.10709384005E+03  0.00000000000E+00 0. -1.
<mgrwt>
<rscale>  0 0.11855669E+03</rscale>
<asrwt>0</asrwt>
<pdfrwt beam="1">  1        2 0.42625070E-01 0.12808218E+03</pdfrwt>
<pdfrwt beam="2">  1       -2 0.68777739E-02 0.12808218E+03</pdfrwt>
<totfact> 0.13364448E+04</totfact>
</mgrwt>
</event>
<event>
 8    1  0.8504141E-006  0.1381609E+03  0.7546771E-02  0.1227305E+00
          2   -1    0    0  501    0  0.00000000000E+00  0.00000000000E+00  0.21566895379E+03  0.21566895379E+03  0.00000000000E+00 0. -1.
         -2   -1    0    0    0  501 -0.00000000000E+00 -0.00000000000E+00 -0.10091566726E+03  0.10091566726E+03  0.00000000000E+00 0.  1.
         23    2    1    2    0    0 -0.42934633587E+02 -0.40249642604E+02 -0.24137777508E+02  0.14025359406E+03  0.12500008742E+03 0.  0.
         23    2    1    2    0    0  0.42934633587E+02  0.40249642604E+02  0.13889106404E+03  0.17633102699E+03  0.91315315897E+02 0.  0.
          5    1    3    3  502    0 -0.48794784066E+02 -0.18649109597E+02  0.43949708893E+02  0.68427970543E+02  0.47000000000E+01 0.  1.
         -5    1    3    3    0  502  0.58601504786E+01 -0.21600533007E+02 -0.68087486402E+02  0.71825623522E+02  0.47000000000E+01 0.  1.
        -11    1    4    4    0    0  0.71135728326E+02  0.37110906831E+02  0.10085310670E+03  0.12887536763E+03  0.00000000000E+00 0.  1.
         11    1    4    4    0    0 -0.28201094738E+02  0.31387357731E+01  0.38037957338E+02  0.47455659358E+02  0.00000000000E+00 0. -1.
<mgrwt>
<rscale>  0 0.13010168E+03</rscale>
<asrwt>0</asrwt>
<pdfrwt beam="1">  1        2 0.33179839E-01 0.13816091E+03</pdfrwt>
<pdfrwt beam="2">  1       -2 0.15525487E-01 0.13816091E+03</pdfrwt>
<totfact> 0.48576817E+03</totfact>
</mgrwt>
</event>
<event>
 8    1  0.8504141E-006  0.1328960E+03  0.7546771E-02  0.1238355E+00
          3   -1    0    0  501    0  0.00000000000E+00  0.00000000000E+00  0.15186912575E+03  0.15186912575E+03  0.00000000000E+00 0. -1.
         -3   -1    0    0    0  501 -0.00000000000E+00 -0.00000000000E+00 -0.13898938169E+03  0.13898938169E+03  0.00000000000E+00 0.  1.
         23    2    1    2    0    0 -0.45074801771E+02 -0.24182715300E+01 -0.81033406091E+02  0.15565264674E+03  0.12499499087E+03 0.  0.
         23    2    1    2    0    0  0.45074801771E+02  0.24182715300E+01  0.93913150154E+02  0.13520586070E+03  0.86158918315E+02 0.  0.
          5    1    3    3  502    0  0.40146427072E+02  0.19026454637E+02 -0.23119187585E+02  0.50302369898E+02  0.47000000000E+01 0.  1.
         -5    1    3    3    0  502 -0.85221228844E+02 -0.21444726167E+02 -0.57914218506E+02  0.10535027684E+03  0.47000000000E+01 0.  1.
        -11    1    4    4    0    0  0.34988195136E+02  0.32562985579E+02  0.91617252783E+02  0.10333558359E+03  0.00000000000E+00 0. -1.
         11    1    4    4    0    0  0.10086606635E+02 -0.30144714049E+02  0.22958973708E+01  0.31870277113E+02  0.00000000000E+00 0.  1.
<mgrwt>
<rscale>  0 0.12292087E+03</rscale>
<asrwt>0</asrwt>
<pdfrwt beam="1">  1        3 0.23364481E-01 0.13289595E+03</pdfrwt>
<pdfrwt beam="2">  1       -3 0.21382982E-01 0.13289595E+03</pdfrwt>
<totfact> 0.77943416E+02</totfact>
</mgrwt>
</event>
<event>
 8    1  0.8504141E-006  0.2047288E+03  0.7546771E-02  0.1149792E+00
         -1   -1    0    0    0  501 -0.00000000000E+00  0.00000000000E+00  0.40639385198E+02  0.40639385198E+02  0.00000000000E+00 0.  1.
          1   -1    0    0  501    0  0.00000000000E+00 -0.00000000000E+00 -0.11861420021E+04  0.11861420021E+04  0.00000000000E+00 0. -1.
         23    2    1    2    0    0 -0.99526514421E+02 -0.12799388263E+03 -0.31520476639E+03  0.37585626134E+03  0.12500369344E+03 0.  0.
         23    2    1    2    0    0  0.99526514421E+02  0.12799388263E+03 -0.83029785054E+03  0.85092512598E+03  0.91602883970E+02 0.  0.
          5    1    3    3  502    0 -0.99908115649E+02 -0.34565085406E+02 -0.12416746724E+03  0.16314418967E+03  0.47000000000E+01 0. -1.
         -5    1    3    3    0  502  0.38160122851E+00 -0.93428797223E+02 -0.19103729915E+03  0.21271207168E+03  0.47000000000E+01 0. -1.
        -11    1    4    4    0    0  0.16798453198E+02  0.33425589708E+01 -0.17549994306E+02  0.24522704388E+02  0.00000000000E+00 0.  1.
         11    1    4    4    0    0  0.82728061222E+02  0.12465132366E+03 -0.81274785623E+03  0.82640242159E+03  0.00000000000E+00 0. -1.
<mgrwt>
<rscale>  0 0.19993674E+03</rscale>
<asrwt>0</asrwt>
<pdfrwt beam="2">  1        1 0.18248344E+00 0.20472881E+03</pdfrwt>
<pdfrwt beam="1">  1       -1 0.62522113E-02 0.20472881E+03</pdfrwt>
<totfact> 0.14712742E+03</totfact>
</mgrwt>
</event>
<event>
 8    1  0.8504141E-006  0.2213317E+03  0.7546771E-02  0.1135955E+00
          2   -1    0    0  501    0  0.00000000000E+00  0.00000000000E+00  0.15204426618E+04  0.15204426618E+04  0.00000000000E+00 0. -1.
         -2   -1    0    0    0  501 -0.00000000000E+00 -0.00000000000E+00 -0.30156700820E+02  0.30156700820E+02  0.00000000000E+00 0.  1.
         23    2    1    2    0    0  0.14891336076E+03 -0.10577101316E+03  0.83754385942E+03  0.86629522998E+03  0.12500005114E+03 0.  0.
         23    2    1    2    0    0 -0.14891336076E+03  0.10577101316E+03  0.65274210157E+03  0.68430413266E+03  0.94006375174E+02 0.  0.
          5    1    3    3  502    0  0.91304970422E+02 -0.11819234575E+03  0.44730275223E+03  0.47160138928E+03  0.47000000000E+01 0.  1.
         -5    1    3    3    0  502  0.57608390339E+02  0.12421332594E+02  0.39024110719E+03  0.39469384069E+03  0.47000000000E+01 0.  1.
        -11    1    4    4    0    0 -0.89764020721E+02  0.93470956121E+02  0.55048551121E+03  0.56553399288E+03  0.00000000000E+00 0. -1.
         11    1    4    4    0    0 -0.59149340040E+02  0.12300057035E+02  0.10225659037E+03  0.11877013978E+03  0.00000000000E+00 0.  1.
<mgrwt>
<rscale>  0 0.21724340E+03</rscale>
<asrwt>0</asrwt>
<pdfrwt beam="1">  1        2 0.23391420E+00 0.22133167E+03</pdfrwt>
<pdfrwt beam="2">  1       -2 0.46394936E-02 0.22133167E+03</pdfrwt>
<totfact> 0.29178934E+03</totfact>
</mgrwt>
</event>
<event>
 8    1  0.8504141E-006  0.1538300E+03  0.7546771E-02  0.1204575E+00
         -4   -1    0    0    0  501 -0.00000000000E+00  0.00000000000E+00  0.19483111434E+03  0.19483111434E+03  0.00000000000E+00 0.  1.
          4   -1    0    0  501    0  0.00000000000E+00 -0.00000000000E+00 -0.15103310601E+03  0.15103310601E+03  0.00000000000E+00 0. -1.
         23    2    1    2    0    0  0.19822012973E+02 -0.87418127446E+02  0.12213618214E+03  0.19642024949E+03  0.12501530394E+03 0.  0.
         23    2    1    2    0    0 -0.19822012973E+02  0.87418127446E+02 -0.78338173809E+02  0.14944397086E+03  0.90342624194E+02 0.  0.
          5    1    3    3  502    0 -0.48539239877E+01 -0.49532560596E+02  0.13917041029E+03  0.14787673325E+03  0.47000000000E+01 0. -1.
         -5    1    3    3    0  502  0.24675936961E+02 -0.37885566850E+02 -0.17034228149E+02  0.48543516241E+02  0.47000000000E+01 0. -1.
        -11    1    4    4    0    0 -0.49741773774E+02  0.79095602199E+02 -0.71473778606E+02  0.11763868145E+03  0.00000000000E+00 0. -1.
         11    1    4    4    0    0  0.29919760801E+02  0.83225252466E+01 -0.68643952025E+01  0.31805289408E+02  0.00000000000E+00 0.  1.
<mgrwt>
<rscale>  0 0.14670971E+03</rscale>
<asrwt>0</asrwt>
<pdfrwt beam="2">  1        4 0.23235863E-01 0.15383000E+03</pdfrwt>
<pdfrwt beam="1">  1       -4 0.29974018E-01 0.15383000E+03</pdfrwt>
<totfact> 0.31102377E+02</totfact>
</mgrwt>
</event>
<event>
 8    1  0.8504141E-006  0.2448092E+03  0.7546771E-02  0.1119579E+00
         -2   -1    0    0    0  501 -0.00000000000E+00  0.00000000000E+00  0.60039680149E+02  0.60039680149E+02  0.00000000000E+00 0.  1.
          2   -1    0    0  501    0  0.00000000000E+00 -0.00000000000E+00 -0.11694918983E+04  0.11694918983E+04  0.00000000000E+00 0. -1.
         23    2    1    2    0    0 -0.20468665413E+03 -0.49113962480E+02 -0.29195218461E+03  0.38100871283E+03  0.12499101352E+03 0.  0.
         23    2    1    2    0    0  0.20468665413E+03  0.49113962480E+02 -0.81750003357E+03  0.84852286565E+03  0.85883298465E+02 0.  0.
          5    1    3    3  502    0 -0.88052518834E+01 -0.15367647496E+02  0.89182661551E+01  0.20379463229E+02  0.47000000000E+01 0.  1.
         -5    1    3    3    0  502 -0.19588140225E+03 -0.33746314983E+02 -0.30087045077E+03  0.36062924960E+03  0.47000000000E+01 0.  1.
        -11    1    4    4    0    0  0.68887796044E+02 -0.23867888021E+02 -0.28211096538E+03  0.29137913671E+03  0.00000000000E+00 0.  1.
         11    1    4    4    0    0  0.13579885809E+03  0.72981850501E+02 -0.53538906819E+03  0.55714372895E+03  0.00000000000E+00 0. -1.
<mgrwt>
<rscale>  0 0.24032068E+03</rscale>
<asrwt>0</asrwt>
<pdfrwt beam="2">  1        2 0.17992182E+00 0.24480923E+03</pdfrwt>
<pdfrwt beam="1">  1       -2 0.92368742E-02 0.24480923E+03</pdfrwt>
<totfact> 0.15682082E+03</totfact>
</mgrwt>
</event>
<event>
 8    1  0.8504141E-006  0.1372504E+03  0.7546771E-02  0.1227510E+00
          1   -1    0    0  501    0  0.00000000000E+00  0.00000000000E+00  0.24631719091E+03  0.24631719091E+03  0.00000000000E+00 0. -1.
         -1   -1    0    0    0  501 -0.00000000000E+00 -0.00000000000E+00 -0.62477386516E+02  0.62477386516E+02  0.00000000000E+00 0.  1.
         23    2    1    2    0    0 -0.27056140947E+02 -0.49792880402E+02  0.91987912526E+02  0.16522546707E+03  0.12500525275E+03 0.  0.
         23    2    1    2    0    0  0.27056140947E+02  0.49792880402E+02  0.91851891866E+02  0.14356911036E+03  0.94678158557E+02 0.  0.
          5    1    3    3  502    0  0.47921107854E+02 -0.26201308657E+01  0.37854995519E+02  0.61305695897E+02  0.47000000000E+01 0.  1.
         -5    1    3    3    0  502 -0.74977248800E+02 -0.47172749537E+02  0.54132917007E+02  0.10391977117E+03  0.47000000000E+01 0.  1.
        -11    1    4    4    0    0  0.16390734825E+02  0.75007700473E+02  0.86525105982E+02  0.11567802420E+03  0.00000000000E+00 0. -1.
         11    1    4    4    0    0  0.10665406122E+02 -0.25214820071E+02  0.53267858833E+01  0.27891086153E+02  0.00000000000E+00 0.  1.
<mgrwt>
<rscale>  0 0.12996318E+03</rscale>
<asrwt>0</asrwt>
<pdfrwt beam="1">  1        1 0.37894952E-01 0.13725042E+03</pdfrwt>
<pdfrwt beam="2">  1       -1 0.96119057E-02 0.13725042E+03</pdfrwt>
<totfact> 0.69431252E+03</totfact>
</mgrwt>
</event>
<event>
 8    1  0.1074148E-005  0.4310057E+03  0.7546771E-02  0.1034240E+00
         -1   -1    0    0    0  501 -0.00000000000E+00  0.00000000000E+00  0.25997646481E+03  0.25997646481E+03  0.00000000000E+00 0.  1.
          1   -1    0    0  501    0  0.00000000000E+00 -0.00000000000E+00 -0.70798656735E+03  0.70798656735E+03  0.00000000000E+00 0. -1.
         23    2    1    2    0    0  0.40113116804E+03 -0.96098135128E+02 -0.27732101156E+03  0.51251621292E+03  0.12499943801E+03 0.  0.
         23    2    1    2    0    0 -0.40113116804E+03  0.96098135128E+02 -0.17068909098E+03  0.45544681925E+03  0.90310430389E+02 0.  0.
          5    1    3    3  502    0  0.18112869426E+03 -0.88543082105E+02 -0.80338350687E+02  0.21708021988E+03  0.47000000000E+01 0.  1.
         -5    1    3    3    0  502  0.22000247377E+03 -0.75550530234E+01 -0.19698266088E+03  0.29543599303E+03  0.47000000000E+01 0.  1.
        -11    1    4    4    0    0 -0.88784892142E+02  0.33948998228E+02 -0.80209666450E+02  0.12437396088E+03  0.00000000000E+00 0.  1.
         11    1    4    4    0    0 -0.31234627590E+03  0.62149136900E+02 -0.90479424526E+02  0.33107285836E+03  0.00000000000E+00 0. -1.
<mgrwt>
<rscale>  0 0.42880050E+03</rscale>
<asrwt>0</asrwt>
<pdfrwt beam="2">  1        1 0.10892101E+00 0.43100571E+03</pdfrwt>
<pdfrwt beam="1">  1       -1 0.39996379E-01 0.43100571E+03</pdfrwt>
<totfact> 0.16964261E+02</totfact>
</mgrwt>
</event>
<event>
 8    1  0.8504141E-006  0.1506973E+03  0.7546771E-02  0.1208795E+00
          2   -1    0    0  501    0  0.00000000000E+00  0.00000000000E+00  0.61803244937E+03  0.61803244937E+03  0.00000000000E+00 0.  1.
         -2   -1    0    0    0  501 -0.00000000000E+00 -0.00000000000E+00 -0.31479497588E+02  0.31479497588E+02  0.00000000000E+00 0. -1.
         23    2    1    2    0    0 -0.14644548334E+02  0.82884749493E+02  0.26262718645E+03  0.30279153749E+03  0.12500132648E+03 0.  0.
         23    2    1    2    0    0  0.14644548334E+02 -0.82884749493E+02  0.32392576533E+03  0.34672040946E+03  0.90569290590E+02 0.  0.
          5    1    3    3  502    0 -0.69285899249E+02  0.51339483002E+02  0.16906759984E+03  0.18984789086E+03  0.47000000000E+01 0. -1.
         -5    1    3    3    0  502  0.54641350915E+02  0.31545266491E+02  0.93559586611E+02  0.11294364663E+03  0.47000000000E+01 0. -1.
        -11    1    4    4    0    0 -0.32709700070E+02 -0.24424154557E+02  0.62226897144E+02  0.74422110509E+02  0.00000000000E+00 0. -1.
         11    1    4    4    0    0  0.47354248404E+02 -0.58460594936E+02  0.26169886819E+03  0.27229829895E+03  0.00000000000E+00 0.  1.
<mgrwt>
<rscale>  0 0.14342336E+03</rscale>
<asrwt>0</asrwt>
<pdfrwt beam="1">  1        2 0.95081907E-01 0.15069730E+03</pdfrwt>
<pdfrwt beam="2">  1       -2 0.48430001E-02 0.15069730E+03</pdfrwt>
<totfact> 0.96418712E+03</totfact>
</mgrwt>
</event>
<event>
 7    1  0.8504141E-006  0.1730747E+03  0.7546771E-02  0.1185349E+00
          1   -1    0    0  501    0  0.00000000000E+00  0.00000000000E+00  0.67559692004E+03  0.67559692004E+03  0.00000000000E+00 0. -1.
         -1   -1    0    0    0  501 -0.00000000000E+00 -0.00000000000E+00 -0.36195304542E+02  0.36195304542E+02  0.00000000000E+00 0.  1.
         23    2    1    2    0    0 -0.27495413198E+02 -0.46468443975E+02  0.22957461146E+03  0.26691805507E+03  0.12500172745E+03 0.  0.
          5    1    3    3  502    0 -0.60096972733E+02 -0.43619857237E+02  0.64213650287E+02  0.98284388182E+02  0.47000000000E+01 0. -1.
         -5    1    3    3    0  502  0.32601559535E+02 -0.28485867382E+01  0.16536096117E+03  0.16863366689E+03  0.47000000000E+01 0. -1.
        -11    1    1    2    0    0  0.12813043544E+02 -0.56994614833E+02  0.81183377795E+02  0.10001650381E+03  0.00000000000E+00 0.  1.
         11    1    1    2    0    0  0.14682369655E+02  0.10346305881E+03  0.32864362624E+03  0.34485766569E+03  0.00000000000E+00 0. -1.
<mgrwt>
<rscale>  0 0.16300131E+03</rscale>
<asrwt>0</asrwt>
<pdfrwt beam="1">  1        1 0.10393798E+00 0.17307470E+03</pdfrwt>
<pdfrwt beam="2">  1       -1 0.55685089E-02 0.17307470E+03</pdfrwt>
<totfact> 0.43583939E+03</totfact>
</mgrwt>
</event>
<event>
 8    1  0.8504141E-006  0.1285815E+03  0.7546771E-02  0.1239626E+00
          2   -1    0    0  501    0  0.00000000000E+00  0.00000000000E+00  0.16681623877E+02  0.16681623877E+02  0.00000000000E+00 0. -1.
         -2   -1    0    0    0  501 -0.00000000000E+00 -0.00000000000E+00 -0.98074930848E+03  0.98074930848E+03  0.00000000000E+00 0.  1.
         23    2    1    2    0    0  0.29497901603E+02  0.59320738033E+01 -0.72713487600E+03  0.73841610169E+03  0.12501158207E+03 0.  0.
         23    2    1    2    0    0 -0.29497901603E+02 -0.59320738033E+01 -0.23693280861E+03  0.25901483067E+03  0.10023078874E+03 0.  0.
          5    1    3    3  502    0 -0.18558486568E+02 -0.46924102125E+02 -0.19461089109E+03  0.20110141152E+03  0.47000000000E+01 0.  1.
         -5    1    3    3    0  502  0.48056388171E+02  0.52856175928E+02 -0.53252398490E+03  0.53731469017E+03  0.47000000000E+01 0.  1.
        -11    1    4    4    0    0  0.30869625582E+02  0.16805807458E+02 -0.48874332024E+02  0.60200243178E+02  0.00000000000E+00 0. -1.
         11    1    4    4    0    0 -0.60367527185E+02 -0.22737881261E+02 -0.18805847659E+03  0.19881458749E+03  0.00000000000E+00 0.  1.
<mgrwt>
<rscale>  0 0.12212886E+03</rscale>
<asrwt>0</asrwt>
<pdfrwt beam="1">  1        2 0.25664039E-02 0.12858154E+03</pdfrwt>
<pdfrwt beam="2">  1       -2 0.15088450E+00 0.12858154E+03</pdfrwt>
<totfact> 0.11661322E+03</totfact>
</mgrwt>
</event>
<event>
 8    1  0.8504141E-006  0.1452285E+03  0.7546771E-02  0.1216141E+00
         -2   -1    0    0    0  501 -0.00000000000E+00  0.00000000000E+00  0.67187575876E+02  0.67187575876E+02  0.00000000000E+00 0.  1.
          2   -1    0    0  501    0  0.00000000000E+00 -0.00000000000E+00 -0.29106126839E+03  0.29106126839E+03  0.00000000000E+00 0. -1.
         23    2    1    2    0    0  0.24766956043E+02 -0.69599776480E+02 -0.62178945630E+02  0.15797958863E+03  0.12503518764E+03 0.  0.
         23    2    1    2    0    0 -0.24766956043E+02  0.69599776480E+02 -0.16169474688E+03  0.20026925563E+03  0.92222841987E+02 0.  0.
          5    1    3    3  502    0  0.26789718376E+02 -0.51254433752E+02 -0.10001077581E+03  0.11562418116E+03  0.47000000000E+01 0. -1.
         -5    1    3    3    0  502 -0.20227623331E+01 -0.18345342727E+02  0.37831830183E+02  0.42355407473E+02  0.47000000000E+01 0. -1.
        -11    1    4    4    0    0 -0.52864493222E+02  0.37947190549E+02 -0.54018154641E+02  0.84573074587E+02  0.00000000000E+00 0.  1.
         11    1    4    4    0    0  0.28097537180E+02  0.31652585931E+02 -0.10767659224E+03  0.11569618104E+03  0.00000000000E+00 0. -1.
<mgrwt>
<rscale>  0 0.13793031E+03</rscale>
<asrwt>0</asrwt>
<pdfrwt beam="2">  1        2 0.44778656E-01 0.14522854E+03</pdfrwt>
<pdfrwt beam="1">  1       -2 0.10336550E-01 0.14522854E+03</pdfrwt>
<totfact> 0.68053161E+03</totfact>
</mgrwt>
</event>
<event>
 8    1  0.8504141E-006  0.1297104E+03  0.7546771E-02  0.1242839E+00
         -2   -1    0    0    0  501 -0.00000000000E+00  0.00000000000E+00  0.14082617569E+03  0.14082617569E+03  0.00000000000E+00 0.  1.
          2   -1    0    0  501    0  0.00000000000E+00 -0.00000000000E+00 -0.10213650726E+03  0.10213650726E+03  0.00000000000E+00 0. -1.
         23    2    1    2    0    0 -0.30905218205E+02  0.15644897664E+02  0.63296407682E+02  0.14433027714E+03  0.12499959335E+03 0.  0.
         23    2    1    2    0    0  0.30905218205E+02 -0.15644897664E+02 -0.24606739251E+02  0.98632405811E+02  0.89011035969E+02 0.  0.
          5    1    3    3  502    0  0.11931305001E+00 -0.34590216197E+02  0.76106968051E+02  0.83730865743E+02  0.47000000000E+01 0. -1.
         -5    1    3    3    0  502 -0.31024531255E+02  0.50235113861E+02 -0.12810560369E+02  0.60599411393E+02  0.47000000000E+01 0. -1.
        -11    1    4    4    0    0  0.36953069140E+02  0.28080093610E+02 -0.28263221674E+02  0.54339954687E+02  0.00000000000E+00 0. -1.
         11    1    4    4    0    0 -0.60478509351E+01 -0.43724991274E+02  0.36564824230E+01  0.44292451124E+02  0.00000000000E+00 0.  1.
<mgrwt>
<rscale>  0 0.12015657E+03</rscale>
<asrwt>0</asrwt>
<pdfrwt beam="2">  1        2 0.15713309E-01 0.12971042E+03</pdfrwt>
<pdfrwt beam="1">  1       -2 0.21665566E-01 0.12971042E+03</pdfrwt>
<totfact> 0.63743102E+03</totfact>
</mgrwt>
</event>
<event>
 8    1  0.8504141E-006  0.1987917E+03  0.7546771E-02  0.1154953E+00
          1   -1    0    0  501    0  0.00000000000E+00  0.00000000000E+00  0.36588633633E+02  0.36588633633E+02  0.00000000000E+00 0. -1.
         -1   -1    0    0    0  501 -0.00000000000E+00 -0.00000000000E+00 -0.10470295121E+04  0.10470295121E+04  0.00000000000E+00 0.  1.
         23    2    1    2    0    0 -0.99656055431E+02 -0.11815559640E+03 -0.66463132578E+03  0.69372395896E+03  0.12500423067E+03 0.  0.
         23    2    1    2    0    0  0.99656055431E+02  0.11815559640E+03 -0.34580955270E+03  0.38989418678E+03  0.92418373739E+02 0.  0.
          5    1    3    3  502    0 -0.11603479342E+03 -0.70896530022E+02 -0.35759917064E+03  0.38260900158E+03  0.47000000000E+01 0. -1.
         -5    1    3    3    0  502  0.16378737987E+02 -0.47259066374E+02 -0.30703215514E+03  0.31111495737E+03  0.47000000000E+01 0. -1.
        -11    1    4    4    0    0  0.11129138663E+03  0.72187424744E+02 -0.25207481614E+03  0.28484822268E+03  0.00000000000E+00 0. -1.
         11    1    4    4    0    0 -0.11635331201E+02  0.45968171652E+02 -0.93734736553E+02  0.10504596410E+03  0.00000000000E+00 0.  1.
<mgrwt>
<rscale>  0 0.19394225E+03</rscale>
<asrwt>0</asrwt>
<pdfrwt beam="1">  1        1 0.56290204E-02 0.19879168E+03</pdfrwt>
<pdfrwt beam="2">  1       -1 0.16108147E+00 0.19879168E+03</pdfrwt>
<totfact> 0.44077429E+02</totfact>
</mgrwt>
</event>
<event>
 8    1  0.8504141E-006  0.1313854E+03  0.7546771E-02  0.1238704E+00
          2   -1    0    0  501    0  0.00000000000E+00  0.00000000000E+00  0.37063809450E+02  0.37063809450E+02  0.00000000000E+00 0.  1.
         -2   -1    0    0    0  501 -0.00000000000E+00 -0.00000000000E+00 -0.36128908386E+03  0.36128908386E+03  0.00000000000E+00 0. -1.
         23    2    1    2    0    0 -0.37668276815E+02 -0.14765604785E+02 -0.17821395587E+03  0.22140985723E+03  0.12500075459E+03 0.  0.
         23    2    1    2    0    0  0.37668276815E+02  0.14765604785E+02 -0.14601131854E+03  0.17694303608E+03  0.91392618477E+02 0.  0.
          5    1    3    3  502    0  0.20544649366E+02 -0.58787641399E+01 -0.15719026541E+03  0.15870574036E+03  0.47000000000E+01 0.  1.
         -5    1    3    3    0  502 -0.58212926180E+02 -0.88868406452E+01 -0.21023690458E+02  0.62704116863E+02  0.47000000000E+01 0.  1.
        -11    1    4    4    0    0  0.28771230954E+02 -0.76494034009E+00 -0.15448276523E+03  0.15714099916E+03  0.00000000000E+00 0. -1.
         11    1    4    4    0    0  0.88970458603E+01  0.15530545125E+02  0.84714466922E+01  0.19802036915E+02  0.00000000000E+00 0.  1.
<mgrwt>
<rscale>  0 0.12270249E+03</rscale>
<asrwt>0</asrwt>
<pdfrwt beam="1">  1        2 0.57021244E-02 0.13138535E+03</pdfrwt>
<pdfrwt beam="2">  1       -2 0.55582938E-01 0.13138535E+03</pdfrwt>
<totfact> 0.38889576E+03</totfact>
</mgrwt>
</event>
<event>
 8    1  0.8504141E-006  0.1521796E+03  0.7546771E-02  0.1206462E+00
         -2   -1    0    0    0  501 -0.00000000000E+00  0.00000000000E+00  0.12793333428E+03  0.12793333428E+03  0.00000000000E+00 0.  1.
          2   -1    0    0  501    0  0.00000000000E+00 -0.00000000000E+00 -0.15560610074E+03  0.15560610074E+03  0.00000000000E+00 0. -1.
         23    2    1    2    0    0  0.86069791419E+02  0.11304804142E+02 -0.38132721248E+02  0.15688443386E+03  0.12499125396E+03 0.  0.
         23    2    1    2    0    0 -0.86069791419E+02 -0.11304804142E+02  0.10459954782E+02  0.12665500116E+03  0.91631168682E+02 0.  0.
          5    1    3    3  502    0  0.67833241282E+02  0.65575002594E+02 -0.28228994792E+02  0.98592067302E+02  0.47000000000E+01 0. -1.
         -5    1    3    3    0  502  0.18236550138E+02 -0.54270198452E+02 -0.99037264556E+01  0.58292366556E+02  0.47000000000E+01 0. -1.
        -11    1    4    4    0    0 -0.16689950607E+02 -0.48309180621E+01 -0.37997084255E+02  0.41781223444E+02  0.00000000000E+00 0. -1.
         11    1    4    4    0    0 -0.69379840813E+02 -0.64738860794E+01  0.48457039037E+02  0.84873777720E+02  0.00000000000E+00 0.  1.
<mgrwt>
<rscale>  0 0.14522832E+03</rscale>
<asrwt>0</asrwt>
<pdfrwt beam="2">  1        2 0.23939400E-01 0.15217957E+03</pdfrwt>
<pdfrwt beam="1">  1       -2 0.19682052E-01 0.15217957E+03</pdfrwt>
<totfact> 0.47001739E+03</totfact>
</mgrwt>
</event>
<event>
 8    1  0.8504141E-006  0.1293157E+03  0.7546771E-02  0.1240317E+00
         -2   -1    0    0    0  501 -0.00000000000E+00  0.00000000000E+00  0.35952683594E+03  0.35952683594E+03  0.00000000000E+00 0.  1.
          2   -1    0    0  501    0  0.00000000000E+00 -0.00000000000E+00 -0.37824608600E+02  0.37824608600E+02  0.00000000000E+00 0. -1.
         23    2    1    2    0    0  0.30539548184E+02 -0.12859225465E+02  0.20850559099E+03  0.24535105685E+03  0.12499814374E+03 0.  0.
         23    2    1    2    0    0 -0.30539548184E+02  0.12859225465E+02  0.11319663635E+03  0.15200038770E+03  0.95878129391E+02 0.  0.
          5    1    3    3  502    0  0.65138639833E+02  0.29933109869E+02  0.13998077489E+03  0.15733957164E+03  0.47000000000E+01 0. -1.
         -5    1    3    3    0  502 -0.34599091649E+02 -0.42792335334E+02  0.68524816106E+02  0.88011485208E+02  0.47000000000E+01 0. -1.
        -11    1    4    4    0    0 -0.33469107841E+02 -0.16986351696E+02  0.11596137951E+03  0.12188420267E+03  0.00000000000E+00 0.  1.
         11    1    4    4    0    0  0.29295596569E+01  0.29845577160E+02 -0.27647431543E+01  0.30116185026E+02  0.00000000000E+00 0. -1.
<mgrwt>
<rscale>  0 0.12170091E+03</rscale>
<asrwt>0</asrwt>
<pdfrwt beam="2">  1        2 0.58191708E-02 0.12931574E+03</pdfrwt>
<pdfrwt beam="1">  1       -2 0.55311818E-01 0.12931574E+03</pdfrwt>
<totfact> 0.38214071E+03</totfact>
</mgrwt>
</event>
<event>
 7    1  0.8504141E-006  0.2653474E+03  0.7546771E-02  0.1123411E+00
          2   -1    0    0  501    0  0.00000000000E+00  0.00000000000E+00  0.63369740121E+03  0.63369740121E+03  0.00000000000E+00 0. -1.
         -2   -1    0    0    0  501 -0.00000000000E+00 -0.00000000000E+00 -0.72243940508E+02  0.72243940508E+02  0.00000000000E+00 0.  1.
         23    2    1    2    0    0  0.14145427268E+02 -0.13384511344E+03  0.19994376583E+03  0.25750127528E+03  0.90635477451E+02 0.  0.
          5    1    1    2  502    0  0.56184674494E+02  0.11590516158E+03  0.35228491056E+03  0.37512327619E+03  0.47000000000E+01 0. -1.
         -5    1    1    2    0  502 -0.70330101762E+02  0.17939951859E+02  0.92247843101E+01  0.73316790247E+02  0.47000000000E+01 0.  1.
        -11    1    3    3    0    0  0.30780615728E+02 -0.58115669502E+01  0.55788715089E+02  0.63981257774E+02  0.00000000000E+00 0. -1.
         11    1    3    3    0    0 -0.16635188460E+02 -0.12803354649E+03  0.14415505074E+03  0.19352001751E+03  0.00000000000E+00 0.  1.
<mgrwt>
<rscale>  0 0.23464766E+03</rscale>
<asrwt>0</asrwt>
<pdfrwt beam="1">  1        2 0.97491904E-01 0.26534738E+03</pdfrwt>
<pdfrwt beam="2">  1       -2 0.11114453E-01 0.26534738E+03</pdfrwt>
<totfact> 0.26403205E+03</totfact>
</mgrwt>
</event>
<event>
 8    1  0.8504141E-006  0.1312200E+03  0.7546771E-02  0.1238696E+00
         -1   -1    0    0    0  501 -0.00000000000E+00  0.00000000000E+00  0.38156802263E+03  0.38156802263E+03  0.00000000000E+00 0.  1.
          1   -1    0    0  501    0  0.00000000000E+00 -0.00000000000E+00 -0.35291262440E+02  0.35291262440E+02  0.00000000000E+00 0. -1.
         23    2    1    2    0    0 -0.27386911955E+02 -0.29042672670E+02  0.18224409910E+03  0.22456983194E+03  0.12500071192E+03 0.  0.
         23    2    1    2    0    0  0.27386911955E+02  0.29042672670E+02  0.16403266110E+03  0.19228945313E+03  0.92059763720E+02 0.  0.
          5    1    3    3  502    0 -0.62640147826E+02  0.10126162261E+02  0.14917783300E+03  0.16218027975E+03  0.47000000000E+01 0. -1.
         -5    1    3    3    0  502  0.35253235871E+02 -0.39168834930E+02  0.33066266097E+02  0.62389552193E+02  0.47000000000E+01 0. -1.
        -11    1    4    4    0    0 -0.24320467457E+02  0.22561429840E+02  0.19115005769E+02  0.38286899839E+02  0.00000000000E+00 0. -1.
         11    1    4    4    0    0  0.51707379411E+02  0.64812428295E+01  0.14491765533E+03  0.15400255329E+03  0.00000000000E+00 0.  1.
<mgrwt>
<rscale>  0 0.12270742E+03</rscale>
<asrwt>0</asrwt>
<pdfrwt beam="2">  1        1 0.54294252E-02 0.13122004E+03</pdfrwt>
<pdfrwt beam="1">  1       -1 0.58702770E-01 0.13122004E+03</pdfrwt>
<totfact> 0.42971637E+03</totfact>
</mgrwt>
</event>
<event>
 8    1  0.8504141E-006  0.1274440E+03  0.7546771E-02  0.1245958E+00
          3   -1    0    0  501    0  0.00000000000E+00  0.00000000000E+00  0.46058709405E+02  0.46058709405E+02  0.00000000000E+00 0. -1.
         -3   -1    0    0    0  501 -0.00000000000E+00 -0.00000000000E+00 -0.26854748190E+03  0.26854748190E+03  0.00000000000E+00 0.  1.
         23    2    1    2    0    0  0.58038188239E+01 -0.24149480891E+02 -0.13727147292E+03  0.18731102990E+03  0.12500033161E+03 0.  0.
         23    2    1    2    0    0 -0.58038188239E+01  0.24149480891E+02 -0.85217299575E+02  0.12729516141E+03  0.91242469451E+02 0.  0.
          5    1    3    3  502    0  0.51134152383E+02  0.12610708203E+02 -0.20552512005E+02  0.56729421389E+02  0.47000000000E+01 0. -1.
         -5    1    3    3    0  502 -0.45330333559E+02 -0.36760189095E+02 -0.11671896092E+03  0.13058160851E+03  0.47000000000E+01 0. -1.
        -11    1    4    4    0    0 -0.14568316654E+02 -0.32608300213E+02 -0.43655546510E+02  0.56403402681E+02  0.00000000000E+00 0.  1.
         11    1    4    4    0    0  0.87644978298E+01  0.56757781104E+02 -0.41561753065E+02  0.70891758731E+02  0.00000000000E+00 0. -1.
<mgrwt>
<rscale>  0 0.11828215E+03</rscale>
<asrwt>0</asrwt>
<pdfrwt beam="1">  1        3 0.70859554E-02 0.12744397E+03</pdfrwt>
<pdfrwt beam="2">  1       -3 0.41314996E-01 0.12744397E+03</pdfrwt>
<totfact> 0.17221982E+03</totfact>
</mgrwt>
</event>
<event>
 8    1  0.8504141E-006  0.2861636E+03  0.7546771E-02  0.1093848E+00
         -2   -1    0    0    0  501 -0.00000000000E+00  0.00000000000E+00  0.61488230220E+02  0.61488230220E+02  0.00000000000E+00 0.  1.
          2   -1    0    0  501    0  0.00000000000E+00 -0.00000000000E+00 -0.14554255867E+04  0.14554255867E+04  0.00000000000E+00 0. -1.
         23    2    1    2    0    0  0.10904017615E+03  0.23318521401E+03 -0.44674678780E+03  0.53053963069E+03  0.12499801308E+03 0.  0.
         23    2    1    2    0    0 -0.10904017615E+03 -0.23318521401E+03 -0.94719056870E+03  0.98637418625E+03  0.97462597043E+02 0.  0.
          5    1    3    3  502    0  0.88091588342E+02  0.20476474584E+03 -0.44141029165E+03  0.49452387673E+03  0.47000000000E+01 0. -1.
         -5    1    3    3    0  502  0.20948587807E+02  0.28420468174E+02 -0.53364961452E+01  0.36015753962E+02  0.47000000000E+01 0. -1.
        -11    1    4    4    0    0 -0.20183715810E+01 -0.10561538619E+03 -0.29802304239E+03  0.31619047648E+03  0.00000000000E+00 0. -1.
         11    1    4    4    0    0 -0.10702180457E+03 -0.12756982782E+03 -0.64916752631E+03  0.67018370977E+03  0.00000000000E+00 0.  1.
<mgrwt>
<rscale>  0 0.28339599E+03</rscale>
<asrwt>0</asrwt>
<pdfrwt beam="2">  1        2 0.22391164E+00 0.28616360E+03</pdfrwt>
<pdfrwt beam="1">  1       -2 0.94597271E-02 0.28616360E+03</pdfrwt>
<totfact> 0.10462327E+03</totfact>
</mgrwt>
</event>
<event>
 8    1  0.8504141E-006  0.1389433E+03  0.7546771E-02  0.1225315E+00
         -2   -1    0    0    0  501 -0.00000000000E+00  0.00000000000E+00  0.52880155500E+02  0.52880155500E+02  0.00000000000E+00 0.  1.
          2   -1    0    0  501    0  0.00000000000E+00 -0.00000000000E+00 -0.30435832279E+03  0.30435832279E+03  0.00000000000E+00 0. -1.
         23    2    1    2    0    0 -0.43953776700E+02 -0.41866157124E+02 -0.10999819923E+03  0.17721409530E+03  0.12498208728E+03 0.  0.
         23    2    1    2    0    0  0.43953776700E+02  0.41866157124E+02 -0.14147996805E+03  0.18002438299E+03  0.93313919167E+02 0.  0.
          5    1    3    3  502    0  0.31716889974E+01 -0.59386679610E+02 -0.11176176077E+03  0.12668708891E+03  0.47000000000E+01 0. -1.
         -5    1    3    3    0  502 -0.47125465697E+02  0.17520522486E+02  0.17635615392E+01  0.50527006389E+02  0.47000000000E+01 0. -1.
        -11    1    4    4    0    0  0.10132295092E+02  0.28431304437E+02 -0.14040902097E+03  0.14361648807E+03  0.00000000000E+00 0. -1.
         11    1    4    4    0    0  0.33821481607E+02  0.13434852687E+02 -0.10709470885E+01  0.36407894920E+02  0.00000000000E+00 0.  1.
<mgrwt>
<rscale>  0 0.13145335E+03</rscale>
<asrwt>0</asrwt>
<pdfrwt beam="2">  1        2 0.46824357E-01 0.13894327E+03</pdfrwt>
<pdfrwt beam="1">  1       -2 0.81354086E-02 0.13894327E+03</pdfrwt>
<totfact> 0.94064981E+03</totfact>
</mgrwt>
</event>
<event>
 7    1  0.8504141E-006  0.1535456E+03  0.7546771E-02  0.1206901E+00
         -1   -1    0    0    0  501 -0.00000000000E+00  0.00000000000E+00  0.20800891593E+02  0.20800891593E+02  0.00000000000E+00 0.  1.
          1   -1    0    0  501    0  0.00000000000E+00 -0.00000000000E+00 -0.10354018568E+04  0.10354018568E+04  0.00000000000E+00 0. -1.
         23    2    1    2    0    0 -0.83552864055E+02 -0.13139184892E+02 -0.63789132777E+03  0.64940255589E+03  0.87547782823E+02 0.  0.
          5    1    1    2  502    0  0.64694791505E+01 -0.51849869910E+02 -0.13746822462E+03  0.14713893418E+03  0.47000000000E+01 0. -1.
         -5    1    1    2    0  502  0.77083384905E+02  0.64989054802E+02 -0.23924141284E+03  0.25966125836E+03  0.47000000000E+01 0.  1.
        -11    1    3    3    0    0 -0.92683832736E+02 -0.30877392281E+02 -0.58000536845E+03  0.58817508756E+03  0.00000000000E+00 0. -1.
         11    1    3    3    0    0  0.91309686806E+01  0.17738207389E+02 -0.57885959324E+02  0.61227468323E+02  0.00000000000E+00 0.  1.
<mgrwt>
<rscale>  0 0.14488650E+03</rscale>
<asrwt>0</asrwt>
<pdfrwt beam="2">  1        1 0.15929261E+00 0.15354558E+03</pdfrwt>
<pdfrwt beam="1">  1       -1 0.32001369E-02 0.15354558E+03</pdfrwt>
<totfact> 0.50603892E+03</totfact>
</mgrwt>
</event>
<event>
 8    1  0.8504141E-006  0.1345404E+03  0.7546771E-02  0.1233352E+00
         -1   -1    0    0    0  501 -0.00000000000E+00  0.00000000000E+00  0.13483984363E+03  0.13483984363E+03  0.00000000000E+00 0.  1.
          1   -1    0    0  501    0  0.00000000000E+00 -0.00000000000E+00 -0.16869691770E+03  0.16869691770E+03  0.00000000000E+00 0. -1.
         23    2    1    2    0    0  0.15816885891E+02 -0.47157255573E+02  0.74222417088E+02  0.15365573458E+03  0.12500854746E+03 0.  0.
         23    2    1    2    0    0 -0.15816885891E+02  0.47157255573E+02 -0.10807949116E+03  0.14988102675E+03  0.91154622142E+02 0.  0.
          5    1    3    3  502    0 -0.33521202050E+02 -0.11828475763E+02 -0.20321544767E+02  0.41214548493E+02  0.47000000000E+01 0.  1.
         -5    1    3    3    0  502  0.49338087941E+02 -0.35328779810E+02  0.94543961855E+02  0.11244118608E+03  0.47000000000E+01 0.  1.
        -11    1    4    4    0    0 -0.51245536647E+01 -0.13724102103E+02 -0.81141125050E+02  0.82452981772E+02  0.00000000000E+00 0. -1.
         11    1    4    4    0    0 -0.10692332226E+02  0.60881357676E+02 -0.26938366111E+02  0.67428044979E+02  0.00000000000E+00 0.  1.
<mgrwt>
<rscale>  0 0.12610512E+03</rscale>
<asrwt>0</asrwt>
<pdfrwt beam="2">  1        1 0.25953372E-01 0.13454039E+03</pdfrwt>
<pdfrwt beam="1">  1       -1 0.20744591E-01 0.13454039E+03</pdfrwt>
<totfact> 0.33372136E+03</totfact>
</mgrwt>
</event>
<event>
 8    1  0.8504141E-006  0.1267103E+03  0.7546771E-02  0.1246916E+00
         -3   -1    0    0    0  501 -0.00000000000E+00  0.00000000000E+00  0.15846590800E+02  0.15846590800E+02  0.00000000000E+00 0.  1.
          3   -1    0    0  501    0  0.00000000000E+00 -0.00000000000E+00 -0.81572126890E+03  0.81572126890E+03  0.00000000000E+00 0. -1.
         23    2    1    2    0    0  0.11852559469E+02  0.17004267674E+02 -0.55141620976E+03  0.56578736022E+03  0.12500348920E+03 0.  0.
         23    2    1    2    0    0 -0.11852559469E+02 -0.17004267674E+02 -0.24845846834E+03  0.26578049948E+03  0.92076246284E+02 0.  0.
          5    1    3    3  502    0 -0.18737159869E+02  0.29087636615E+02 -0.51617310190E+03  0.51735281277E+03  0.47000000000E+01 0. -1.
         -5    1    3    3    0  502  0.30589719338E+02 -0.12083368941E+02 -0.35243107862E+02  0.48434547442E+02  0.47000000000E+01 0. -1.
        -11    1    4    4    0    0  0.59863385499E+01 -0.38035485698E+02 -0.22854207320E+03  0.23176283922E+03  0.00000000000E+00 0. -1.
         11    1    4    4    0    0 -0.17838898019E+02  0.21031218024E+02 -0.19916395138E+02  0.34017660258E+02  0.00000000000E+00 0.  1.
<mgrwt>
<rscale>  0 0.11771435E+03</rscale>
<asrwt>0</asrwt>
<pdfrwt beam="2">  1        3 0.12549562E+00 0.12671030E+03</pdfrwt>
<pdfrwt beam="1">  1       -3 0.24379363E-02 0.12671030E+03</pdfrwt>
<totfact> 0.85698033E+02</totfact>
</mgrwt>
</event>
<event>
 8    1  0.8504141E-006  0.1846402E+03  0.7546771E-02  0.1167741E+00
         -3   -1    0    0    0  501 -0.00000000000E+00  0.00000000000E+00  0.14849582848E+03  0.14849582848E+03  0.00000000000E+00 0.  1.
          3   -1    0    0  501    0  0.00000000000E+00 -0.00000000000E+00 -0.20869319107E+03  0.20869319107E+03  0.00000000000E+00 0. -1.
         23    2    1    2    0    0 -0.13153730549E+03  0.34104949770E+02 -0.22747162746E+02  0.18603608479E+03  0.12500712418E+03 0.  0.
         23    2    1    2    0    0  0.13153730549E+03 -0.34104949770E+02 -0.37450199844E+02  0.17115293476E+03  0.97085525572E+02 0.  0.
          5    1    3    3  502    0 -0.62452666823E+02  0.43105670702E+02  0.45328305103E+02  0.88516550337E+02  0.47000000000E+01 0.  1.
         -5    1    3    3    0  502 -0.69084638667E+02 -0.90007209317E+01 -0.68075467850E+02  0.97519534453E+02  0.47000000000E+01 0.  1.
        -11    1    4    4    0    0  0.99536751191E+02 -0.13144321616E+01  0.15923403263E+02  0.10081094852E+03  0.00000000000E+00 0.  1.
         11    1    4    4    0    0  0.32000554299E+02 -0.32790517609E+02 -0.53373603107E+02  0.70341986247E+02  0.00000000000E+00 0. -1.
<mgrwt>
<rscale>  0 0.18006416E+03</rscale>
<asrwt>0</asrwt>
<pdfrwt beam="2">  1        3 0.32106645E-01 0.18464017E+03</pdfrwt>
<pdfrwt beam="1">  1       -3 0.22845512E-01 0.18464017E+03</pdfrwt>
<totfact> 0.40447961E+02</totfact>
</mgrwt>
</event>
<event>
 8    1  0.8504141E-006  0.1432145E+03  0.7546771E-02  0.1220249E+00
         -1   -1    0    0    0  501 -0.00000000000E+00  0.00000000000E+00  0.28862873288E+03  0.28862873288E+03  0.00000000000E+00 0.  1.
          1   -1    0    0  501    0  0.00000000000E+00 -0.00000000000E+00 -0.57412965177E+02  0.57412965177E+02  0.00000000000E+00 0. -1.
         23    2    1    2    0    0  0.44447716769E+02 -0.53908527186E+02  0.14591195865E+03  0.20445216297E+03  0.12501463290E+03 0.  0.
         23    2    1    2    0    0 -0.44447716769E+02  0.53908527186E+02  0.85303809057E+02  0.14158953509E+03  0.88820762083E+02 0.  0.
          5    1    3    3  502    0  0.51475467396E+01 -0.77956734454E+00  0.13748837072E+03  0.13766716038E+03  0.47000000000E+01 0. -1.
         -5    1    3    3    0  502  0.39300170029E+02 -0.53128959842E+02  0.84235879271E+01  0.66785002596E+02  0.47000000000E+01 0. -1.
        -11    1    4    4    0    0 -0.66509238629E+02  0.49179547904E+02  0.85585453585E+02  0.11902510920E+03  0.00000000000E+00 0.  1.
         11    1    4    4    0    0  0.22061521861E+02  0.47289792819E+01 -0.28164452829E+00  0.22564425884E+02  0.00000000000E+00 0. -1.
<mgrwt>
<rscale>  0 0.13497946E+03</rscale>
<asrwt>0</asrwt>
<pdfrwt beam="2">  1        1 0.88327640E-02 0.14321448E+03</pdfrwt>
<pdfrwt beam="1">  1       -1 0.44404420E-01 0.14321448E+03</pdfrwt>
<totfact> 0.37381723E+03</totfact>
</mgrwt>
</event>
<event>
 8    1  0.8504141E-006  0.1376540E+03  0.7546771E-02  0.1230329E+00
          2   -1    0    0  501    0  0.00000000000E+00  0.00000000000E+00  0.17320140803E+03  0.17320140803E+03  0.00000000000E+00 0. -1.
         -2   -1    0    0    0  501 -0.00000000000E+00 -0.00000000000E+00 -0.97054191959E+02  0.97054191959E+02  0.00000000000E+00 0.  1.
         23    2    1    2    0    0 -0.23678384085E+02  0.52556021554E+02 -0.68700198113E+01  0.13782528367E+03  0.12500324144E+03 0.  0.
         23    2    1    2    0    0  0.23678384085E+02 -0.52556021554E+02  0.83017235881E+02  0.13243031632E+03  0.85575264843E+02 0.  0.
          5    1    3    3  502    0 -0.35529967018E+02  0.87857350444E+02  0.12299937994E+02  0.95680045245E+02  0.47000000000E+01 0. -1.
         -5    1    3    3    0  502  0.11851582933E+02 -0.35301328890E+02 -0.19169957805E+02  0.42145238422E+02  0.47000000000E+01 0. -1.
        -11    1    4    4    0    0 -0.21886142209E+02 -0.21545956910E+01  0.54452260647E+02  0.58725583803E+02  0.00000000000E+00 0. -1.
         11    1    4    4    0    0  0.45564526294E+02 -0.50401425863E+02  0.28564975234E+02  0.73704732518E+02  0.00000000000E+00 0.  1.
<mgrwt>
<rscale>  0 0.12808240E+03</rscale>
<asrwt>0</asrwt>
<pdfrwt beam="1">  1        2 0.26646370E-01 0.13765396E+03</pdfrwt>
<pdfrwt beam="2">  1       -2 0.14931414E-01 0.13765396E+03</pdfrwt>
<totfact> 0.65672342E+03</totfact>
</mgrwt>
</event>
<event>
 8    1  0.8504141E-006  0.1877634E+03  0.7546771E-02  0.1165641E+00
         -2   -1    0    0    0  501 -0.00000000000E+00  0.00000000000E+00  0.34330427641E+03  0.34330427641E+03  0.00000000000E+00 0.  1.
          2   -1    0    0  501    0  0.00000000000E+00 -0.00000000000E+00 -0.93558398953E+02  0.93558398953E+02  0.00000000000E+00 0. -1.
         23    2    1    2    0    0  0.14008564791E+03  0.23611250023E+01  0.16462657684E+03  0.24971387184E+03  0.12500217728E+03 0.  0.
         23    2    1    2    0    0 -0.14008564791E+03 -0.23611250023E+01  0.85119300617E+02  0.18714880352E+03  0.90276329450E+02 0.  0.
          5    1    3    3  502    0  0.26545307517E+01 -0.31649671241E+02 -0.55416383801E+00  0.32111451551E+02  0.47000000000E+01 0.  1.
         -5    1    3    3    0  502  0.13743111716E+03  0.34010796243E+02  0.16518074068E+03  0.21760242029E+03  0.47000000000E+01 0.  1.
        -11    1    4    4    0    0 -0.19413124780E+02 -0.32942333562E+02  0.38380084583E+02  0.54176541481E+02  0.00000000000E+00 0.  1.
         11    1    4    4    0    0 -0.12067252313E+03  0.30581208560E+02  0.46739216034E+02  0.13297226204E+03  0.00000000000E+00 0. -1.
<mgrwt>
<rscale>  0 0.18225254E+03</rscale>
<asrwt>0</asrwt>
<pdfrwt beam="2">  1        2 0.14393600E-01 0.18776344E+03</pdfrwt>
<pdfrwt beam="1">  1       -2 0.52816042E-01 0.18776344E+03</pdfrwt>
<totfact> 0.13895897E+03</totfact>
</mgrwt>
</event>
<event>
 8    1  0.8504141E-006  0.1355070E+03  0.7546771E-02  0.1231580E+00
          4   -1    0    0  501    0  0.00000000000E+00  0.00000000000E+00  0.78216741935E+02  0.78216741935E+02  0.00000000000E+00 0. -1.
         -4   -1    0    0    0  501 -0.00000000000E+00 -0.00000000000E+00 -0.20379679427E+03  0.20379679427E+03  0.00000000000E+00 0.  1.
         23    2    1    2    0    0  0.29310442676E+02  0.43346247343E+02 -0.11186895752E+03  0.17571798519E+03  0.12499658978E+03 0.  0.
         23    2    1    2    0    0 -0.29310442676E+02 -0.43346247343E+02 -0.13711094823E+02  0.10629555102E+03  0.91502736767E+02 0.  0.
          5    1    3    3  502    0 -0.31999435407E+02 -0.21079445538E+02 -0.63649339304E+02  0.74442160664E+02  0.47000000000E+01 0. -1.
         -5    1    3    3    0  502  0.61309878083E+02  0.64425692881E+02 -0.48219618212E+02  0.10127582453E+03  0.47000000000E+01 0. -1.
        -11    1    4    4    0    0  0.10394381146E+02 -0.60373338685E+02 -0.15012248187E+02  0.63074168873E+02  0.00000000000E+00 0.  1.
         11    1    4    4    0    0 -0.39704823821E+02  0.17027091342E+02  0.13011533635E+01  0.43221382143E+02  0.00000000000E+00 0. -1.
<mgrwt>
<rscale>  0 0.12725921E+03</rscale>
<asrwt>0</asrwt>
<pdfrwt beam="1">  1        4 0.12033345E-01 0.13550700E+03</pdfrwt>
<pdfrwt beam="2">  1       -4 0.31353353E-01 0.13550700E+03</pdfrwt>
<totfact> 0.89283848E+02</totfact>
</mgrwt>
</event>
<event>
 8    1  0.8504141E-006  0.1505961E+03  0.7546771E-02  0.1208920E+00
         -2   -1    0    0    0  501 -0.00000000000E+00  0.00000000000E+00  0.57520840798E+02  0.57520840798E+02  0.00000000000E+00 0.  1.
          2   -1    0    0  501    0  0.00000000000E+00 -0.00000000000E+00 -0.34848133758E+03  0.34848133758E+03  0.00000000000E+00 0. -1.
         23    2    1    2    0    0 -0.18791562975E+02 -0.81859307169E+02 -0.10837680002E+03  0.18553899491E+03  0.12500047536E+03 0.  0.
         23    2    1    2    0    0  0.18791562975E+02  0.81859307169E+02 -0.18258369676E+03  0.22046318347E+03  0.90626375484E+02 0.  0.
          5    1    3    3  502    0  0.50509968134E+02 -0.26084829198E+02 -0.64928844097E+02  0.86426384808E+02  0.47000000000E+01 0. -1.
         -5    1    3    3    0  502 -0.69301531109E+02 -0.55774477971E+02 -0.43447955926E+02  0.99112610102E+02  0.47000000000E+01 0. -1.
        -11    1    4    4    0    0  0.48437309622E+02  0.31674897977E+02 -0.53433153158E+02  0.78769118198E+02  0.00000000000E+00 0.  1.
         11    1    4    4    0    0 -0.29645746648E+02  0.50184409192E+02 -0.12915054360E+03  0.14169406527E+03  0.00000000000E+00 0. -1.
<mgrwt>
<rscale>  0 0.14332774E+03</rscale>
<asrwt>0</asrwt>
<pdfrwt beam="2">  1        2 0.53612513E-01 0.15059611E+03</pdfrwt>
<pdfrwt beam="1">  1       -2 0.88493602E-02 0.15059611E+03</pdfrwt>
<totfact> 0.71871573E+03</totfact>
</mgrwt>
</event>
<event>
 8    1  0.8504141E-006  0.1356622E+03  0.7546771E-02  0.1231143E+00
         -1   -1    0    0    0  501 -0.00000000000E+00  0.00000000000E+00  0.41402420094E+02  0.41402420094E+02  0.00000000000E+00 0.  1.
          1   -1    0    0  501    0  0.00000000000E+00 -0.00000000000E+00 -0.48273294552E+03  0.48273294552E+03  0.00000000000E+00 0. -1.
         23    2    1    2    0    0 -0.20610973883E+02 -0.48525170986E+02 -0.10515315603E+03  0.17164327627E+03  0.12499889440E+03 0.  0.
         23    2    1    2    0    0  0.20610973883E+02  0.48525170986E+02 -0.33617736940E+03  0.35249208935E+03  0.91956211826E+02 0.  0.
          5    1    3    3  502    0 -0.70873999649E+01  0.20923723042E+02 -0.97776631151E+02  0.10035134789E+03  0.47000000000E+01 0. -1.
         -5    1    3    3    0  502 -0.13523573918E+02 -0.69448894028E+02 -0.73765248834E+01  0.71291928383E+02  0.47000000000E+01 0. -1.
        -11    1    4    4    0    0 -0.36633593523E+02  0.14681901633E+02 -0.12112254999E+03  0.12739015082E+03  0.00000000000E+00 0.  1.
         11    1    4    4    0    0  0.57244567406E+02  0.33843269353E+02 -0.21505481940E+03  0.22510193852E+03  0.00000000000E+00 0. -1.
<mgrwt>
<rscale>  0 0.12754631E+03</rscale>
<asrwt>0</asrwt>
<pdfrwt beam="2">  1        1 0.74266609E-01 0.13566218E+03</pdfrwt>
<pdfrwt beam="1">  1       -1 0.63696029E-02 0.13566218E+03</pdfrwt>
<totfact> 0.55547584E+03</totfact>
</mgrwt>
</event>
<event>
 8    1  0.8504141E-006  0.1454007E+03  0.7546771E-02  0.1216737E+00
         -2   -1    0    0    0  501 -0.00000000000E+00  0.00000000000E+00  0.10819388742E+03  0.10819388742E+03  0.00000000000E+00 0.  1.
          2   -1    0    0  501    0  0.00000000000E+00 -0.00000000000E+00 -0.15840773140E+03  0.15840773140E+03  0.00000000000E+00 0. -1.
         23    2    1    2    0    0  0.61961672899E+02  0.40967596637E+02 -0.23288481123E+02  0.14725391589E+03  0.12499507794E+03 0.  0.
         23    2    1    2    0    0 -0.61961672899E+02 -0.40967596637E+02 -0.26925362854E+02  0.11934770293E+03  0.89450020389E+02 0.  0.
          5    1    3    3  502    0 -0.31842874877E+01  0.47946622033E+02  0.34840604415E+02  0.59539700765E+02  0.47000000000E+01 0. -1.
         -5    1    3    3    0  502  0.65145960387E+02 -0.69790253960E+01 -0.58129085538E+02  0.87714215129E+02  0.47000000000E+01 0. -1.
        -11    1    4    4    0    0  0.50398776222E+01 -0.46274179915E+02  0.10180423505E+01  0.46558957286E+02  0.00000000000E+00 0.  1.
         11    1    4    4    0    0 -0.67001550521E+02  0.53065832785E+01 -0.27943405205E+02  0.72788745646E+02  0.00000000000E+00 0. -1.
<mgrwt>
<rscale>  0 0.13749678E+03</rscale>
<asrwt>0</asrwt>
<pdfrwt beam="2">  1        2 0.24370420E-01 0.14540070E+03</pdfrwt>
<pdfrwt beam="1">  1       -2 0.16645214E-01 0.14540070E+03</pdfrwt>
<totfact> 0.60827324E+03</totfact>
</mgrwt>
</event>
<event>
 8    1  0.8504141E-006  0.1625167E+03  0.7546771E-02  0.1193229E+00
         -2   -1    0    0    0  501 -0.00000000000E+00  0.00000000000E+00  0.19690783876E+03  0.19690783876E+03  0.00000000000E+00 0.  1.
          2   -1    0    0  501    0  0.00000000000E+00 -0.00000000000E+00 -0.11477904089E+03  0.11477904089E+03  0.00000000000E+00 0. -1.
         23    2    1    2    0    0 -0.13031878292E+02  0.10303160431E+03  0.44697169849E+02  0.16855120528E+03  0.12500532177E+03 0.  0.
         23    2    1    2    0    0  0.13031878292E+02 -0.10303160431E+03  0.37431628028E+02  0.14313567437E+03  0.91111761927E+02 0.  0.
          5    1    3    3  502    0  0.95354288811E+01  0.59276099756E+02  0.85400946654E+02  0.10449876600E+03  0.47000000000E+01 0. -1.
         -5    1    3    3    0  502 -0.22567307173E+02  0.43755504554E+02 -0.40703776806E+02  0.64052439282E+02  0.47000000000E+01 0. -1.
        -11    1    4    4    0    0 -0.19343801870E+02 -0.42300639656E+02 -0.22688832955E+02  0.51752390544E+02  0.00000000000E+00 0. -1.
         11    1    4    4    0    0  0.32375680162E+02 -0.60730964654E+02  0.60120460983E+02  0.91383283824E+02  0.00000000000E+00 0.  1.
<mgrwt>
<rscale>  0 0.15605037E+03</rscale>
<asrwt>0</asrwt>
<pdfrwt beam="2">  1        2 0.17658314E-01 0.16251668E+03</pdfrwt>
<pdfrwt beam="1">  1       -2 0.30293514E-01 0.16251668E+03</pdfrwt>
<totfact> 0.31338553E+03</totfact>
</mgrwt>
</event>
<event>
 8    1  0.8504141E-006  0.1546890E+03  0.7546771E-02  0.1203193E+00
          1   -1    0    0  501    0  0.00000000000E+00  0.00000000000E+00  0.26315969859E+03  0.26315969859E+03  0.00000000000E+00 0. -1.
         -1   -1    0    0    0  501 -0.00000000000E+00 -0.00000000000E+00 -0.84049083034E+02  0.84049083034E+02  0.00000000000E+00 0.  1.
         23    2    1    2    0    0 -0.10010485560E+02  0.90602484899E+02  0.44859166923E+02  0.16106215286E+03  0.12497860671E+03 0.  0.
         23    2    1    2    0    0  0.10010485560E+02 -0.90602484899E+02  0.13425144863E+03  0.18614662876E+03  0.91203595598E+02 0.  0.
          5    1    3    3  502    0  0.40876859214E+02  0.58668975776E+02  0.65779964126E+02  0.97273120738E+02  0.47000000000E+01 0. -1.
         -5    1    3    3    0  502 -0.50887344773E+02  0.31933509123E+02 -0.20920797203E+02  0.63789032118E+02  0.47000000000E+01 0. -1.
        -11    1    4    4    0    0  0.36713832926E+02 -0.60739588779E+01  0.22428060261E+02  0.43449009098E+02  0.00000000000E+00 0.  1.
         11    1    4    4    0    0 -0.26703347367E+02 -0.84528526021E+02  0.11182338837E+03  0.14269761966E+03  0.00000000000E+00 0. -1.
<mgrwt>
<rscale>  0 0.14780754E+03</rscale>
<asrwt>0</asrwt>
<pdfrwt beam="1">  1        1 0.40486107E-01 0.15468895E+03</pdfrwt>
<pdfrwt beam="2">  1       -1 0.12930628E-01 0.15468895E+03</pdfrwt>
<totfact> 0.40812455E+03</totfact>
</mgrwt>
</event>
<event>
 8    1  0.8504141E-006  0.1338541E+03  0.7546771E-02  0.1235856E+00
         -3   -1    0    0    0  501 -0.00000000000E+00  0.00000000000E+00  0.41489197064E+03  0.41489197064E+03  0.00000000000E+00 0.  1.
          3   -1    0    0  501    0  0.00000000000E+00 -0.00000000000E+00 -0.33928382115E+02  0.33928382115E+02  0.00000000000E+00 0. -1.
         23    2    1    2    0    0 -0.47827693484E+02 -0.16135999150E+01  0.25385599171E+03  0.28698396336E+03  0.12500735471E+03 0.  0.
         23    2    1    2    0    0  0.47827693484E+02  0.16135999150E+01  0.12710759682E+03  0.16183638940E+03  0.88003316957E+02 0.  0.
          5    1    3    3  502    0 -0.79454203319E+02 -0.56220682751E+00  0.23862962845E+03  0.25155412156E+03  0.47000000000E+01 0. -1.
         -5    1    3    3    0  502  0.31626509835E+02 -0.10513930875E+01  0.15226363263E+02  0.35429841801E+02  0.47000000000E+01 0. -1.
        -11    1    4    4    0    0  0.26534705579E+02 -0.20077936584E+02  0.12715880731E+03  0.13144039110E+03  0.00000000000E+00 0.  1.
         11    1    4    4    0    0  0.21292987905E+02  0.21691536499E+02 -0.51210491820E-01  0.30395998291E+02  0.00000000000E+00 0. -1.
<mgrwt>
<rscale>  0 0.12449783E+03</rscale>
<asrwt>0</asrwt>
<pdfrwt beam="2">  1        3 0.52197514E-02 0.13385414E+03</pdfrwt>
<pdfrwt beam="1">  1       -3 0.63829531E-01 0.13385414E+03</pdfrwt>
<totfact> 0.11835020E+03</totfact>
</mgrwt>
</event>
<event>
 8    1  0.8504141E-006  0.1327480E+03  0.7546771E-02  0.1244816E+00
         -2   -1    0    0    0  501 -0.00000000000E+00  0.00000000000E+00  0.24589349437E+02  0.24589349437E+02  0.00000000000E+00 0.  1.
          2   -1    0    0  501    0  0.00000000000E+00 -0.00000000000E+00 -0.49752406251E+03  0.49752406251E+03  0.00000000000E+00 0. -1.
         23    2    1    2    0    0 -0.41255630952E+02 -0.17090367165E+02 -0.24542615434E+03  0.27902693479E+03  0.12501170094E+03 0.  0.
         23    2    1    2    0    0  0.41255630952E+02  0.17090367165E+02 -0.22750855874E+03  0.24308647716E+03  0.73053291110E+02 0.  0.
          5    1    3    3  502    0  0.23023814163E+02 -0.35233709462E+02 -0.18177754528E+03  0.18664585789E+03  0.47000000000E+01 0. -1.
         -5    1    3    3    0  502 -0.64279445115E+02  0.18143342297E+02 -0.63648609057E+02  0.92381076898E+02  0.47000000000E+01 0. -1.
        -11    1    4    4    0    0 -0.52723600672E+00  0.38545165238E+02 -0.10849808620E+03  0.11514270472E+03  0.00000000000E+00 0.  1.
         11    1    4    4    0    0  0.41782866958E+02 -0.21454798073E+02 -0.11901047254E+03  0.12794377244E+03  0.00000000000E+00 0. -1.
<mgrwt>
<rscale>  0 0.11896401E+03</rscale>
<asrwt>0</asrwt>
<pdfrwt beam="2">  1        2 0.76542154E-01 0.13274801E+03</pdfrwt>
<pdfrwt beam="1">  1       -2 0.37829773E-02 0.13274801E+03</pdfrwt>
<totfact> 0.17614546E+04</totfact>
</mgrwt>
</event>
<event>
 7    1  0.8504141E-006  0.1879892E+03  0.7546771E-02  0.1160896E+00
         -1   -1    0    0    0  501 -0.00000000000E+00  0.00000000000E+00  0.69324975588E+02  0.69324975588E+02  0.00000000000E+00 0.  1.
          1   -1    0    0  501    0  0.00000000000E+00 -0.00000000000E+00 -0.54544611950E+03  0.54544611950E+03  0.00000000000E+00 0. -1.
         23    2    1    2    0    0  0.13510365292E+03 -0.21796021811E+02 -0.15039633405E+03  0.23869052945E+03  0.12500419175E+03 0.  0.
          5    1    3    3  502    0  0.61068213369E+02 -0.34966383322E+02 -0.14726369704E+03  0.16328092697E+03  0.47000000000E+01 0.  1.
         -5    1    3    3    0  502  0.74035439551E+02  0.13170361511E+02 -0.31326370113E+01  0.75409602482E+02  0.47000000000E+01 0.  1.
        -11    1    1    2    0    0 -0.92819423311E+02  0.54621329252E+02 -0.11051378872E+03  0.15431212671E+03  0.00000000000E+00 0.  1.
         11    1    1    2    0    0 -0.42284229608E+02 -0.32825307441E+02 -0.21521102115E+03  0.22176843893E+03  0.00000000000E+00 0. -1.
<mgrwt>
<rscale>  0 0.18732555E+03</rscale>
<asrwt>0</asrwt>
<pdfrwt beam="2">  1        1 0.83914786E-01 0.18798920E+03</pdfrwt>
<pdfrwt beam="1">  1       -1 0.10665381E-01 0.18798920E+03</pdfrwt>
<totfact> 0.21905790E+03</totfact>
</mgrwt>
</event>
<event>
 8    1  0.8504141E-006  0.1644454E+03  0.7546771E-02  0.1190975E+00
         -2   -1    0    0    0  501 -0.00000000000E+00  0.00000000000E+00  0.27396791605E+03  0.27396791605E+03  0.00000000000E+00 0.  1.
          2   -1    0    0  501    0  0.00000000000E+00 -0.00000000000E+00 -0.88051073109E+02  0.88051073109E+02  0.00000000000E+00 0. -1.
         23    2    1    2    0    0 -0.10666756207E+03  0.47919780493E+01  0.13554096727E+03  0.21310480398E+03  0.12506547014E+03 0.  0.
         23    2    1    2    0    0  0.10666756207E+03 -0.47919780493E+01  0.50375875678E+02  0.14891418518E+03  0.90756673834E+02 0.  0.
          5    1    3    3  502    0 -0.49700281319E+02  0.41247949069E+02  0.37121413800E+01  0.64864329636E+02  0.47000000000E+01 0. -1.
         -5    1    3    3    0  502 -0.56967280755E+02 -0.36455971020E+02  0.13182882589E+03  0.14824047435E+03  0.47000000000E+01 0. -1.
        -11    1    4    4    0    0  0.91144402428E+02  0.18216750298E+02  0.17959446453E+01  0.92964388357E+02  0.00000000000E+00 0.  1.
         11    1    4    4    0    0  0.15523159646E+02 -0.23008728347E+02  0.48579931033E+02  0.55949796825E+02  0.00000000000E+00 0. -1.
<mgrwt>
<rscale>  0 0.15799841E+03</rscale>
<asrwt>0</asrwt>
<pdfrwt beam="2">  1        2 0.13546319E-01 0.16444544E+03</pdfrwt>
<pdfrwt beam="1">  1       -2 0.42148910E-01 0.16444544E+03</pdfrwt>
<totfact> 0.23139172E+03</totfact>
</mgrwt>
</event>
<event>
 8    1  0.8504141E-006  0.1281448E+03  0.7546771E-02  0.1248192E+00
         -2   -1    0    0    0  501 -0.00000000000E+00  0.00000000000E+00  0.73388335077E+03  0.73388335077E+03  0.00000000000E+00 0.  1.
          2   -1    0    0  501    0  0.00000000000E+00 -0.00000000000E+00 -0.19189297431E+02  0.19189297431E+02  0.00000000000E+00 0. -1.
         23    2    1    2    0    0 -0.25373232995E+01 -0.28000410215E+02  0.56145659533E+03  0.57589461471E+03  0.12502254929E+03 0.  0.
         23    2    1    2    0    0  0.25373232995E+01  0.28000410215E+02  0.15323745800E+03  0.17717803349E+03  0.84379357861E+02 0.  0.
          5    1    3    3  502    0 -0.12779456039E+02 -0.57864516149E+01  0.93984051417E+00  0.14824669276E+02  0.47000000000E+01 0. -1.
         -5    1    3    3    0  502  0.10242132740E+02 -0.22213958601E+02  0.56051675482E+03  0.56106994543E+03  0.47000000000E+01 0. -1.
        -11    1    4    4    0    0 -0.28447924526E+02  0.37236836651E+02  0.12754352515E+03  0.13587942163E+03  0.00000000000E+00 0.  1.
         11    1    4    4    0    0  0.30985247825E+02 -0.92364264359E+01  0.25693932850E+02  0.41298611858E+02  0.00000000000E+00 0. -1.
<mgrwt>
<rscale>  0 0.11696346E+03</rscale>
<asrwt>0</asrwt>
<pdfrwt beam="2">  1        2 0.29522002E-02 0.12814484E+03</pdfrwt>
<pdfrwt beam="1">  1       -2 0.11290511E+00 0.12814484E+03</pdfrwt>
<totfact> 0.19671767E+03</totfact>
</mgrwt>
</event>
<event>
 7    1  0.8504141E-006  0.2177190E+03  0.7546771E-02  0.1152515E+00
          2   -1    0    0  501    0  0.00000000000E+00  0.00000000000E+00  0.58032486491E+03  0.58032486491E+03  0.00000000000E+00 0. -1.
         -2   -1    0    0    0  501 -0.00000000000E+00 -0.00000000000E+00 -0.86815643259E+02  0.86815643259E+02  0.00000000000E+00 0.  1.
         23    2    1    2    0    0  0.89051835410E+02  0.70511380352E+02  0.40829377667E+03  0.43333876792E+03  0.90424529697E+02 0.  0.
          5    1    1    2  502    0 -0.13520418411E+02  0.44437034465E+02  0.84082209849E+02  0.96173591797E+02  0.47000000000E+01 0. -1.
         -5    1    1    2    0  502 -0.75531416999E+02 -0.11494841482E+03  0.11332351325E+01  0.13762814845E+03  0.47000000000E+01 0.  1.
        -11    1    3    3    0    0  0.50289041767E+02  0.84030856887E+02  0.22305818238E+03  0.24360854944E+03  0.00000000000E+00 0. -1.
         11    1    3    3    0    0  0.38762793643E+02 -0.13519476535E+02  0.18523559429E+03  0.18973021849E+03  0.00000000000E+00 0.  1.
<mgrwt>
<rscale>  0 0.19674456E+03</rscale>
<asrwt>0</asrwt>
<pdfrwt beam="1">  1        2 0.89280746E-01 0.21771904E+03</pdfrwt>
<pdfrwt beam="2">  1       -2 0.13356253E-01 0.21771904E+03</pdfrwt>
<totfact> 0.21633081E+03</totfact>
</mgrwt>
</event>
<event>
 8    1  0.8504141E-006  0.1368695E+03  0.7546771E-02  0.1233044E+00
          1   -1    0    0  501    0  0.00000000000E+00  0.00000000000E+00  0.53159567678E+02  0.53159567678E+02  0.00000000000E+00 0. -1.
         -1   -1    0    0    0  501 -0.00000000000E+00 -0.00000000000E+00 -0.27957503633E+03  0.27957503633E+03  0.00000000000E+00 0.  1.
         23    2    1    2    0    0  0.52668420299E+02  0.18297890064E+02 -0.17108750069E+03  0.21909860822E+03  0.12499796780E+03 0.  0.
         23    2    1    2    0    0 -0.52668420299E+02 -0.18297890064E+02 -0.55327967965E+02  0.11363599579E+03  0.82116869292E+02 0.  0.
          5    1    3    3  502    0 -0.11094346445E+02  0.40887228060E+02 -0.13645457420E+03  0.14295730398E+03  0.47000000000E+01 0.  1.
         -5    1    3    3    0  502  0.63762766744E+02 -0.22589337996E+02 -0.34632926485E+02  0.76141304236E+02  0.47000000000E+01 0.  1.
        -11    1    4    4    0    0 -0.14532029274E+02 -0.40568020326E+02 -0.31973038986E+00  0.43093460936E+02  0.00000000000E+00 0. -1.
         11    1    4    4    0    0 -0.38136391025E+02  0.22270130262E+02 -0.55008237575E+02  0.70542534853E+02  0.00000000000E+00 0.  1.
<mgrwt>
<rscale>  0 0.12630495E+03</rscale>
<asrwt>0</asrwt>
<pdfrwt beam="1">  1        1 0.81783951E-02 0.13686953E+03</pdfrwt>
<pdfrwt beam="2">  1       -1 0.43011544E-01 0.13686953E+03</pdfrwt>
<totfact> 0.43739723E+03</totfact>
</mgrwt>
</event>
<event>
 8    1  0.8504141E-006  0.1809443E+03  0.7546771E-02  0.1172952E+00
          1   -1    0    0  501    0  0.00000000000E+00  0.00000000000E+00  0.54024461002E+03  0.54024461002E+03  0.00000000000E+00 0. -1.
         -1   -1    0    0    0  501 -0.00000000000E+00 -0.00000000000E+00 -0.53405695402E+02  0.53405695402E+02  0.00000000000E+00 0.  1.
         23    2    1    2    0    0  0.76260817824E+02  0.10630705216E+03  0.23472552538E+03  0.29637292802E+03  0.12499575401E+03 0.  0.
         23    2    1    2    0    0 -0.76260817824E+02 -0.10630705216E+03  0.25211338923E+03  0.29727737740E+03  0.87725574429E+02 0.  0.
          5    1    3    3  502    0  0.10245348506E+03  0.86041630826E+02  0.13067167044E+03  0.18707499643E+03  0.47000000000E+01 0. -1.
         -5    1    3    3    0  502 -0.26192667238E+02  0.20265421338E+02  0.10405385495E+03  0.10929793158E+03  0.47000000000E+01 0. -1.
        -11    1    4    4    0    0 -0.10513531605E+02 -0.88423048971E+02  0.15240415622E+03  0.17651118029E+03  0.00000000000E+00 0.  1.
         11    1    4    4    0    0 -0.65747286219E+02 -0.17884003193E+02  0.99709233015E+02  0.12076619711E+03  0.00000000000E+00 0. -1.
<mgrwt>
<rscale>  0 0.17478046E+03</rscale>
<asrwt>0</asrwt>
<pdfrwt beam="1">  1        1 0.83114552E-01 0.18094430E+03</pdfrwt>
<pdfrwt beam="2">  1       -1 0.82162612E-02 0.18094430E+03</pdfrwt>
<totfact> 0.33058377E+03</totfact>
</mgrwt>
</event>
<event>
 8    1  0.8504141E-006  0.3016862E+03  0.7546771E-02  0.1086070E+00
         -1   -1    0    0    0  501 -0.00000000000E+00  0.00000000000E+00  0.46104071626E+02  0.46104071626E+02  0.00000000000E+00 0.  1.
          1   -1    0    0  501    0  0.00000000000E+00 -0.00000000000E+00 -0.18995506133E+04  0.18995506133E+04  0.00000000000E+00 0. -1.
         23    2    1    2    0    0 -0.22526720356E+03  0.15698023311E+03 -0.87494969981E+03  0.92550068171E+03  0.12500571211E+03 0.  0.
         23    2    1    2    0    0  0.22526720356E+03 -0.15698023311E+03 -0.97849684186E+03  0.10201540032E+04  0.88713100270E+02 0.  0.
          5    1    3    3  502    0 -0.10851567937E+03  0.10870485221E+03 -0.64536109027E+03  0.66340441994E+03  0.47000000000E+01 0.  1.
         -5    1    3    3    0  502 -0.11675152419E+03  0.48275380896E+02 -0.22958860954E+03  0.26209626176E+03  0.47000000000E+01 0.  1.
        -11    1    4    4    0    0  0.10352644789E+03 -0.10971951931E+03 -0.41056526650E+03  0.43740134475E+03  0.00000000000E+00 0.  1.
         11    1    4    4    0    0  0.12174075566E+03 -0.47260713793E+02 -0.56793157536E+03  0.58275265846E+03  0.00000000000E+00 0. -1.
<mgrwt>
<rscale>  0 0.29834575E+03</rscale>
<asrwt>0</asrwt>
<pdfrwt beam="2">  1        1 0.29223848E+00 0.30168615E+03</pdfrwt>
<pdfrwt beam="1">  1       -1 0.70929359E-02 0.30168615E+03</pdfrwt>
<totfact> 0.40429940E+02</totfact>
</mgrwt>
</event>
<event>
 8    1  0.8504141E-006  0.1417129E+03  0.7546771E-02  0.1221688E+00
          1   -1    0    0  501    0  0.00000000000E+00  0.00000000000E+00  0.16863834761E+03  0.16863834761E+03  0.00000000000E+00 0. -1.
         -1   -1    0    0    0  501 -0.00000000000E+00 -0.00000000000E+00 -0.12719093113E+03  0.12719093113E+03  0.00000000000E+00 0.  1.
         23    2    1    2    0    0  0.55547304357E+01 -0.66527253574E+02 -0.50055244870E+02  0.15029325571E+03  0.12500321866E+03 0.  0.
         23    2    1    2    0    0 -0.55547304357E+01  0.66527253574E+02  0.91502661349E+02  0.14553602303E+03  0.91385263951E+02 0.  0.
          5    1    3    3  502    0 -0.43392564340E+02 -0.16249534535E+02 -0.63444711037E+02  0.78703769739E+02  0.47000000000E+01 0. -1.
         -5    1    3    3    0  502  0.48947294776E+02 -0.50277719039E+02  0.13389466167E+02  0.71589485973E+02  0.47000000000E+01 0. -1.
        -11    1    4    4    0    0 -0.32985595750E+02  0.22833631564E+02 -0.42652085355E+00  0.40119897525E+02  0.00000000000E+00 0.  1.
         11    1    4    4    0    0  0.27430865315E+02  0.43693622010E+02  0.91929182202E+02  0.10541612551E+03  0.00000000000E+00 0. -1.
<mgrwt>
<rscale>  0 0.13396523E+03</rscale>
<asrwt>0</asrwt>
<pdfrwt beam="1">  1        1 0.25944361E-01 0.14171286E+03</pdfrwt>
<pdfrwt beam="2">  1       -1 0.19567836E-01 0.14171286E+03</pdfrwt>
<totfact> 0.36769235E+03</totfact>
</mgrwt>
</event>
<event>
 8    1  0.8504141E-006  0.2737773E+03  0.7546771E-02  0.1101196E+00
          3   -1    0    0  501    0  0.00000000000E+00  0.00000000000E+00  0.17477470315E+03  0.17477470315E+03  0.00000000000E+00 0. -1.
         -3   -1    0    0    0  501 -0.00000000000E+00 -0.00000000000E+00 -0.42737868181E+03  0.42737868181E+03  0.00000000000E+00 0.  1.
         23    2    1    2    0    0  0.35185766359E+02  0.24102334063E+03 -0.19548149148E+03  0.33640306947E+03  0.12499489091E+03 0.  0.
         23    2    1    2    0    0 -0.35185766359E+02 -0.24102334063E+03 -0.57122487172E+02  0.26575031549E+03  0.89610059479E+02 0.  0.
          5    1    3    3  502    0  0.40463401082E+02  0.88949345855E+02 -0.12900858715E+02  0.98680267079E+02  0.47000000000E+01 0. -1.
         -5    1    3    3    0  502 -0.52776347226E+01  0.15207399477E+03 -0.18258063277E+03  0.23772280239E+03  0.47000000000E+01 0. -1.
        -11    1    4    4    0    0 -0.54956751903E+02 -0.16395952077E+03 -0.67265478650E+02  0.18554679639E+03  0.00000000000E+00 0.  1.
         11    1    4    4    0    0  0.19770985543E+02 -0.77063819854E+02  0.10142991478E+02  0.80203519100E+02  0.00000000000E+00 0. -1.
<mgrwt>
<rscale>  0 0.27014600E+03</rscale>
<asrwt>0</asrwt>
<pdfrwt beam="1">  1        3 0.26888416E-01 0.27377730E+03</pdfrwt>
<pdfrwt beam="2">  1       -3 0.65750565E-01 0.27377730E+03</pdfrwt>
<totfact> 0.74771861E+01</totfact>
</mgrwt>
</event>
<event>
 8    1  0.8504141E-006  0.2798635E+03  0.7546771E-02  0.1097775E+00
          1   -1    0    0  501    0  0.00000000000E+00  0.00000000000E+00  0.26161811527E+03  0.26161811527E+03  0.00000000000E+00 0. -1.
         -1   -1    0    0    0  501 -0.00000000000E+00 -0.00000000000E+00 -0.32044895185E+03  0.32044895185E+03  0.00000000000E+00 0.  1.
         23    2    1    2    0    0  0.25026019027E+03  0.82732413400E+01 -0.12786779404E+03  0.30769102874E+03  0.12499994823E+03 0.  0.
         23    2    1    2    0    0 -0.25026019027E+03 -0.82732413400E+01  0.69036957461E+02  0.27437603838E+03  0.88416625037E+02 0.  0.
          5    1    3    3  502    0  0.90418364459E+02  0.13785774009E+02  0.15457720689E+02  0.92879272851E+02  0.47000000000E+01 0.  1.
         -5    1    3    3    0  502  0.15984182581E+03 -0.55125326691E+01 -0.14332551473E+03  0.21481175589E+03  0.47000000000E+01 0.  1.
        -11    1    4    4    0    0 -0.20584986251E+03  0.15379728963E+02  0.82484735904E+02  0.22229357529E+03  0.00000000000E+00 0. -1.
         11    1    4    4    0    0 -0.44410327757E+02 -0.23652970303E+02 -0.13447778443E+02  0.52082463082E+02  0.00000000000E+00 0.  1.
<mgrwt>
<rscale>  0 0.27621406E+03</rscale>
<asrwt>0</asrwt>
<pdfrwt beam="1">  1        1 0.40248941E-01 0.27986353E+03</pdfrwt>
<pdfrwt beam="2">  1       -1 0.49299839E-01 0.27986353E+03</pdfrwt>
<totfact> 0.44173084E+02</totfact>
</mgrwt>
</event>
<event>
 8    1  0.8504141E-006  0.1756331E+03  0.7546771E-02  0.1180031E+00
         -1   -1    0    0    0  501 -0.00000000000E+00  0.00000000000E+00  0.72883543093E+02  0.72883543093E+02  0.00000000000E+00 0.  1.
          1   -1    0    0  501    0  0.00000000000E+00 -0.00000000000E+00 -0.35759131992E+03  0.35759131992E+03  0.00000000000E+00 0. -1.
         23    2    1    2    0    0 -0.87318364145E+02 -0.87165442958E+02 -0.14337485233E+03  0.22672307169E+03  0.12499876717E+03 0.  0.
         23    2    1    2    0    0  0.87318364145E+02  0.87165442958E+02 -0.14133292450E+03  0.20375179132E+03  0.79482612924E+02 0.  0.
          5    1    3    3  502    0 -0.41209815138E+02  0.17721090883E+02 -0.26328526286E+01  0.45180834861E+02  0.47000000000E+01 0.  1.
         -5    1    3    3    0  502 -0.46108549007E+02 -0.10488653384E+03 -0.14074199970E+03  0.18154223683E+03  0.47000000000E+01 0.  1.
        -11    1    4    4    0    0  0.58667017715E+02  0.56329763262E+02 -0.33438367997E+02  0.87937396203E+02  0.00000000000E+00 0.  1.
         11    1    4    4    0    0  0.28651346431E+02  0.30835679696E+02 -0.10789455650E+03  0.11581439512E+03  0.00000000000E+00 0. -1.
<mgrwt>
<rscale>  0 0.16792295E+03</rscale>
<asrwt>0</asrwt>
<pdfrwt beam="2">  1        1 0.55014049E-01 0.17563315E+03</pdfrwt>
<pdfrwt beam="1">  1       -1 0.11212853E-01 0.17563315E+03</pdfrwt>
<totfact> 0.34927651E+03</totfact>
</mgrwt>
</event>
<event>
 7    1  0.8504141E-006  0.2015081E+03  0.7546771E-02  0.1182879E+00
          1   -1    0    0  501    0  0.00000000000E+00  0.00000000000E+00  0.76694406187E+02  0.76694406187E+02  0.00000000000E+00 0. -1.
         -1   -1    0    0    0  501 -0.00000000000E+00 -0.00000000000E+00 -0.37890101167E+03  0.37890101167E+03  0.00000000000E+00 0.  1.
         23    2    1    2    0    0  0.15027870269E+02 -0.53747373953E+01  0.14298523780E+01  0.91177241615E+02  0.89758120657E+02 0.  0.
          5    1    1    2  502    0 -0.37224772192E+02 -0.49414082070E+02 -0.76088826869E+01  0.62509361437E+02  0.47000000000E+01 0. -1.
         -5    1    1    2    0  502  0.22196901923E+02  0.54788819465E+02 -0.29602757518E+03  0.30190881481E+03  0.47000000000E+01 0.  1.
        -11    1    3    3    0    0 -0.45398233023E+01 -0.41438394784E+02 -0.18447405329E+02  0.45585714004E+02  0.00000000000E+00 0. -1.
         11    1    3    3    0    0  0.19567693571E+02  0.36063657389E+02  0.19877257708E+02  0.45591527611E+02  0.00000000000E+00 0.  1.
<mgrwt>
<rscale>  0 0.16526376E+03</rscale>
<asrwt>0</asrwt>
<pdfrwt beam="1">  1        1 0.11799140E-01 0.20150809E+03</pdfrwt>
<pdfrwt beam="2">  1       -1 0.58292463E-01 0.20150809E+03</pdfrwt>
<totfact> 0.15618148E+03</totfact>
</mgrwt>
</event>
<event>
 7    1  0.8504141E-006  0.1701484E+03  0.7546771E-02  0.1191623E+00
          1   -1    0    0  501    0  0.00000000000E+00  0.00000000000E+00  0.84579006782E+02  0.84579006782E+02  0.00000000000E+00 0. -1.
         -1   -1    0    0    0  501 -0.00000000000E+00 -0.00000000000E+00 -0.46055073203E+03  0.46055073203E+03  0.00000000000E+00 0.  1.
         23    2    1    2    0    0 -0.35845464960E+02  0.10521854484E+03  0.81795248422E+01  0.12498375601E+03  0.56552587069E+02 0.  0.
          5    1    1    2  502    0 -0.10197441952E+02  0.26892497277E+02 -0.50255919737E+02  0.58094248431E+02  0.47000000000E+01 0. -1.
         -5    1    1    2    0  502  0.46042906911E+02 -0.13211104212E+03 -0.33389533035E+03  0.36205173436E+03  0.47000000000E+01 0.  1.
        -11    1    3    3    0    0 -0.48700478948E+02  0.96355490628E+02  0.12751442662E+02  0.10871392052E+03  0.00000000000E+00 0. -1.
         11    1    3    3    0    0  0.12855013988E+02  0.88630542123E+01 -0.45719178194E+01  0.16269835499E+02  0.00000000000E+00 0.  1.
<mgrwt>
<rscale>  0 0.15743497E+03</rscale>
<asrwt>0</asrwt>
<pdfrwt beam="1">  1        1 0.13012155E-01 0.17014836E+03</pdfrwt>
<pdfrwt beam="2">  1       -1 0.70853957E-01 0.17014836E+03</pdfrwt>
<totfact> 0.93496155E+02</totfact>
</mgrwt>
</event>
<event>
 8    1  0.8504141E-006  0.1540265E+03  0.7546771E-02  0.1205118E+00
         -1   -1    0    0    0  501 -0.00000000000E+00  0.00000000000E+00  0.69743111986E+02  0.69743111986E+02  0.00000000000E+00 0.  1.
          1   -1    0    0  501    0  0.00000000000E+00 -0.00000000000E+00 -0.55123962766E+03  0.55123962766E+03  0.00000000000E+00 0. -1.
         23    2    1    2    0    0  0.89483911433E+02 -0.94909304137E+01 -0.35971416764E+02  0.15817114686E+03  0.12500688265E+03 0.  0.
         23    2    1    2    0    0 -0.89483911433E+02  0.94909304137E+01 -0.44552509891E+03  0.46281159279E+03  0.87203833021E+02 0.  0.
          5    1    3    3  502    0  0.16092769936E+02  0.53890247363E+02 -0.70914625227E+01  0.56881586175E+02  0.47000000000E+01 0. -1.
         -5    1    3    3    0  502  0.73391141497E+02 -0.63381177777E+02 -0.28879954241E+02  0.10128956068E+03  0.47000000000E+01 0. -1.
        -11    1    4    4    0    0 -0.79622259738E+02 -0.29056981813E+02 -0.32596614685E+03  0.33680549481E+03  0.00000000000E+00 0.  1.
         11    1    4    4    0    0 -0.98616516951E+01  0.38547912227E+02 -0.11955895206E+03  0.12600609798E+03  0.00000000000E+00 0. -1.
<mgrwt>
<rscale>  0 0.14628199E+03</rscale>
<asrwt>0</asrwt>
<pdfrwt beam="2">  1        1 0.84806096E-01 0.15402652E+03</pdfrwt>
<pdfrwt beam="1">  1       -1 0.10729710E-01 0.15402652E+03</pdfrwt>
<totfact> 0.21290518E+03</totfact>
</mgrwt>
</event>
<event>
 8    1  0.8504141E-006  0.1729814E+03  0.7546771E-02  0.1180580E+00
         -2   -1    0    0    0  501 -0.00000000000E+00  0.00000000000E+00  0.20551110524E+04  0.20551110524E+04  0.00000000000E+00 0.  1.
          2   -1    0    0  501    0  0.00000000000E+00 -0.00000000000E+00 -0.14304605452E+02  0.14304605452E+02  0.00000000000E+00 0. -1.
         23    2    1    2    0    0 -0.59306673584E+02  0.10413916278E+03  0.14122169654E+04  0.14227717084E+04  0.12474105207E+03 0.  0.
         23    2    1    2    0    0  0.59306673584E+02 -0.10413916278E+03  0.62858948153E+03  0.64664394944E+03  0.93066719652E+02 0.  0.
          5    1    3    3  502    0  0.33558193895E+02  0.60868474621E+02  0.50713379200E+03  0.51189637288E+03  0.47000000000E+01 0. -1.
         -5    1    3    3    0  502 -0.92864867479E+02  0.43270688163E+02  0.90508317341E+03  0.91087533551E+03  0.47000000000E+01 0. -1.
        -11    1    4    4    0    0 -0.12199244212E+02 -0.34832637286E+02  0.68877930583E+02  0.78142840370E+02  0.00000000000E+00 0. -1.
         11    1    4    4    0    0  0.71505917796E+02 -0.69306525497E+02  0.55971155094E+03  0.56850110907E+03  0.00000000000E+00 0.  1.
<mgrwt>
<rscale>  0 0.16740615E+03</rscale>
<asrwt>0</asrwt>
<pdfrwt beam="2">  1        2 0.22007102E-02 0.17298143E+03</pdfrwt>
<pdfrwt beam="1">  1       -2 0.31617070E+00 0.17298143E+03</pdfrwt>
<totfact> 0.14167652E+02</totfact>
</mgrwt>
</event>
<event>
 8    1  0.8504141E-006  0.1901653E+03  0.7546771E-02  0.1163452E+00
          2   -1    0    0  501    0  0.00000000000E+00  0.00000000000E+00  0.33511721117E+03  0.33511721117E+03  0.00000000000E+00 0. -1.
         -2   -1    0    0    0  501 -0.00000000000E+00 -0.00000000000E+00 -0.15860107044E+03  0.15860107044E+03  0.00000000000E+00 0.  1.
         23    2    1    2    0    0  0.61548957191E+02  0.12941833105E+03 -0.63347665124E+02  0.20043894424E+03  0.12500186059E+03 0.  0.
         23    2    1    2    0    0 -0.61548957191E+02 -0.12941833105E+03  0.23986380585E+03  0.29327933737E+03  0.89110862577E+02 0.  0.
          5    1    3    3  502    0  0.65191336600E+02  0.14163816606E+03 -0.82881496830E+02  0.17664289674E+03  0.47000000000E+01 0. -1.
         -5    1    3    3    0  502 -0.36423794085E+01 -0.12219835014E+02  0.19533831706E+02  0.23796047500E+02  0.47000000000E+01 0. -1.
        -11    1    4    4    0    0 -0.23598588185E+02 -0.13851630052E+02  0.11787245936E+03  0.12100693243E+03  0.00000000000E+00 0. -1.
         11    1    4    4    0    0 -0.37950369006E+02 -0.11556670100E+03  0.12199134648E+03  0.17227240494E+03  0.00000000000E+00 0.  1.
<mgrwt>
<rscale>  0 0.18457054E+03</rscale>
<asrwt>0</asrwt>
<pdfrwt beam="1">  1        2 0.51556494E-01 0.19016531E+03</pdfrwt>
<pdfrwt beam="2">  1       -2 0.24400165E-01 0.19016531E+03</pdfrwt>
<totfact> 0.14276869E+03</totfact>
</mgrwt>
</event>
<event>
 8    1  0.8504141E-006  0.1324743E+03  0.7546771E-02  0.1236297E+00
         -2   -1    0    0    0  501 -0.00000000000E+00  0.00000000000E+00  0.26428472335E+02  0.26428472335E+02  0.00000000000E+00 0.  1.
          2   -1    0    0  501    0  0.00000000000E+00 -0.00000000000E+00 -0.53475457853E+03  0.53475457853E+03  0.00000000000E+00 0. -1.
         23    2    1    2    0    0  0.42880860841E+02  0.92021721496E+01 -0.24272731112E+03  0.27652485673E+03  0.12500400244E+03 0.  0.
         23    2    1    2    0    0 -0.42880860841E+02 -0.92021721496E+01 -0.26559879508E+03  0.28465819414E+03  0.92542527232E+02 0.  0.
          5    1    3    3  502    0 -0.86329181154E+01  0.23119853191E+02 -0.21451738465E+03  0.21598345586E+03  0.47000000000E+01 0.  1.
         -5    1    3    3    0  502  0.51513778957E+02 -0.13917681042E+02 -0.28209926472E+02  0.60541400872E+02  0.47000000000E+01 0.  1.
        -11    1    4    4    0    0 -0.23816346204E+01  0.29223138083E+02 -0.27835686722E+02  0.40428819401E+02  0.00000000000E+00 0.  1.
         11    1    4    4    0    0 -0.40499226221E+02 -0.38425310233E+02 -0.23776310835E+03  0.24422937474E+03  0.00000000000E+00 0. -1.
<mgrwt>
<rscale>  0 0.12421761E+03</rscale>
<asrwt>0</asrwt>
<pdfrwt beam="2">  1        2 0.82269930E-01 0.13247433E+03</pdfrwt>
<pdfrwt beam="1">  1       -2 0.40659191E-02 0.13247433E+03</pdfrwt>
<totfact> 0.14613384E+04</totfact>
</mgrwt>
</event>
<event>
 8    1  0.8504141E-006  0.1517227E+03  0.7546771E-02  0.1207190E+00
          2   -1    0    0  501    0  0.00000000000E+00  0.00000000000E+00  0.23295979189E+03  0.23295979189E+03  0.00000000000E+00 0. -1.
         -2   -1    0    0    0  501 -0.00000000000E+00 -0.00000000000E+00 -0.87049277515E+02  0.87049277515E+02  0.00000000000E+00 0.  1.
         23    2    1    2    0    0 -0.54369285551E+02 -0.66636313426E+02  0.42735849018E+02  0.15762653653E+03  0.12499341882E+03 0.  0.
         23    2    1    2    0    0  0.54369285551E+02  0.66636313426E+02  0.10317466536E+03  0.16238253288E+03  0.91250522929E+02 0.  0.
          5    1    3    3  502    0 -0.57159559667E+02 -0.59157024296E+02  0.82618635521E+02  0.11668203684E+03  0.47000000000E+01 0.  1.
         -5    1    3    3    0  502  0.27902741169E+01 -0.74792891304E+01 -0.39882786503E+02  0.40944499689E+02  0.47000000000E+01 0.  1.
        -11    1    4    4    0    0 -0.14936398166E+02  0.31520549595E+02  0.69384307821E+02  0.77658375007E+02  0.00000000000E+00 0. -1.
         11    1    4    4    0    0  0.69305683716E+02  0.35115763831E+02  0.33790357534E+02  0.84724157872E+02  0.00000000000E+00 0.  1.
<mgrwt>
<rscale>  0 0.14466220E+03</rscale>
<asrwt>0</asrwt>
<pdfrwt beam="1">  1        2 0.35839968E-01 0.15172268E+03</pdfrwt>
<pdfrwt beam="2">  1       -2 0.13392197E-01 0.15172268E+03</pdfrwt>
<totfact> 0.57211567E+03</totfact>
</mgrwt>
</event>
<event>
 8    1  0.8504141E-006  0.2223924E+03  0.7546771E-02  0.1135679E+00
          1   -1    0    0  501    0  0.00000000000E+00  0.00000000000E+00  0.75396155878E+02  0.75396155878E+02  0.00000000000E+00 0. -1.
         -1   -1    0    0    0  501 -0.00000000000E+00 -0.00000000000E+00 -0.71616209571E+03  0.71616209571E+03  0.00000000000E+00 0.  1.
         23    2    1    2    0    0 -0.12493132751E+03 -0.13500911676E+03 -0.48967249198E+03  0.53780808598E+03  0.12499235873E+03 0.  0.
         23    2    1    2    0    0  0.12493132751E+03  0.13500911676E+03 -0.15109344785E+03  0.25375016561E+03  0.87889808062E+02 0.  0.
          5    1    3    3  502    0  0.84455769828E+01 -0.70640880961E+02 -0.20208697497E+03  0.21429581724E+03  0.47000000000E+01 0. -1.
         -5    1    3    3    0  502 -0.13337690449E+03 -0.64368235799E+02 -0.28758551702E+03  0.32351226875E+03  0.47000000000E+01 0. -1.
        -11    1    4    4    0    0  0.16083961045E+02  0.14763578549E+01 -0.53213590102E+02  0.55610786786E+02  0.00000000000E+00 0.  1.
         11    1    4    4    0    0  0.10884736646E+03  0.13353275891E+03 -0.97879857749E+02  0.19813937882E+03  0.00000000000E+00 0. -1.
<mgrwt>
<rscale>  0 0.21760773E+03</rscale>
<asrwt>0</asrwt>
<pdfrwt beam="1">  1        1 0.11599408E-01 0.22239242E+03</pdfrwt>
<pdfrwt beam="2">  1       -1 0.11017879E+00 0.22239242E+03</pdfrwt>
<totfact> 0.42530945E+02</totfact>
</mgrwt>
</event>
<event>
 7    1  0.8504141E-006  0.2717207E+03  0.7546771E-02  0.1100299E+00
          2   -1    0    0  501    0  0.00000000000E+00  0.00000000000E+00  0.48851083691E+03  0.48851083691E+03  0.00000000000E+00 0. -1.
         -2   -1    0    0    0  501 -0.00000000000E+00 -0.00000000000E+00 -0.37784297583E+02  0.37784297583E+02  0.00000000000E+00 0.  1.
         23    2    1    2    0    0  0.77914665052E+01 -0.49278299639E+02  0.14665427503E+03  0.17994408238E+03  0.91560573588E+02 0.  0.
          5    1    1    2  502    0 -0.60878310785E+02  0.74062515321E+02  0.24449087003E+03  0.26265814365E+03  0.47000000000E+01 0. -1.
         -5    1    1    2    0  502  0.53086844280E+02 -0.24784215682E+02  0.59581394272E+02  0.83692908456E+02  0.47000000000E+01 0.  1.
        -11    1    3    3    0    0 -0.86540184339E+01 -0.14122779459E+02 -0.94621009010E+01  0.19075541622E+02  0.00000000000E+00 0. -1.
         11    1    3    3    0    0  0.16445484939E+02 -0.35155520180E+02  0.15611637593E+03  0.16086854076E+03  0.00000000000E+00 0.  1.
<mgrwt>
<rscale>  0 0.27172073E+03</rscale>
<asrwt>0</asrwt>
<pdfrwt beam="1">  1        2 0.75155509E-01 0.27172073E+03</pdfrwt>
<pdfrwt beam="2">  1       -2 0.58129692E-02 0.27172073E+03</pdfrwt>
<totfact> 0.98670527E+03</totfact>
</mgrwt>
</event>
<event>
 8    1  0.8504141E-006  0.1634892E+03  0.7546771E-02  0.1192067E+00
         -2   -1    0    0    0  501 -0.00000000000E+00  0.00000000000E+00  0.10054729315E+03  0.10054729315E+03  0.00000000000E+00 0.  1.
          2   -1    0    0  501    0  0.00000000000E+00 -0.00000000000E+00 -0.25817409215E+03  0.25817409215E+03  0.00000000000E+00 0. -1.
         23    2    1    2    0    0  0.10338785472E+03  0.20359608293E+02 -0.23076182196E+02  0.16510971321E+03  0.12500058023E+03 0.  0.
         23    2    1    2    0    0 -0.10338785472E+03 -0.20359608293E+02 -0.13455061680E+03  0.19361167209E+03  0.90983783900E+02 0.  0.
          5    1    3    3  502    0  0.10291282948E+01  0.54882802052E+02 -0.12285914535E+02  0.56446565547E+02  0.47000000000E+01 0.  1.
         -5    1    3    3    0  502  0.10235872643E+03 -0.34523193759E+02 -0.10790267661E+02  0.10866314766E+03  0.47000000000E+01 0.  1.
        -11    1    4    4    0    0  0.20529477616E+01  0.11674785208E+02  0.73487334743E+01  0.13947009997E+02  0.00000000000E+00 0.  1.
         11    1    4    4    0    0 -0.10544080248E+03 -0.32034393501E+02 -0.14189935028E+03  0.17966466209E+03  0.00000000000E+00 0. -1.
<mgrwt>
<rscale>  0 0.15705091E+03</rscale>
<asrwt>0</asrwt>
<pdfrwt beam="2">  1        2 0.39719091E-01 0.16348917E+03</pdfrwt>
<pdfrwt beam="1">  1       -2 0.15468814E-01 0.16348917E+03</pdfrwt>
<totfact> 0.40668479E+03</totfact>
</mgrwt>
</event>
<event>
 8    1  0.8504141E-006  0.2872817E+03  0.7546771E-02  0.1093431E+00
         -3   -1    0    0    0  501 -0.00000000000E+00  0.00000000000E+00  0.15196684483E+03  0.15196684483E+03  0.00000000000E+00 0.  1.
          3   -1    0    0  501    0  0.00000000000E+00 -0.00000000000E+00 -0.53416353142E+03  0.53416353142E+03  0.00000000000E+00 0. -1.
         23    2    1    2    0    0  0.25184623691E+03  0.58990263550E+02 -0.13970506059E+03  0.31944994703E+03  0.12499754584E+03 0.  0.
         23    2    1    2    0    0 -0.25184623691E+03 -0.58990263550E+02 -0.24249162599E+03  0.36668042922E+03  0.93519892303E+02 0.  0.
          5    1    3    3  502    0 -0.11783728344E+02  0.12882874006E+02 -0.17633470775E+02  0.25255771378E+02  0.47000000000E+01 0. -1.
         -5    1    3    3    0  502  0.26362996525E+03  0.46107389544E+02 -0.12207158982E+03  0.29419417566E+03  0.47000000000E+01 0. -1.
        -11    1    4    4    0    0 -0.19958903520E+03 -0.68369797108E+02 -0.14606331291E+03  0.25660222818E+03  0.00000000000E+00 0.  1.
         11    1    4    4    0    0 -0.52257201708E+02  0.93795335583E+01 -0.96428313077E+02  0.11007820103E+03  0.00000000000E+00 0. -1.
<mgrwt>
<rscale>  0 0.28417362E+03</rscale>
<asrwt>0</asrwt>
<pdfrwt beam="2">  1        3 0.82179004E-01 0.28728168E+03</pdfrwt>
<pdfrwt beam="1">  1       -3 0.23379515E-01 0.28728168E+03</pdfrwt>
<totfact> 0.59850750E+01</totfact>
</mgrwt>
</event>
<event>
 8    1  0.8504141E-006  0.1253813E+03  0.7546771E-02  0.1250354E+00
          2   -1    0    0  501    0  0.00000000000E+00  0.00000000000E+00  0.47268194220E+03  0.47268194220E+03  0.00000000000E+00 0. -1.
         -2   -1    0    0    0  501 -0.00000000000E+00 -0.00000000000E+00 -0.27148142889E+02  0.27148142889E+02  0.00000000000E+00 0.  1.
         23    2    1    2    0    0  0.77202099733E+01  0.59595608907E+01  0.18166245033E+03  0.22072998188E+03  0.12500144412E+03 0.  0.
         23    2    1    2    0    0 -0.77202099733E+01 -0.59595608907E+01  0.26387134898E+03  0.27910010321E+03  0.90408300449E+02 0.  0.
          5    1    3    3  502    0 -0.29897804071E+02 -0.16111241404E+00 -0.45443371756E+01  0.30604667060E+02  0.47000000000E+01 0. -1.
         -5    1    3    3    0  502  0.37618014045E+02  0.61206733048E+01  0.18620678751E+03  0.19012531482E+03  0.47000000000E+01 0. -1.
        -11    1    4    4    0    0 -0.39259227656E+02 -0.15180232627E+02  0.22158616948E+03  0.22554856888E+03  0.00000000000E+00 0. -1.
         11    1    4    4    0    0  0.31539017683E+02  0.92206717366E+01  0.42285179505E+02  0.53551534333E+02  0.00000000000E+00 0.  1.
<mgrwt>
<rscale>  0 0.11570572E+03</rscale>
<asrwt>0</asrwt>
<pdfrwt beam="1">  1        2 0.72720293E-01 0.12538133E+03</pdfrwt>
<pdfrwt beam="2">  1       -2 0.41766377E-02 0.12538133E+03</pdfrwt>
<totfact> 0.16004596E+04</totfact>
</mgrwt>
</event>
<event>
 8    1  0.8504141E-006  0.1317583E+03  0.7546771E-02  0.1238612E+00
         -2   -1    0    0    0  501 -0.00000000000E+00  0.00000000000E+00  0.39155237264E+02  0.39155237264E+02  0.00000000000E+00 0. -1.
          2   -1    0    0  501    0  0.00000000000E+00 -0.00000000000E+00 -0.34090606314E+03  0.34090606314E+03  0.00000000000E+00 0.  1.
         23    2    1    2    0    0 -0.30372879722E+02  0.28572210335E+02 -0.16938878720E+03  0.21459917965E+03  0.12498545375E+03 0.  0.
         23    2    1    2    0    0  0.30372879722E+02 -0.28572210335E+02 -0.13236203867E+03  0.16546212075E+03  0.90106165700E+02 0.  0.
          5    1    3    3  502    0  0.33481103501E+02  0.52108276627E+02 -0.65082965887E+02  0.89967434293E+02  0.47000000000E+01 0.  1.
         -5    1    3    3    0  502 -0.63853983223E+02 -0.23536066292E+02 -0.10430582131E+03  0.12463174535E+03  0.47000000000E+01 0.  1.
        -11    1    4    4    0    0  0.10021725583E+02 -0.39795521237E+02 -0.13589333276E+03  0.14195462790E+03  0.00000000000E+00 0.  1.
         11    1    4    4    0    0  0.20351154139E+02  0.11223310902E+02  0.35312940855E+01  0.23507492855E+02  0.00000000000E+00 0. -1.
<mgrwt>
<rscale>  0 0.12276006E+03</rscale>
<asrwt>0</asrwt>
<pdfrwt beam="2">  1        2 0.52447085E-01 0.13175829E+03</pdfrwt>
<pdfrwt beam="1">  1       -2 0.60238828E-02 0.13175829E+03</pdfrwt>
<totfact> 0.13159518E+04</totfact>
</mgrwt>
</event>
<event>
 8    1  0.8504141E-006  0.1556062E+03  0.7546771E-02  0.1201905E+00
         -4   -1    0    0    0  501 -0.00000000000E+00  0.00000000000E+00  0.40361094169E+03  0.40361094169E+03  0.00000000000E+00 0.  1.
          4   -1    0    0  501    0  0.00000000000E+00 -0.00000000000E+00 -0.54110316812E+02  0.54110316812E+02  0.00000000000E+00 0. -1.
         23    2    1    2    0    0  0.41556893933E+02 -0.82822161856E+02  0.24718175656E+03  0.29208238582E+03  0.12500725340E+03 0.  0.
         23    2    1    2    0    0 -0.41556893933E+02  0.82822161856E+02  0.10231886832E+03  0.16563887269E+03  0.91545613782E+02 0.  0.
          5    1    3    3  502    0  0.11308778338E+02 -0.86055327259E+02  0.24640955652E+03  0.26129134575E+03  0.47000000000E+01 0.  1.
         -5    1    3    3    0  502  0.30248115595E+02  0.32331654026E+01  0.77220003469E+00  0.30791040068E+02  0.47000000000E+01 0.  1.
        -11    1    4    4    0    0 -0.34417025326E+02  0.43947599207E+02 -0.14008484997E+00  0.55820629987E+02  0.00000000000E+00 0. -1.
         11    1    4    4    0    0 -0.71398686072E+01  0.38874562649E+02  0.10245895317E+03  0.10981824270E+03  0.00000000000E+00 0.  1.
<mgrwt>
<rscale>  0 0.14884051E+03</rscale>
<asrwt>0</asrwt>
<pdfrwt beam="2">  1        4 0.83246644E-02 0.15560623E+03</pdfrwt>
<pdfrwt beam="1">  1       -4 0.62093989E-01 0.15560623E+03</pdfrwt>
<totfact> 0.43452834E+02</totfact>
</mgrwt>
</event>
<event>
 8    1  0.8504141E-006  0.3041556E+03  0.7546771E-02  0.1084783E+00
          1   -1    0    0  501    0  0.00000000000E+00  0.00000000000E+00  0.49681042008E+03  0.49681042008E+03  0.00000000000E+00 0. -1.
         -1   -1    0    0    0  501 -0.00000000000E+00 -0.00000000000E+00 -0.17891296292E+03  0.17891296292E+03  0.00000000000E+00 0.  1.
         23    2    1    2    0    0  0.24719015997E+03  0.12563091484E+03  0.17881325781E+03  0.35282407123E+03  0.12499816845E+03 0.  0.
         23    2    1    2    0    0 -0.24719015997E+03 -0.12563091484E+03  0.13908419936E+03  0.32289931178E+03  0.89629510120E+02 0.  0.
          5    1    3    3  502    0  0.20525462941E+03  0.12744592900E+03  0.19193185009E+03  0.30859658584E+03  0.47000000000E+01 0.  1.
         -5    1    3    3    0  502  0.41935530567E+02 -0.18150141652E+01 -0.13118592279E+02  0.44227485388E+02  0.47000000000E+01 0.  1.
        -11    1    4    4    0    0 -0.26156278493E+02 -0.51488805717E+02  0.20059001430E+02  0.61136008679E+02  0.00000000000E+00 0.  1.
         11    1    4    4    0    0 -0.22103388148E+03 -0.74142109118E+02  0.11902519793E+03  0.26176330310E+03  0.00000000000E+00 0. -1.
<mgrwt>
<rscale>  0 0.30091778E+03</rscale>
<asrwt>0</asrwt>
<pdfrwt beam="1">  1        1 0.76432372E-01 0.30415562E+03</pdfrwt>
<pdfrwt beam="2">  1       -1 0.27525071E-01 0.30415562E+03</pdfrwt>
<totfact> 0.54105108E+02</totfact>
</mgrwt>
</event>
<event>
 8    1  0.8504141E-006  0.1287547E+03  0.7546771E-02  0.1243349E+00
          3   -1    0    0  501    0  0.00000000000E+00  0.00000000000E+00  0.29943970230E+03  0.29943970230E+03  0.00000000000E+00 0. -1.
         -3   -1    0    0    0  501 -0.00000000000E+00 -0.00000000000E+00 -0.46262766320E+02  0.46262766320E+02  0.00000000000E+00 0.  1.
         23    2    1    2    0    0  0.19856271021E+02 -0.23616039246E+02  0.93768807105E+02  0.15928074143E+03  0.12500310634E+03 0.  0.
         23    2    1    2    0    0 -0.19856271021E+02  0.23616039246E+02  0.15940812887E+03  0.18642172719E+03  0.91597598272E+02 0.  0.
          5    1    3    3  502    0  0.22465943290E+02  0.34483268793E+02  0.92012398354E+02  0.10090681783E+03  0.47000000000E+01 0. -1.
         -5    1    3    3    0  502 -0.26096722694E+01 -0.58099308039E+02  0.17564087506E+01  0.58373923594E+02  0.47000000000E+01 0. -1.
        -11    1    4    4    0    0  0.68963031463E+01 -0.19211790128E+02  0.12169838778E+03  0.12339833656E+03  0.00000000000E+00 0. -1.
         11    1    4    4    0    0 -0.26752574167E+02  0.42827829374E+02  0.37709741093E+02  0.63023390632E+02  0.00000000000E+00 0.  1.
<mgrwt>
<rscale>  0 0.11984719E+03</rscale>
<asrwt>0</asrwt>
<pdfrwt beam="1">  1        3 0.46067645E-01 0.12875467E+03</pdfrwt>
<pdfrwt beam="2">  1       -3 0.71173489E-02 0.12875467E+03</pdfrwt>
<totfact> 0.13859199E+03</totfact>
</mgrwt>
</event>
<event>
 8    1  0.8504141E-006  0.1321613E+03  0.7546771E-02  0.1237772E+00
         -2   -1    0    0    0  501 -0.00000000000E+00  0.00000000000E+00  0.49260994616E+02  0.49260994616E+02  0.00000000000E+00 0. -1.
          2   -1    0    0  501    0  0.00000000000E+00 -0.00000000000E+00 -0.28646570375E+03  0.28646570375E+03  0.00000000000E+00 0.  1.
         23    2    1    2    0    0  0.11231199644E+02 -0.41410651817E+02 -0.99180266123E+02  0.16523718731E+03  0.12500248379E+03 0.  0.
         23    2    1    2    0    0 -0.11231199644E+02  0.41410651817E+02 -0.13802444301E+03  0.17048951106E+03  0.90415400135E+02 0.  0.
          5    1    3    3  502    0 -0.57885842881E+01 -0.82673969699E+02 -0.83378545538E+02  0.11765442971E+03  0.47000000000E+01 0.  1.
         -5    1    3    3    0  502  0.17019783932E+02  0.41263317883E+02 -0.15801720585E+02  0.47582757605E+02  0.47000000000E+01 0.  1.
        -11    1    4    4    0    0 -0.94828019900E+00 -0.12875585310E+02  0.74292697470E+01  0.14895434917E+02  0.00000000000E+00 0. -1.
         11    1    4    4    0    0 -0.10282919445E+02  0.54286237126E+02 -0.14545371276E+03  0.15559407614E+03  0.00000000000E+00 0.  1.
<mgrwt>
<rscale>  0 0.12328623E+03</rscale>
<asrwt>0</asrwt>
<pdfrwt beam="2">  1        2 0.44071646E-01 0.13216128E+03</pdfrwt>
<pdfrwt beam="1">  1       -2 0.75786146E-02 0.13216128E+03</pdfrwt>
<totfact> 0.11147437E+04</totfact>
</mgrwt>
</event>
<event>
 7    1  0.8504141E-006  0.1944106E+03  0.7546771E-02  0.1166471E+00
         -2   -1    0    0    0  501 -0.00000000000E+00  0.00000000000E+00  0.20868562405E+03  0.20868562405E+03  0.00000000000E+00 0.  1.
          2   -1    0    0  501    0  0.00000000000E+00 -0.00000000000E+00 -0.16396846754E+03  0.16396846754E+03  0.00000000000E+00 0. -1.
         23    2    1    2    0    0 -0.64535652179E+01  0.11678175216E+03 -0.51090418958E+02  0.15591794404E+03  0.89557513493E+02 0.  0.
          5    1    1    2  502    0 -0.63576549615E+02 -0.27044558508E+02  0.21966553181E+01  0.69284205274E+02  0.47000000000E+01 0. -1.
         -5    1    1    2    0  502  0.70030114833E+02 -0.89737193652E+02  0.93610920158E+02  0.14745194228E+03  0.47000000000E+01 0.  1.
        -11    1    3    3    0    0  0.20302166111E+02 -0.63223212447E+01 -0.90592800935E+01  0.23113205112E+02  0.00000000000E+00 0.  1.
         11    1    3    3    0    0 -0.26755731329E+02  0.12310407340E+03 -0.42031138865E+02  0.13280473893E+03  0.00000000000E+00 0. -1.
<mgrwt>
<rscale>  0 0.18138351E+03</rscale>
<asrwt>0</asrwt>
<pdfrwt beam="2">  1        2 0.25225918E-01 0.19441056E+03</pdfrwt>
<pdfrwt beam="1">  1       -2 0.32105481E-01 0.19441056E+03</pdfrwt>
<totfact> 0.18967798E+03</totfact>
</mgrwt>
</event>
<event>
 8    1  0.8504141E-006  0.1291506E+03  0.7546771E-02  0.1242371E+00
          3   -1    0    0  501    0  0.00000000000E+00  0.00000000000E+00  0.25553875706E+03  0.25553875706E+03  0.00000000000E+00 0. -1.
         -3   -1    0    0    0  501 -0.00000000000E+00 -0.00000000000E+00 -0.52576132552E+02  0.52576132552E+02  0.00000000000E+00 0.  1.
         23    2    1    2    0    0 -0.31013897268E+02 -0.96457348876E+01  0.83466500647E+02  0.15377429389E+03  0.12499989883E+03 0.  0.
         23    2    1    2    0    0  0.31013897268E+02  0.96457348876E+01  0.11949612386E+03  0.15434059571E+03  0.92123796292E+02 0.  0.
          5    1    3    3  502    0 -0.38277555096E+02  0.29199151360E+02 -0.12433745588E+02  0.49944466096E+02  0.47000000000E+01 0.  1.
         -5    1    3    3    0  502  0.72636578286E+01 -0.38844886248E+02  0.95900246234E+02  0.10382982780E+03  0.47000000000E+01 0.  1.
        -11    1    4    4    0    0 -0.29824883675E+02  0.72691985808E+00  0.67556240357E+02  0.73850509205E+02  0.00000000000E+00 0. -1.
         11    1    4    4    0    0  0.60838780943E+02  0.89188150296E+01  0.51939883501E+02  0.80490086509E+02  0.00000000000E+00 0.  1.
<mgrwt>
<rscale>  0 0.12044132E+03</rscale>
<asrwt>0</asrwt>
<pdfrwt beam="1">  1        3 0.39313654E-01 0.12915060E+03</pdfrwt>
<pdfrwt beam="2">  1       -3 0.80886359E-02 0.12915060E+03</pdfrwt>
<totfact> 0.15336866E+03</totfact>
</mgrwt>
</event>
<event>
 8    1  0.8504141E-006  0.1338519E+03  0.7546771E-02  0.1234624E+00
         -1   -1    0    0    0  501 -0.00000000000E+00  0.00000000000E+00  0.14163842846E+03  0.14163842846E+03  0.00000000000E+00 0.  1.
          1   -1    0    0  501    0  0.00000000000E+00 -0.00000000000E+00 -0.11425503972E+03  0.11425503972E+03  0.00000000000E+00 0. -1.
         23    2    1    2    0    0  0.47433035884E+02  0.64208705825E+01  0.61956625388E+02  0.14749559657E+03  0.12500082842E+03 0.  0.
         23    2    1    2    0    0 -0.47433035884E+02 -0.64208705825E+01 -0.34573236649E+02  0.10839787161E+03  0.90904727076E+02 0.  0.
          5    1    3    3  502    0  0.72087895301E+01 -0.57291332739E+02  0.32741592934E+02  0.66545964276E+02  0.47000000000E+01 0.  1.
         -5    1    3    3    0  502  0.40224246354E+02  0.63712203322E+02  0.29215032453E+02  0.80949632291E+02  0.47000000000E+01 0.  1.
        -11    1    4    4    0    0  0.23800024470E+02 -0.16069585003E+02 -0.19784282176E+00  0.28717797073E+02  0.00000000000E+00 0.  1.
         11    1    4    4    0    0 -0.71233060354E+02  0.96487144206E+01 -0.34375393827E+02  0.79680074536E+02  0.00000000000E+00 0. -1.
<mgrwt>
<rscale>  0 0.12528514E+03</rscale>
<asrwt>0</asrwt>
<pdfrwt beam="2">  1        1 0.17577698E-01 0.13385189E+03</pdfrwt>
<pdfrwt beam="1">  1       -1 0.21790527E-01 0.13385189E+03</pdfrwt>
<totfact> 0.50468457E+03</totfact>
</mgrwt>
</event>
<event>
 7    1  0.8504141E-006  0.2595235E+03  0.7546771E-02  0.1116682E+00
         -2   -1    0    0    0  501 -0.00000000000E+00  0.00000000000E+00  0.96286813538E+02  0.96286813538E+02  0.00000000000E+00 0.  1.
          2   -1    0    0  501    0  0.00000000000E+00 -0.00000000000E+00 -0.71569150832E+03  0.71569150832E+03  0.00000000000E+00 0. -1.
         23    2    1    2    0    0  0.27710479963E+02 -0.18197290396E+03 -0.46921586497E+03  0.51212977924E+03  0.90726921971E+02 0.  0.
          5    1    1    2  502    0 -0.25837924187E+02 -0.17611926993E+02 -0.83612015706E+02  0.89391484321E+02  0.47000000000E+01 0. -1.
         -5    1    1    2    0  502 -0.18725557760E+01  0.19958483095E+03 -0.66576814108E+02  0.21045705830E+03  0.47000000000E+01 0.  1.
        -11    1    3    3    0    0  0.36560588828E+02 -0.27426711331E+02 -0.15895870046E+03  0.16539881983E+03  0.00000000000E+00 0.  1.
         11    1    3    3    0    0 -0.88501088641E+01 -0.15454619263E+03 -0.31025716451E+03  0.34673095941E+03  0.00000000000E+00 0. -1.
<mgrwt>
<rscale>  0 0.24472880E+03</rscale>
<asrwt>0</asrwt>
<pdfrwt beam="2">  1        2 0.11010638E+00 0.25952353E+03</pdfrwt>
<pdfrwt beam="1">  1       -2 0.14813356E-01 0.25952353E+03</pdfrwt>
<totfact> 0.14265689E+03</totfact>
</mgrwt>
</event>
<event>
 8    1  0.8504141E-006  0.1268018E+03  0.7546771E-02  0.1247364E+00
         -2   -1    0    0    0  501 -0.00000000000E+00  0.00000000000E+00  0.59228306250E+02  0.59228306250E+02  0.00000000000E+00 0.  1.
          2   -1    0    0  501    0  0.00000000000E+00 -0.00000000000E+00 -0.35197342576E+03  0.35197342576E+03  0.00000000000E+00 0. -1.
         23    2    1    2    0    0 -0.16525447073E+02 -0.13379178794E+02 -0.27138248472E+02  0.12967340418E+03  0.12500645742E+03 0.  0.
         23    2    1    2    0    0  0.16525447073E+02  0.13379178794E+02 -0.26560687104E+03  0.28152832783E+03  0.90879571970E+02 0.  0.
          5    1    3    3  502    0  0.24164802936E+02  0.45468642648E+02  0.32336186297E+01  0.51806191277E+02  0.47000000000E+01 0. -1.
         -5    1    3    3    0  502 -0.40690250009E+02 -0.58847821442E+02 -0.30371867102E+02  0.77867212904E+02  0.47000000000E+01 0. -1.
        -11    1    4    4    0    0  0.38468508475E+02  0.17149178725E+02 -0.25186962955E+03  0.25536685526E+03  0.00000000000E+00 0. -1.
         11    1    4    4    0    0 -0.21943061402E+02 -0.37699999308E+01 -0.13737241482E+02  0.26161472564E+02  0.00000000000E+00 0.  1.
<mgrwt>
<rscale>  0 0.11745023E+03</rscale>
<asrwt>0</asrwt>
<pdfrwt beam="2">  1        2 0.54149757E-01 0.12680184E+03</pdfrwt>
<pdfrwt beam="1">  1       -2 0.91120472E-02 0.12680184E+03</pdfrwt>
<totfact> 0.67206062E+03</totfact>
</mgrwt>
</event>
<event>
 8    1  0.8504141E-006  0.1326078E+03  0.7546771E-02  0.1236570E+00
         -1   -1    0    0    0  501 -0.00000000000E+00  0.00000000000E+00  0.78519455122E+02  0.78519455122E+02  0.00000000000E+00 0.  1.
          1   -1    0    0  501    0  0.00000000000E+00 -0.00000000000E+00 -0.17554910329E+03  0.17554910329E+03  0.00000000000E+00 0. -1.
         23    2    1    2    0    0 -0.16321984093E+02  0.41152430382E+02 -0.45413614574E+02  0.14016858962E+03  0.12499962974E+03 0.  0.
         23    2    1    2    0    0  0.16321984093E+02 -0.41152430382E+02 -0.51616033594E+02  0.11389996880E+03  0.91373181388E+02 0.  0.
          5    1    3    3  502    0 -0.19719436224E+02 -0.61794659770E+01  0.38330693461E+02  0.43799246865E+02  0.47000000000E+01 0. -1.
         -5    1    3    3    0  502  0.33974521308E+01  0.47331896359E+02 -0.83744308035E+02  0.96369342750E+02  0.47000000000E+01 0. -1.
        -11    1    4    4    0    0  0.48778134274E+02 -0.46526524282E+02 -0.26177112043E+02  0.72313657354E+02  0.00000000000E+00 0.  1.
         11    1    4    4    0    0 -0.32456150180E+02  0.53740938997E+01 -0.25438921551E+02  0.41586311443E+02  0.00000000000E+00 0. -1.
<mgrwt>
<rscale>  0 0.12404489E+03</rscale>
<asrwt>0</asrwt>
<pdfrwt beam="2">  1        1 0.27007554E-01 0.13260783E+03</pdfrwt>
<pdfrwt beam="1">  1       -1 0.12079916E-01 0.13260783E+03</pdfrwt>
<totfact> 0.74310405E+03</totfact>
</mgrwt>
</event>
<event>
 8    1  0.8504141E-006  0.1284352E+03  0.7546771E-02  0.1241896E+00
          3   -1    0    0  501    0  0.00000000000E+00  0.00000000000E+00  0.13270973747E+03  0.13270973747E+03  0.00000000000E+00 0. -1.
         -3   -1    0    0    0  501 -0.00000000000E+00 -0.00000000000E+00 -0.11360472244E+03  0.11360472244E+03  0.00000000000E+00 0.  1.
         23    2    1    2    0    0  0.28048550667E+02  0.90688991108E+01 -0.33973221250E+02  0.13285243874E+03  0.12500649819E+03 0.  0.
         23    2    1    2    0    0 -0.28048550667E+02 -0.90688991108E+01  0.53078236279E+02  0.11346202117E+03  0.95850743112E+02 0.  0.
          5    1    3    3  502    0 -0.33443915035E+02  0.10564736620E+02  0.28213982587E+02  0.45257352178E+02  0.47000000000E+01 0.  1.
         -5    1    3    3    0  502  0.61492465702E+02 -0.14958375097E+01 -0.62187203837E+02  0.87595086558E+02  0.47000000000E+01 0.  1.
        -11    1    4    4    0    0  0.18810487006E+02 -0.23495399114E+02 -0.11638875296E+02  0.32269670266E+02  0.00000000000E+00 0.  1.
         11    1    4    4    0    0 -0.46859037673E+02  0.14426500003E+02  0.64717111576E+02  0.81192350900E+02  0.00000000000E+00 0. -1.
<mgrwt>
<rscale>  0 0.12073075E+03</rscale>
<asrwt>0</asrwt>
<pdfrwt beam="1">  1        3 0.20416883E-01 0.12843516E+03</pdfrwt>
<pdfrwt beam="2">  1       -3 0.17477650E-01 0.12843516E+03</pdfrwt>
<totfact> 0.14025957E+03</totfact>
</mgrwt>
</event>
<event>
 8    1  0.8504141E-006  0.1329352E+03  0.7546771E-02  0.1235968E+00
          2   -1    0    0  501    0  0.00000000000E+00  0.00000000000E+00  0.27194699263E+03  0.27194699263E+03  0.00000000000E+00 0. -1.
         -2   -1    0    0    0  501 -0.00000000000E+00 -0.00000000000E+00 -0.51342111880E+02  0.51342111880E+02  0.00000000000E+00 0.  1.
         23    2    1    2    0    0 -0.37616428471E+02 -0.25129593874E+02  0.10748359442E+03  0.17095169011E+03  0.12500106041E+03 0.  0.
         23    2    1    2    0    0  0.37616428471E+02  0.25129593874E+02  0.11312128633E+03  0.15233741440E+03  0.91453650697E+02 0.  0.
          5    1    3    3  502    0 -0.37871872879E+02  0.45034774221E+02  0.29658406661E+02  0.66061492037E+02  0.47000000000E+01 0.  1.
         -5    1    3    3    0  502  0.25544440776E+00 -0.70164368095E+02  0.77825187757E+02  0.10489019807E+03  0.47000000000E+01 0.  1.
        -11    1    4    4    0    0  0.97799746586E+01  0.56754979130E+02  0.49013653374E+02  0.75624822495E+02  0.00000000000E+00 0.  1.
         11    1    4    4    0    0  0.27836453812E+02 -0.31625385256E+02  0.64107632959E+02  0.76712591906E+02  0.00000000000E+00 0. -1.
<mgrwt>
<rscale>  0 0.12442642E+03</rscale>
<asrwt>0</asrwt>
<pdfrwt beam="1">  1        2 0.41837998E-01 0.13293516E+03</pdfrwt>
<pdfrwt beam="2">  1       -2 0.78987866E-02 0.13293516E+03</pdfrwt>
<totfact> 0.11056864E+04</totfact>
</mgrwt>
</event>
<event>
 8    1  0.8504141E-006  0.1333756E+03  0.7546771E-02  0.1234090E+00
         -1   -1    0    0    0  501 -0.00000000000E+00  0.00000000000E+00  0.28051405484E+03  0.28051405484E+03  0.00000000000E+00 0.  1.
          1   -1    0    0  501    0  0.00000000000E+00 -0.00000000000E+00 -0.52783888567E+02  0.52783888567E+02  0.00000000000E+00 0. -1.
         23    2    1    2    0    0 -0.10977641370E+02  0.45197530439E+02  0.16027048721E+03  0.20850823090E+03  0.12500291163E+03 0.  0.
         23    2    1    2    0    0  0.10977641370E+02 -0.45197530439E+02  0.67459679068E+02  0.12478971251E+03  0.94118747764E+02 0.  0.
          5    1    3    3  502    0  0.96082201299E+01  0.49125331175E+02  0.36354825745E+01  0.50407566800E+02  0.47000000000E+01 0.  1.
         -5    1    3    3    0  502 -0.20585861500E+02 -0.39278007362E+01  0.15663500463E+03  0.15810066410E+03  0.47000000000E+01 0.  1.
        -11    1    4    4    0    0 -0.17471026291E+01 -0.73207271727E+02  0.55067201707E+02  0.91622888544E+02  0.00000000000E+00 0.  1.
         11    1    4    4    0    0  0.12724743999E+02  0.28009741288E+02  0.12392477361E+02  0.33166823966E+02  0.00000000000E+00 0. -1.
<mgrwt>
<rscale>  0 0.12562851E+03</rscale>
<asrwt>0</asrwt>
<pdfrwt beam="2">  1        1 0.81205984E-02 0.13337561E+03</pdfrwt>
<pdfrwt beam="1">  1       -1 0.43156008E-01 0.13337561E+03</pdfrwt>
<totfact> 0.43824825E+03</totfact>
</mgrwt>
</event>
<event>
 8    1  0.1629837E-005  0.1592391E+03  0.7546771E-02  0.1198351E+00
          2   -1    0    0  501    0  0.00000000000E+00  0.00000000000E+00  0.11099015476E+03  0.11099015476E+03  0.00000000000E+00 0. -1.
         -2   -1    0    0    0  501 -0.00000000000E+00 -0.00000000000E+00 -0.19430835943E+03  0.19430835943E+03  0.00000000000E+00 0.  1.
         23    2    1    2    0    0 -0.13717798952E+02 -0.97693381673E+02 -0.67858603695E+02  0.17309497407E+03  0.12499962049E+03 0.  0.
         23    2    1    2    0    0  0.13717798952E+02  0.97693381673E+02 -0.15459600978E+02  0.13220354012E+03  0.86640648235E+02 0.  0.
          5    1    3    3  502    0  0.50805678939E+02 -0.39562011318E+02 -0.30612874110E+01  0.64636144939E+02  0.47000000000E+01 0. -1.
         -5    1    3    3    0  502 -0.64523477891E+02 -0.58131370355E+02 -0.64797316284E+02  0.10845882913E+03  0.47000000000E+01 0. -1.
        -11    1    4    4    0    0  0.27033259682E+02  0.16849623943E+02 -0.35661409308E+02  0.47816765573E+02  0.00000000000E+00 0.  1.
         11    1    4    4    0    0 -0.13315460730E+02  0.80843757730E+02  0.20201808330E+02  0.84386774545E+02  0.00000000000E+00 0. -1.
<mgrwt>
<rscale>  0 0.15174015E+03</rscale>
<asrwt>0</asrwt>
<pdfrwt beam="1">  1        2 0.17075409E-01 0.15923907E+03</pdfrwt>
<pdfrwt beam="2">  1       -2 0.29893594E-01 0.15923907E+03</pdfrwt>
<totfact> 0.33334817E+03</totfact>
</mgrwt>
</event>
<event>
 8    1  0.8504141E-006  0.1291976E+03  0.7546771E-02  0.1238531E+00
          1   -1    0    0  501    0  0.00000000000E+00  0.00000000000E+00  0.53635863644E+02  0.53635863644E+02  0.00000000000E+00 0. -1.
         -1   -1    0    0    0  501 -0.00000000000E+00 -0.00000000000E+00 -0.27933248343E+03  0.27933248343E+03  0.00000000000E+00 0.  1.
         23    2    1    2    0    0  0.12457386157E+02  0.30135659428E+02 -0.17048748855E+03  0.21391123512E+03  0.12501475241E+03 0.  0.
         23    2    1    2    0    0 -0.12457386157E+02 -0.30135659428E+02 -0.55209131236E+02  0.11905711196E+03  0.10031551872E+03 0.  0.
          5    1    3    3  502    0 -0.18858250054E+02 -0.30351896947E+02 -0.69653776857E+01  0.36708006343E+02  0.47000000000E+01 0.  1.
         -5    1    3    3    0  502  0.31315636210E+02  0.60487556375E+02 -0.16352211086E+03  0.17720322877E+03  0.47000000000E+01 0.  1.
        -11    1    4    4    0    0  0.10439452187E+02 -0.41156688989E+02 -0.75445301519E+02  0.86572794409E+02  0.00000000000E+00 0.  1.
         11    1    4    4    0    0 -0.22896838344E+02  0.11021029561E+02  0.20236170283E+02  0.32484317546E+02  0.00000000000E+00 0. -1.
<mgrwt>
<rscale>  0 0.12281065E+03</rscale>
<asrwt>0</asrwt>
<pdfrwt beam="1">  1        1 0.82516712E-02 0.12919765E+03</pdfrwt>
<pdfrwt beam="2">  1       -1 0.42974229E-01 0.12919765E+03</pdfrwt>
<totfact> 0.43128859E+03</totfact>
</mgrwt>
</event>
<event>
 8    1  0.8504141E-006  0.1418696E+03  0.7546771E-02  0.1220126E+00
          1   -1    0    0  501    0  0.00000000000E+00  0.00000000000E+00  0.54552929907E+03  0.54552929907E+03  0.00000000000E+00 0. -1.
         -1   -1    0    0    0  501 -0.00000000000E+00 -0.00000000000E+00 -0.34346568354E+02  0.34346568354E+02  0.00000000000E+00 0.  1.
         23    2    1    2    0    0 -0.16563915029E+02  0.65029717429E+02  0.18260688096E+03  0.23124069056E+03  0.12499502617E+03 0.  0.
         23    2    1    2    0    0  0.16563915029E+02 -0.65029717429E+02  0.32857584975E+03  0.34863517686E+03  0.95295173411E+02 0.  0.
          5    1    3    3  502    0 -0.53234418946E+02  0.45456215439E+02  0.36145741686E+02  0.78922591978E+02  0.47000000000E+01 0. -1.
         -5    1    3    3    0  502  0.36670503916E+02  0.19573501990E+02  0.14646113928E+03  0.15231809858E+03  0.47000000000E+01 0. -1.
        -11    1    4    4    0    0  0.44372884973E+02 -0.44025323537E+02  0.28995073327E+03  0.29661188405E+03  0.00000000000E+00 0. -1.
         11    1    4    4    0    0 -0.27808969943E+02 -0.21004393892E+02  0.38625116476E+02  0.52023292811E+02  0.00000000000E+00 0.  1.
<mgrwt>
<rscale>  0 0.13506632E+03</rscale>
<asrwt>0</asrwt>
<pdfrwt beam="1">  1        1 0.83927578E-01 0.14186960E+03</pdfrwt>
<pdfrwt beam="2">  1       -1 0.52840878E-02 0.14186960E+03</pdfrwt>
<totfact> 0.62633440E+03</totfact>
</mgrwt>
</event>
<event>
 8    1  0.8504141E-006  0.1626133E+03  0.7546771E-02  0.1193250E+00
          2   -1    0    0  501    0  0.00000000000E+00  0.00000000000E+00  0.48792026940E+03  0.48792026940E+03  0.00000000000E+00 0. -1.
         -2   -1    0    0    0  501 -0.00000000000E+00 -0.00000000000E+00 -0.46592038712E+02  0.46592038712E+02  0.00000000000E+00 0.  1.
         23    2    1    2    0    0  0.16714211826E+02 -0.10265993051E+03  0.21609300621E+03  0.27044276234E+03  0.12499869664E+03 0.  0.
         23    2    1    2    0    0 -0.16714211826E+02  0.10265993051E+03  0.22523522448E+03  0.26406954577E+03  0.90462105041E+02 0.  0.
          5    1    3    3  502    0  0.43995301712E+02 -0.12043256287E+03  0.18529233958E+03  0.22537730560E+03  0.47000000000E+01 0. -1.
         -5    1    3    3    0  502 -0.27281089886E+02  0.17772632367E+02  0.30800666629E+02  0.45065456742E+02  0.47000000000E+01 0. -1.
        -11    1    4    4    0    0 -0.26017941143E+02  0.17696273970E+02  0.13951217842E+03  0.14301657003E+03  0.00000000000E+00 0. -1.
         11    1    4    4    0    0  0.93037293173E+01  0.84963656536E+02  0.85723046057E+02  0.12105297574E+03  0.00000000000E+00 0.  1.
<mgrwt>
<rscale>  0 0.15603303E+03</rscale>
<asrwt>0</asrwt>
<pdfrwt beam="1">  1        2 0.75064653E-01 0.16261335E+03</pdfrwt>
<pdfrwt beam="2">  1       -2 0.71680063E-02 0.16261335E+03</pdfrwt>
<totfact> 0.69594409E+03</totfact>
</mgrwt>
</event>
<event>
 8    1  0.8504141E-006  0.1443912E+03  0.7546771E-02  0.1217731E+00
         -3   -1    0    0    0  501 -0.00000000000E+00  0.00000000000E+00  0.75597654794E+02  0.75597654794E+02  0.00000000000E+00 0.  1.
          3   -1    0    0  501    0  0.00000000000E+00 -0.00000000000E+00 -0.23578257538E+03  0.23578257538E+03  0.00000000000E+00 0. -1.
         23    2    1    2    0    0 -0.24509011875E+02 -0.67989731951E+02 -0.54730473747E+02  0.15441585588E+03  0.12500214589E+03 0.  0.
         23    2    1    2    0    0  0.24509011875E+02  0.67989731951E+02 -0.10545444684E+03  0.15696437429E+03  0.91070736926E+02 0.  0.
          5    1    3    3  502    0  0.49036638214E+02 -0.43202254132E+02 -0.15515765410E+02  0.67333911409E+02  0.47000000000E+01 0.  1.
         -5    1    3    3    0  502 -0.73545650088E+02 -0.24787477818E+02 -0.39214708337E+02  0.87081944475E+02  0.47000000000E+01 0.  1.
        -11    1    4    4    0    0 -0.19478929394E+02 -0.81521803587E+01 -0.46573083714E+02  0.51136472909E+02  0.00000000000E+00 0. -1.
         11    1    4    4    0    0  0.43987941269E+02  0.76141912309E+02 -0.58881363125E+02  0.10582790138E+03  0.00000000000E+00 0.  1.
<mgrwt>
<rscale>  0 0.13677804E+03</rscale>
<asrwt>0</asrwt>
<pdfrwt beam="2">  1        3 0.36274242E-01 0.14439125E+03</pdfrwt>
<pdfrwt beam="1">  1       -3 0.11630409E-01 0.14439125E+03</pdfrwt>
<totfact> 0.10003277E+03</totfact>
</mgrwt>
</event>
<event>
 8    1  0.8504141E-006  0.1374277E+03  0.7546771E-02  0.1228816E+00
         -3   -1    0    0    0  501 -0.00000000000E+00  0.00000000000E+00  0.17091497372E+03  0.17091497372E+03  0.00000000000E+00 0.  1.
          3   -1    0    0  501    0  0.00000000000E+00 -0.00000000000E+00 -0.88071810473E+02  0.88071810473E+02  0.00000000000E+00 0. -1.
         23    2    1    2    0    0 -0.51474913334E+02 -0.24682712438E+02  0.57945111410E+02  0.14914427003E+03  0.12500989701E+03 0.  0.
         23    2    1    2    0    0  0.51474913334E+02  0.24682712438E+02  0.24898051840E+02  0.10984251416E+03  0.90479621663E+02 0.  0.
          5    1    3    3  502    0 -0.60293115654E+02 -0.63067252672E+02  0.11600994817E+02  0.88144263771E+02  0.47000000000E+01 0.  1.
         -5    1    3    3    0  502  0.88182023208E+01  0.38384540235E+02  0.46344116593E+02  0.61000006262E+02  0.47000000000E+01 0.  1.
        -11    1    4    4    0    0  0.19562721620E+01 -0.22509930557E+02 -0.18182403875E+02  0.29002134148E+02  0.00000000000E+00 0. -1.
         11    1    4    4    0    0  0.49518641172E+02  0.47192642995E+02  0.43080455715E+02  0.80840380015E+02  0.00000000000E+00 0.  1.
<mgrwt>
<rscale>  0 0.12908772E+03</rscale>
<asrwt>0</asrwt>
<pdfrwt beam="2">  1        3 0.13549509E-01 0.13742772E+03</pdfrwt>
<pdfrwt beam="1">  1       -3 0.26294611E-01 0.13742772E+03</pdfrwt>
<totfact> 0.13951649E+03</totfact>
</mgrwt>
</event>
<event>
 8    1  0.8504141E-006  0.2252145E+03  0.7546771E-02  0.1133248E+00
          2   -1    0    0  501    0  0.00000000000E+00  0.00000000000E+00  0.63839691220E+02  0.63839691220E+02  0.00000000000E+00 0. -1.
         -2   -1    0    0    0  501 -0.00000000000E+00 -0.00000000000E+00 -0.99140640156E+03  0.99140640156E+03  0.00000000000E+00 0.  1.
         23    2    1    2    0    0  0.99667208798E+02  0.15862684897E+03 -0.74495030878E+03  0.77824966894E+03  0.12500221969E+03 0.  0.
         23    2    1    2    0    0 -0.99667208798E+02 -0.15862684897E+03 -0.18261640155E+03  0.27699642384E+03  0.91006807311E+02 0.  0.
          5    1    3    3  502    0  0.10104824528E+03  0.74812289105E+02 -0.29782402189E+03  0.32330923972E+03  0.47000000000E+01 0.  1.
         -5    1    3    3    0  502 -0.13810364816E+01  0.83814559866E+02 -0.44712628689E+03  0.45494042922E+03  0.47000000000E+01 0.  1.
        -11    1    4    4    0    0 -0.51925134106E+02 -0.84055802478E+02 -0.34916786435E+02  0.10478921441E+03  0.00000000000E+00 0. -1.
         11    1    4    4    0    0 -0.47742074692E+02 -0.74571046493E+02 -0.14769961512E+03  0.17220720942E+03  0.00000000000E+00 0.  1.
<mgrwt>
<rscale>  0 0.22085454E+03</rscale>
<asrwt>0</asrwt>
<pdfrwt beam="1">  1        2 0.98214909E-02 0.22521453E+03</pdfrwt>
<pdfrwt beam="2">  1       -2 0.15252406E+00 0.22521453E+03</pdfrwt>
<totfact> 0.19917936E+02</totfact>
</mgrwt>
</event>
<event>
 8    1  0.8504141E-006  0.1762259E+03  0.7546771E-02  0.1177454E+00
         -1   -1    0    0    0  501 -0.00000000000E+00  0.00000000000E+00  0.42675774683E+02  0.42675774683E+02  0.00000000000E+00 0.  1.
          1   -1    0    0  501    0  0.00000000000E+00 -0.00000000000E+00 -0.65009311866E+03  0.65009311866E+03  0.00000000000E+00 0. -1.
         23    2    1    2    0    0  0.12421209152E+03 -0.11526887938E+01 -0.27812023819E+03  0.32925133064E+03  0.12500239784E+03 0.  0.
         23    2    1    2    0    0 -0.12421209152E+03  0.11526887938E+01 -0.32929710578E+03  0.36351756270E+03  0.90986054648E+02 0.  0.
          5    1    3    3  502    0 -0.15805244722E+02 -0.27551767575E+02 -0.69674410024E+02  0.76717136739E+02  0.47000000000E+01 0. -1.
         -5    1    3    3    0  502  0.14001733625E+03  0.26399078782E+02 -0.20844582817E+03  0.25253419390E+03  0.47000000000E+01 0. -1.
        -11    1    4    4    0    0 -0.80770947808E+02 -0.43079036582E+02 -0.18270791770E+03  0.20435736491E+03  0.00000000000E+00 0.  1.
         11    1    4    4    0    0 -0.43441143716E+02  0.44231725376E+02 -0.14658918808E+03  0.15916019778E+03  0.00000000000E+00 0. -1.
<mgrwt>
<rscale>  0 0.17037865E+03</rscale>
<asrwt>0</asrwt>
<pdfrwt beam="2">  1        1 0.10001432E+00 0.17622591E+03</pdfrwt>
<pdfrwt beam="1">  1       -1 0.65655042E-02 0.17622591E+03</pdfrwt>
<totfact> 0.35976892E+03</totfact>
</mgrwt>
</event>
<event>
 8    1  0.8504141E-006  0.1840050E+03  0.7546771E-02  0.1169008E+00
         -3   -1    0    0    0  501 -0.00000000000E+00  0.00000000000E+00  0.22331008388E+03  0.22331008388E+03  0.00000000000E+00 0.  1.
          3   -1    0    0  501    0  0.00000000000E+00 -0.00000000000E+00 -0.13552971097E+03  0.13552971097E+03  0.00000000000E+00 0. -1.
         23    2    1    2    0    0  0.67632895472E+02 -0.11687234987E+03  0.48566561192E+02  0.19030650543E+03  0.12499800170E+03 0.  0.
         23    2    1    2    0    0 -0.67632895472E+02  0.11687234987E+03  0.39213811716E+02  0.16853328942E+03  0.92910666238E+02 0.  0.
          5    1    3    3  502    0  0.69426590917E+02 -0.75521431192E+02 -0.25066781064E+02  0.10570700832E+03  0.47000000000E+01 0. -1.
         -5    1    3    3    0  502 -0.17936954448E+01 -0.41350918676E+02  0.73633342255E+02  0.84599497105E+02  0.47000000000E+01 0. -1.
        -11    1    4    4    0    0 -0.70744519332E+02  0.91776909463E+02  0.64627489580E+02  0.13268195256E+03  0.00000000000E+00 0.  1.
         11    1    4    4    0    0  0.31116238600E+01  0.25095440405E+02 -0.25413677864E+02  0.35851336862E+02  0.00000000000E+00 0. -1.
<mgrwt>
<rscale>  0 0.17876074E+03</rscale>
<asrwt>0</asrwt>
<pdfrwt beam="2">  1        3 0.20850725E-01 0.18400504E+03</pdfrwt>
<pdfrwt beam="1">  1       -3 0.34355398E-01 0.18400504E+03</pdfrwt>
<totfact> 0.41897245E+02</totfact>
</mgrwt>
</event>
<event>
 8    1  0.8504141E-006  0.1260521E+03  0.7546771E-02  0.1248970E+00
         -2   -1    0    0    0  501 -0.00000000000E+00  0.00000000000E+00  0.10607952856E+03  0.10607952856E+03  0.00000000000E+00 0.  1.
          2   -1    0    0  501    0  0.00000000000E+00 -0.00000000000E+00 -0.12142029286E+03  0.12142029286E+03  0.00000000000E+00 0. -1.
         23    2    1    2    0    0  0.15725860158E+02  0.41030854494E+01  0.22459654882E+02  0.12803735272E+03  0.12499995843E+03 0.  0.
         23    2    1    2    0    0 -0.15725860158E+02 -0.41030854494E+01 -0.37800419181E+02  0.99462468693E+02  0.90552597976E+02 0.  0.
          5    1    3    3  502    0  0.51895532561E+02  0.18391931685E+02  0.54363066183E+02  0.77516723458E+02  0.47000000000E+01 0. -1.
         -5    1    3    3    0  502 -0.36169672403E+02 -0.14288846235E+02 -0.31903411301E+02  0.50520629263E+02  0.47000000000E+01 0. -1.
        -11    1    4    4    0    0  0.38775423239E+01 -0.24580537081E+02  0.22043453996E+02  0.33243826521E+02  0.00000000000E+00 0.  1.
         11    1    4    4    0    0 -0.19603402482E+02  0.20477451632E+02 -0.59843873177E+02  0.66218642172E+02  0.00000000000E+00 0. -1.
<mgrwt>
<rscale>  0 0.11650885E+03</rscale>
<asrwt>0</asrwt>
<pdfrwt beam="2">  1        2 0.18680045E-01 0.12605208E+03</pdfrwt>
<pdfrwt beam="1">  1       -2 0.16319927E-01 0.12605208E+03</pdfrwt>
<totfact> 0.83829017E+03</totfact>
</mgrwt>
</event>
<event>
 7    1  0.8504141E-006  0.2677048E+03  0.7546771E-02  0.1125229E+00
         -2   -1    0    0    0  501 -0.00000000000E+00  0.00000000000E+00  0.95530462970E+02  0.95530462970E+02  0.00000000000E+00 0.  1.
          2   -1    0    0  501    0  0.00000000000E+00 -0.00000000000E+00 -0.51016813618E+03  0.51016813618E+03  0.00000000000E+00 0. -1.
         23    2    1    2    0    0 -0.84748378122E+02 -0.24625748889E+01 -0.62756996398E+02  0.16356078083E+03  0.12500134623E+03 0.  0.
          5    1    3    3  502    0 -0.11677542296E+03  0.61089946803E+01 -0.54359113903E+02  0.12903806604E+03  0.47000000000E+01 0.  1.
         -5    1    3    3    0  502  0.32027044840E+02 -0.85715695692E+01 -0.83978824945E+01  0.34522714790E+02  0.47000000000E+01 0.  1.
        -11    1    1    2    0    0 -0.23634764034E+02 -0.86533127981E+01  0.33358468049E+02  0.41788386951E+02  0.00000000000E+00 0.  1.
         11    1    1    2    0    0  0.10838314216E+03  0.11115887687E+02 -0.38523914486E+03  0.40034943137E+03  0.00000000000E+00 0. -1.
<mgrwt>
<rscale>  0 0.23201524E+03</rscale>
<asrwt>0</asrwt>
<pdfrwt beam="2">  1        2 0.78487405E-01 0.26770476E+03</pdfrwt>
<pdfrwt beam="1">  1       -2 0.14696994E-01 0.26770476E+03</pdfrwt>
<totfact> 0.21498685E+03</totfact>
</mgrwt>
</event>
<event>
 8    1  0.8504141E-006  0.1559401E+03  0.7546771E-02  0.1200704E+00
         -1   -1    0    0    0  501 -0.00000000000E+00  0.00000000000E+00  0.35636013242E+02  0.35636013242E+02  0.00000000000E+00 0.  1.
          1   -1    0    0  501    0  0.00000000000E+00 -0.00000000000E+00 -0.58503689349E+03  0.58503689349E+03  0.00000000000E+00 0. -1.
         23    2    1    2    0    0  0.12564623279E+02  0.92373795398E+02 -0.29789894179E+03  0.33624560147E+03  0.12500614845E+03 0.  0.
         23    2    1    2    0    0 -0.12564623279E+02 -0.92373795398E+02 -0.25150193845E+03  0.28442730526E+03  0.94630222965E+02 0.  0.
          5    1    3    3  502    0  0.13840648687E+02  0.12139568984E+03 -0.20393687240E+03  0.23778312596E+03  0.47000000000E+01 0.  1.
         -5    1    3    3    0  502 -0.12760254089E+01 -0.29021894443E+02 -0.93962069392E+02  0.98462475504E+02  0.47000000000E+01 0.  1.
        -11    1    4    4    0    0  0.13623533889E+02 -0.28465589301E+02 -0.18791920276E+03  0.19055056341E+03  0.00000000000E+00 0. -1.
         11    1    4    4    0    0 -0.26188157167E+02 -0.63908206097E+02 -0.63582735690E+02  0.93876741849E+02  0.00000000000E+00 0.  1.
<mgrwt>
<rscale>  0 0.14981255E+03</rscale>
<asrwt>0</asrwt>
<pdfrwt beam="2">  1        1 0.90005671E-01 0.15594013E+03</pdfrwt>
<pdfrwt beam="1">  1       -1 0.54824639E-02 0.15594013E+03</pdfrwt>
<totfact> 0.54242278E+03</totfact>
</mgrwt>
</event>
<event>
 8    1  0.8504141E-006  0.1325473E+03  0.7546771E-02  0.1236621E+00
         -2   -1    0    0    0  501 -0.00000000000E+00  0.00000000000E+00  0.50091832375E+03  0.50091832375E+03  0.00000000000E+00 0.  1.
          2   -1    0    0  501    0  0.00000000000E+00 -0.00000000000E+00 -0.30360246408E+02  0.30360246408E+02  0.00000000000E+00 0. -1.
         23    2    1    2    0    0  0.22372811277E+02 -0.37985290668E+02  0.34625495216E+03  0.37075769196E+03  0.12500139702E+03 0.  0.
         23    2    1    2    0    0 -0.22372811277E+02  0.37985290668E+02  0.12430312519E+03  0.16052087821E+03  0.91500056925E+02 0.  0.
          5    1    3    3  502    0  0.61961926744E+02 -0.49150823415E+02  0.29172212689E+03  0.30228955180E+03  0.47000000000E+01 0.  1.
         -5    1    3    3    0  502 -0.39589115468E+02  0.11165532747E+02  0.54532825271E+02  0.68468140161E+02  0.47000000000E+01 0.  1.
        -11    1    4    4    0    0 -0.43141748928E+02  0.39609038894E+02  0.33735558201E+02  0.67588270801E+02  0.00000000000E+00 0. -1.
         11    1    4    4    0    0  0.20768937651E+02 -0.16237482264E+01  0.90567566985E+02  0.92932607405E+02  0.00000000000E+00 0.  1.
<mgrwt>
<rscale>  0 0.12401246E+03</rscale>
<asrwt>0</asrwt>
<pdfrwt beam="2">  1        2 0.46708075E-02 0.13254725E+03</pdfrwt>
<pdfrwt beam="1">  1       -2 0.77064351E-01 0.13254725E+03</pdfrwt>
<totfact> 0.25462298E+03</totfact>
</mgrwt>
</event>
<event>
 8    1  0.8504141E-006  0.1272763E+03  0.7546771E-02  0.1245506E+00
         -2   -1    0    0    0  501 -0.00000000000E+00  0.00000000000E+00  0.37773349391E+02  0.37773349391E+02  0.00000000000E+00 0. -1.
          2   -1    0    0  501    0  0.00000000000E+00 -0.00000000000E+00 -0.34037460728E+03  0.34037460728E+03  0.00000000000E+00 0.  1.
         23    2    1    2    0    0 -0.23384770950E+02 -0.52091886748E+01 -0.13828280623E+03  0.18793983916E+03  0.12500106194E+03 0.  0.
         23    2    1    2    0    0  0.23384770950E+02  0.52091886748E+01 -0.16431845165E+03  0.19020811751E+03  0.92760936030E+02 0.  0.
          5    1    3    3  502    0 -0.11694113149E+02 -0.63962135836E+02 -0.88431237593E+02  0.10986391985E+03  0.47000000000E+01 0.  1.
         -5    1    3    3    0  502 -0.11690657801E+02  0.58752947161E+02 -0.49851568641E+02  0.78075919309E+02  0.47000000000E+01 0.  1.
        -11    1    4    4    0    0 -0.21810801873E+02  0.34131964400E+02 -0.53710214924E+02  0.67271756773E+02  0.00000000000E+00 0.  1.
         11    1    4    4    0    0  0.45195572823E+02 -0.28922775725E+02 -0.11060823673E+03  0.12293636073E+03  0.00000000000E+00 0. -1.
<mgrwt>
<rscale>  0 0.11855162E+03</rscale>
<asrwt>0</asrwt>
<pdfrwt beam="2">  1        2 0.52365322E-01 0.12727627E+03</pdfrwt>
<pdfrwt beam="1">  1       -2 0.58112848E-02 0.12727627E+03</pdfrwt>
<totfact> 0.13877510E+04</totfact>
</mgrwt>
</event>
<event>
 7    1  0.8504141E-006  0.3854957E+03  0.7546771E-02  0.1084678E+00
          1   -1    0    0  501    0  0.00000000000E+00  0.00000000000E+00  0.34314946751E+03  0.34314946751E+03  0.00000000000E+00 0. -1.
         -1   -1    0    0    0  501 -0.00000000000E+00 -0.00000000000E+00 -0.20504642587E+03  0.20504642587E+03  0.00000000000E+00 0.  1.
         23    2    1    2    0    0 -0.68484058124E+02 -0.87741376437E+02  0.19397408365E+02  0.14483754657E+03  0.90625824625E+02 0.  0.
          5    1    1    2  502    0 -0.14949003316E+03  0.43738416974E+02  0.10956684062E+02  0.15621286138E+03  0.47000000000E+01 0. -1.
         -5    1    1    2    0  502  0.21797409128E+03  0.44002959464E+02  0.10774894921E+03  0.24714548543E+03  0.47000000000E+01 0.  1.
        -11    1    3    3    0    0 -0.10346239617E+02 -0.81245296022E+02  0.26089477295E+02  0.85956405378E+02  0.00000000000E+00 0.  1.
         11    1    3    3    0    0 -0.58137818507E+02 -0.64960804151E+01 -0.66920689298E+01  0.58881141192E+02  0.00000000000E+00 0. -1.
<mgrwt>
<rscale>  0 0.30112888E+03</rscale>
<asrwt>0</asrwt>
<pdfrwt beam="1">  1        1 0.52792226E-01 0.38549569E+03</pdfrwt>
<pdfrwt beam="2">  1       -1 0.31545604E-01 0.38549569E+03</pdfrwt>
<totfact> 0.69313750E+02</totfact>
</mgrwt>
</event>
<event>
 8    1  0.8504141E-006  0.1791125E+03  0.7546771E-02  0.1174294E+00
          2   -1    0    0  501    0  0.00000000000E+00  0.00000000000E+00  0.18564198269E+03  0.18564198269E+03  0.00000000000E+00 0. -1.
         -2   -1    0    0    0  501 -0.00000000000E+00 -0.00000000000E+00 -0.17451679143E+03  0.17451679143E+03  0.00000000000E+00 0.  1.
         23    2    1    2    0    0  0.11855392933E+03  0.49015462283E+02 -0.57807484227E+02  0.18820993088E+03  0.12499489249E+03 0.  0.
         23    2    1    2    0    0 -0.11855392933E+03 -0.49015462283E+02  0.68932675486E+02  0.17194884324E+03  0.91417401182E+02 0.  0.
          5    1    3    3  502    0  0.10547512113E+03  0.38239724667E+02  0.15017972042E+02  0.11329124946E+03  0.47000000000E+01 0.  1.
         -5    1    3    3    0  502  0.13078808192E+02  0.10775737616E+02 -0.72825456269E+02  0.74918681420E+02  0.47000000000E+01 0.  1.
        -11    1    4    4    0    0 -0.57639635464E+02 -0.29700917226E+02  0.84174161799E+02  0.10625328971E+03  0.00000000000E+00 0. -1.
         11    1    4    4    0    0 -0.60914293862E+02 -0.19314545058E+02 -0.15241486313E+02  0.65695553522E+02  0.00000000000E+00 0.  1.
<mgrwt>
<rscale>  0 0.17345346E+03</rscale>
<asrwt>0</asrwt>
<pdfrwt beam="1">  1        2 0.28560305E-01 0.17911246E+03</pdfrwt>
<pdfrwt beam="2">  1       -2 0.26848737E-01 0.17911246E+03</pdfrwt>
<totfact> 0.22761243E+03</totfact>
</mgrwt>
</event>
<event>
 8    1  0.8504141E-006  0.1253305E+03  0.7546771E-02  0.1250587E+00
         -1   -1    0    0    0  501 -0.00000000000E+00  0.00000000000E+00  0.32286627346E+02  0.32286627346E+02  0.00000000000E+00 0.  1.
          1   -1    0    0  501    0  0.00000000000E+00 -0.00000000000E+00 -0.36849553120E+03  0.36849553120E+03  0.00000000000E+00 0. -1.
         23    2    1    2    0    0 -0.87340034093E+01  0.25963787906E+01 -0.16656378033E+03  0.20844957480E+03  0.12499883327E+03 0.  0.
         23    2    1    2    0    0  0.87340034093E+01 -0.25963787906E+01 -0.16964512352E+03  0.19233258374E+03  0.90162801841E+02 0.  0.
          5    1    3    3  502    0  0.43682743326E+02 -0.34157644952E+02 -0.10829095912E+03  0.12175363896E+03  0.47000000000E+01 0. -1.
         -5    1    3    3    0  502 -0.52416746735E+02  0.36754023743E+02 -0.58272821216E+02  0.86695935846E+02  0.47000000000E+01 0. -1.
        -11    1    4    4    0    0 -0.21029613519E+02 -0.25359511059E+02 -0.14198990558E+03  0.14576173274E+03  0.00000000000E+00 0. -1.
         11    1    4    4    0    0  0.29763616928E+02  0.22763132268E+02 -0.27655217942E+02  0.46570850999E+02  0.00000000000E+00 0.  1.
<mgrwt>
<rscale>  0 0.11557157E+03</rscale>
<asrwt>0</asrwt>
<pdfrwt beam="2">  1        1 0.56691621E-01 0.12533049E+03</pdfrwt>
<pdfrwt beam="1">  1       -1 0.49671734E-02 0.12533049E+03</pdfrwt>
<totfact> 0.11256811E+04</totfact>
</mgrwt>
</event>
<event>
 8    1  0.8504141E-006  0.1255815E+03  0.7546771E-02  0.1248839E+00
          2   -1    0    0  501    0  0.00000000000E+00  0.00000000000E+00  0.20155937141E+03  0.20155937141E+03  0.00000000000E+00 0. -1.
         -2   -1    0    0    0  501 -0.00000000000E+00 -0.00000000000E+00 -0.72300248980E+02  0.72300248980E+02  0.00000000000E+00 0.  1.
         23    2    1    2    0    0  0.34876079954E+01 -0.11409467419E+02  0.15176674079E+02  0.12649524418E+03  0.12501350330E+03 0.  0.
         23    2    1    2    0    0 -0.34876079954E+01  0.11409467419E+02  0.11408244836E+03  0.14736437621E+03  0.92515485177E+02 0.  0.
          5    1    3    3  502    0  0.36348749559E+02 -0.12240623613E+02 -0.44049078663E+02  0.58595868387E+02  0.47000000000E+01 0. -1.
         -5    1    3    3    0  502 -0.32861141564E+02  0.83115619378E+00  0.59225752741E+02  0.67899375794E+02  0.47000000000E+01 0. -1.
        -11    1    4    4    0    0  0.39474203102E+01  0.41441343547E+02  0.16134367590E+02  0.44646219321E+02  0.00000000000E+00 0.  1.
         11    1    4    4    0    0 -0.74350283056E+01 -0.30031876128E+02  0.97948080766E+02  0.10271815689E+03  0.00000000000E+00 0. -1.
<mgrwt>
<rscale>  0 0.11658515E+03</rscale>
<asrwt>0</asrwt>
<pdfrwt beam="1">  1        2 0.31009134E-01 0.12558151E+03</pdfrwt>
<pdfrwt beam="2">  1       -2 0.11123115E-01 0.12558151E+03</pdfrwt>
<totfact> 0.88811597E+03</totfact>
</mgrwt>
</event>
<event>
 8    1  0.8504141E-006  0.1888493E+03  0.7546771E-02  0.1163661E+00
         -1   -1    0    0    0  501 -0.00000000000E+00  0.00000000000E+00  0.82695183098E+02  0.82695183098E+02  0.00000000000E+00 0.  1.
          1   -1    0    0  501    0  0.00000000000E+00 -0.00000000000E+00 -0.71382634443E+03  0.71382634443E+03  0.00000000000E+00 0. -1.
         23    2    1    2    0    0 -0.10099936600E+03 -0.99196151555E+02 -0.56900993565E+02  0.19723534771E+03  0.12499324343E+03 0.  0.
         23    2    1    2    0    0  0.10099936600E+03  0.99196151555E+02 -0.57423016777E+03  0.59928617982E+03  0.96762034552E+02 0.  0.
          5    1    3    3  502    0 -0.60924355675E+02 -0.12471314350E+03 -0.55251977650E+02  0.14946576969E+03  0.47000000000E+01 0.  1.
         -5    1    3    3    0  502 -0.40075010323E+02  0.25516991946E+02 -0.16490159157E+01  0.47769578017E+02  0.47000000000E+01 0.  1.
        -11    1    4    4    0    0  0.77694536434E+02  0.11606007430E+03 -0.42664104589E+03  0.44891977443E+03  0.00000000000E+00 0.  1.
         11    1    4    4    0    0  0.23304829564E+02 -0.16863922749E+02 -0.14758912188E+03  0.15036640539E+03  0.00000000000E+00 0. -1.
<mgrwt>
<rscale>  0 0.18434726E+03</rscale>
<asrwt>0</asrwt>
<pdfrwt beam="2">  1        1 0.10981943E+00 0.18884930E+03</pdfrwt>
<pdfrwt beam="1">  1       -1 0.12722336E-01 0.18884930E+03</pdfrwt>
<totfact> 0.11444225E+03</totfact>
</mgrwt>
</event>
<event>
 8    1  0.8504141E-006  0.1443034E+03  0.7546771E-02  0.1212250E+00
         -2   -1    0    0    0  501 -0.00000000000E+00  0.00000000000E+00  0.40774662525E+02  0.40774662525E+02  0.00000000000E+00 0.  1.
          2   -1    0    0  501    0  0.00000000000E+00 -0.00000000000E+00 -0.48821713067E+03  0.48821713067E+03  0.00000000000E+00 0. -1.
         23    2    1    2    0    0  0.41473558409E+02 -0.59042963926E+02 -0.17538130446E+03  0.22711688436E+03  0.12496939453E+03 0.  0.
         23    2    1    2    0    0 -0.41473558409E+02  0.59042963926E+02 -0.27206116368E+03  0.30187490883E+03  0.10911029358E+03 0.  0.
          5    1    3    3  502    0  0.54993595485E+02 -0.11200120299E+02 -0.13786675783E+02  0.57981899488E+02  0.47000000000E+01 0. -1.
         -5    1    3    3    0  502 -0.13520037076E+02 -0.47842843626E+02 -0.16159462868E+03  0.16913498487E+03  0.47000000000E+01 0. -1.
        -11    1    4    4    0    0 -0.57766243462E+02  0.61551588864E+02 -0.27261109595E+03  0.28538105510E+03  0.00000000000E+00 0. -1.
         11    1    4    4    0    0  0.16292685053E+02 -0.25086249380E+01  0.54993227718E+00  0.16493853728E+02  0.00000000000E+00 0.  1.
<mgrwt>
<rscale>  0 0.14080481E+03</rscale>
<asrwt>0</asrwt>
<pdfrwt beam="2">  1        2 0.75110333E-01 0.14430342E+03</pdfrwt>
<pdfrwt beam="1">  1       -2 0.62730246E-02 0.14430342E+03</pdfrwt>
<totfact> 0.84693337E+03</totfact>
</mgrwt>
</event>
<event>
 8    1  0.8504141E-006  0.1194692E+03  0.7546771E-02  0.1251335E+00
         -1   -1    0    0    0  501 -0.00000000000E+00  0.00000000000E+00  0.54768073688E+03  0.54768073688E+03  0.00000000000E+00 0.  1.
          1   -1    0    0  501    0  0.00000000000E+00 -0.00000000000E+00 -0.22660735739E+02  0.22660735739E+02  0.00000000000E+00 0. -1.
         23    2    1    2    0    0 -0.23737808772E+02  0.34474217956E+02  0.29564742757E+03  0.31887345722E+03  0.11189693930E+03 0.  0.
         23    2    1    2    0    0  0.23737808772E+02 -0.34474217956E+02  0.22937257357E+03  0.25146801540E+03  0.94193577232E+02 0.  0.
          5    1    3    3  502    0  0.17182255349E+02  0.45038282637E+02  0.25663856249E+03  0.26116875495E+03  0.47000000000E+01 0. -1.
         -5    1    3    3    0  502 -0.40920064121E+02 -0.10564064681E+02  0.39008865076E+02  0.57704702276E+02  0.47000000000E+01 0.  1.
        -11    1    4    4    0    0 -0.44634049970E+01  0.30953194903E+02  0.58440395040E+02  0.66281988740E+02  0.00000000000E+00 0. -1.
         11    1    4    4    0    0  0.28201213769E+02 -0.65427412859E+02  0.17093217853E+03  0.18518602666E+03  0.00000000000E+00 0.  1.
<mgrwt>
<rscale>  0 0.11514096E+03</rscale>
<asrwt>0</asrwt>
<pdfrwt beam="2">  1        1 0.34862674E-02 0.11946916E+03</pdfrwt>
<pdfrwt beam="1">  1       -1 0.84258565E-01 0.11946916E+03</pdfrwt>
<totfact> 0.38370664E+03</totfact>
</mgrwt>
</event>
<event>
 8    1  0.8504141E-006  0.3000548E+03  0.7546771E-02  0.1086836E+00
         -3   -1    0    0    0  501 -0.00000000000E+00  0.00000000000E+00  0.27936828717E+04  0.27936828717E+04  0.00000000000E+00 0.  1.
          3   -1    0    0  501    0  0.00000000000E+00 -0.00000000000E+00 -0.30898346981E+02  0.30898346981E+02  0.00000000000E+00 0. -1.
         23    2    1    2    0    0 -0.14045647256E+03 -0.23383881762E+03  0.14467129821E+04  0.14775017221E+04  0.12499709150E+03 0.  0.
         23    2    1    2    0    0  0.14045647256E+03  0.23383881762E+03  0.13160715427E+04  0.13470794966E+04  0.90389443783E+02 0.  0.
          5    1    3    3  502    0 -0.82778404325E+02 -0.22709952150E+03  0.11569982525E+04  0.11819870994E+04  0.47000000000E+01 0. -1.
         -5    1    3    3    0  502 -0.57678068234E+02 -0.67392961173E+01  0.28971472957E+03  0.29551462264E+03  0.47000000000E+01 0. -1.
        -11    1    4    4    0    0  0.59584342772E+02  0.18000667046E+03  0.91061060488E+03  0.93014212303E+03  0.00000000000E+00 0.  1.
         11    1    4    4    0    0  0.80872129787E+02  0.53832147155E+02  0.40546093778E+03  0.41693737361E+03  0.00000000000E+00 0. -1.
<mgrwt>
<rscale>  0 0.29683086E+03</rscale>
<asrwt>0</asrwt>
<pdfrwt beam="2">  1        3 0.47535940E-02 0.30005481E+03</pdfrwt>
<pdfrwt beam="1">  1       -3 0.42979717E+00 0.30005481E+03</pdfrwt>
<totfact> 0.54829044E+00</totfact>
</mgrwt>
</event>
<event>
 8    1  0.8504141E-006  0.1848845E+03  0.7546771E-02  0.1168380E+00
          1   -1    0    0  501    0  0.00000000000E+00  0.00000000000E+00  0.77854744987E+02  0.77854744987E+02  0.00000000000E+00 0. -1.
         -1   -1    0    0    0  501 -0.00000000000E+00 -0.00000000000E+00 -0.46623357014E+03  0.46623357014E+03  0.00000000000E+00 0.  1.
         23    2    1    2    0    0 -0.12639654164E+03 -0.50809999327E+02 -0.31331254819E+03  0.36379532820E+03  0.12499818476E+03 0.  0.
         23    2    1    2    0    0  0.12639654164E+03  0.50809999327E+02 -0.75066276963E+02  0.18029298693E+03  0.91174960535E+02 0.  0.
          5    1    3    3  502    0 -0.39625037299E+00  0.14045528070E+02 -0.13579940066E+03  0.13660527477E+03  0.47000000000E+01 0. -1.
         -5    1    3    3    0  502 -0.12600029127E+03 -0.64855527397E+02 -0.17751314753E+03  0.22719005343E+03  0.47000000000E+01 0. -1.
        -11    1    4    4    0    0  0.51915900491E+02  0.28856457822E+02 -0.83192618423E+02  0.10222019195E+03  0.00000000000E+00 0.  1.
         11    1    4    4    0    0  0.74480641149E+02  0.21953541505E+02  0.81263414610E+01  0.78072794981E+02  0.00000000000E+00 0. -1.
<mgrwt>
<rscale>  0 0.17940524E+03</rscale>
<asrwt>0</asrwt>
<pdfrwt beam="1">  1        1 0.11977653E-01 0.18488453E+03</pdfrwt>
<pdfrwt beam="2">  1       -1 0.71728240E-01 0.18488453E+03</pdfrwt>
<totfact> 0.10193517E+03</totfact>
</mgrwt>
</event>
<event>
 8    1  0.8504141E-006  0.1255902E+03  0.7546771E-02  0.1243407E+00
          1   -1    0    0  501    0  0.00000000000E+00  0.00000000000E+00  0.75106366597E+02  0.75106366597E+02  0.00000000000E+00 0. -1.
         -1   -1    0    0    0  501 -0.00000000000E+00 -0.00000000000E+00 -0.18072522981E+03  0.18072522981E+03  0.00000000000E+00 0.  1.
         23    2    1    2    0    0  0.79169576374E+01 -0.92254437998E+01 -0.79292674084E+02  0.14852681448E+03  0.12500039770E+03 0.  0.
         23    2    1    2    0    0 -0.79169576374E+01  0.92254437998E+01 -0.26326189132E+02  0.10730478193E+03  0.10331244339E+03 0.  0.
          5    1    3    3  502    0  0.66216522825E+02 -0.57422793129E+01 -0.36516509047E+02  0.75981228601E+02  0.47000000000E+01 0. -1.
         -5    1    3    3    0  502 -0.58299565187E+02 -0.34831644869E+01 -0.42776165037E+02  0.72545585883E+02  0.47000000000E+01 0. -1.
        -11    1    4    4    0    0 -0.16589720555E+01 -0.13814753774E+02  0.37052212540E+02  0.39578606143E+02  0.00000000000E+00 0. -1.
         11    1    4    4    0    0 -0.62579855818E+01  0.23040197574E+02 -0.63378401672E+02  0.67726175784E+02  0.00000000000E+00 0.  1.
<mgrwt>
<rscale>  0 0.11981229E+03</rscale>
<asrwt>0</asrwt>
<pdfrwt beam="1">  1        1 0.11554826E-01 0.12559015E+03</pdfrwt>
<pdfrwt beam="2">  1       -1 0.27803881E-01 0.12559015E+03</pdfrwt>
<totfact> 0.58074265E+03</totfact>
</mgrwt>
</event>
<event>
 8    1  0.8504141E-006  0.1795870E+03  0.7546771E-02  0.1174008E+00
          1   -1    0    0  501    0  0.00000000000E+00  0.00000000000E+00  0.89618779942E+03  0.89618779942E+03  0.00000000000E+00 0. -1.
         -1   -1    0    0    0  501 -0.00000000000E+00 -0.00000000000E+00 -0.38063193936E+02  0.38063193936E+02  0.00000000000E+00 0.  1.
         23    2    1    2    0    0 -0.11892364853E+03 -0.49595306184E+02  0.26142064569E+03  0.31716280566E+03  0.12509581420E+03 0.  0.
         23    2    1    2    0    0  0.11892364853E+03  0.49595306184E+02  0.59670395979E+03  0.61708818769E+03  0.90220214912E+02 0.  0.
          5    1    3    3  502    0 -0.74701692535E+02 -0.91532154886E+02  0.17969664744E+03  0.21510800391E+03  0.47000000000E+01 0. -1.
         -5    1    3    3    0  502 -0.44221955992E+02  0.41936848702E+02  0.81723998244E+02  0.10205480175E+03  0.47000000000E+01 0. -1.
        -11    1    4    4    0    0  0.12800493726E+03  0.33845260590E+02  0.56706623726E+03  0.58231854090E+03  0.00000000000E+00 0. -1.
         11    1    4    4    0    0 -0.90812887365E+01  0.15750045594E+02  0.29637722529E+02  0.34769646792E+02  0.00000000000E+00 0.  1.
<mgrwt>
<rscale>  0 0.17373447E+03</rscale>
<asrwt>0</asrwt>
<pdfrwt beam="1">  1        1 0.13787503E+00 0.17958700E+03</pdfrwt>
<pdfrwt beam="2">  1       -1 0.58558767E-02 0.17958700E+03</pdfrwt>
<totfact> 0.26431791E+03</totfact>
</mgrwt>
</event>
<event>
 8    1  0.8504141E-006  0.2013039E+03  0.7546771E-02  0.1152900E+00
          1   -1    0    0  501    0  0.00000000000E+00  0.00000000000E+00  0.69364163591E+03  0.69364163591E+03  0.00000000000E+00 0. -1.
         -1   -1    0    0    0  501 -0.00000000000E+00 -0.00000000000E+00 -0.61959138921E+02  0.61959138921E+02  0.00000000000E+00 0.  1.
         23    2    1    2    0    0 -0.73158609229E+02 -0.13980764258E+03  0.18558131450E+03  0.27379499356E+03  0.12499966073E+03 0.  0.
         23    2    1    2    0    0  0.73158609229E+02  0.13980764258E+03  0.44610118249E+03  0.48180578127E+03  0.90731399292E+02 0.  0.
          5    1    3    3  502    0  0.44853995545E+01  0.15094596118E+02  0.53225138003E+02  0.55704317216E+02  0.47000000000E+01 0. -1.
         -5    1    3    3    0  502 -0.77644008784E+02 -0.15490223869E+03  0.13235617649E+03  0.21809067634E+03  0.47000000000E+01 0. -1.
        -11    1    4    4    0    0 -0.13760862664E+02  0.50671409984E+02  0.18881735664E+03  0.19598200759E+03  0.00000000000E+00 0. -1.
         11    1    4    4    0    0  0.86919471893E+02  0.89136232591E+02  0.25728382585E+03  0.28582377368E+03  0.00000000000E+00 0.  1.
<mgrwt>
<rscale>  0 0.19629886E+03</rscale>
<asrwt>0</asrwt>
<pdfrwt beam="1">  1        1 0.10671409E+00 0.20130393E+03</pdfrwt>
<pdfrwt beam="2">  1       -1 0.95321757E-02 0.20130393E+03</pdfrwt>
<totfact> 0.18668715E+03</totfact>
</mgrwt>
</event>
<event>
 8    1  0.8504141E-006  0.1369852E+03  0.7546771E-02  0.1229573E+00
          1   -1    0    0  501    0  0.00000000000E+00  0.00000000000E+00  0.18226714251E+03  0.18226714251E+03  0.00000000000E+00 0. -1.
         -1   -1    0    0    0  501 -0.00000000000E+00 -0.00000000000E+00 -0.17056001181E+03  0.17056001181E+03  0.00000000000E+00 0.  1.
         23    2    1    2    0    0  0.51337521931E+02 -0.22471794958E+02 -0.12099579498E+03  0.18277015651E+03  0.12499769990E+03 0.  0.
         23    2    1    2    0    0 -0.51337521931E+02  0.22471794958E+02  0.13270292568E+03  0.17005699781E+03  0.90381376923E+02 0.  0.
          5    1    3    3  502    0  0.89671362536E+02 -0.30941887752E+02 -0.10033862603E+03  0.13816035448E+03  0.47000000000E+01 0.  1.
         -5    1    3    3    0  502 -0.38333840605E+02  0.84700927939E+01 -0.20657168948E+02  0.44609802022E+02  0.47000000000E+01 0.  1.
        -11    1    4    4    0    0 -0.21977650124E+02  0.21888698896E+02  0.13692050031E+03  0.14039001264E+03  0.00000000000E+00 0. -1.
         11    1    4    4    0    0 -0.29359871806E+02  0.58309606145E+00 -0.42175746279E+01  0.29666985173E+02  0.00000000000E+00 0.  1.
<mgrwt>
<rscale>  0 0.12858337E+03</rscale>
<asrwt>0</asrwt>
<pdfrwt beam="1">  1        1 0.28041099E-01 0.13698521E+03</pdfrwt>
<pdfrwt beam="2">  1       -1 0.26240002E-01 0.13698521E+03</pdfrwt>
<totfact> 0.20667356E+03</totfact>
</mgrwt>
</event>
<event>
 8    1  0.8504141E-006  0.1356315E+03  0.7546771E-02  0.1231103E+00
         -1   -1    0    0    0  501 -0.00000000000E+00  0.00000000000E+00  0.20762238851E+02  0.20762238851E+02  0.00000000000E+00 0.  1.
          1   -1    0    0  501    0  0.00000000000E+00 -0.00000000000E+00 -0.73918285509E+03  0.73918285509E+03  0.00000000000E+00 0. -1.
         23    2    1    2    0    0 -0.31029149061E+02  0.42536300837E+02 -0.31853353242E+03  0.34620731145E+03  0.12499498487E+03 0.  0.
         23    2    1    2    0    0  0.31029149061E+02 -0.42536300837E+02 -0.39988708382E+03  0.41373778250E+03  0.92179866991E+02 0.  0.
          5    1    3    3  502    0  0.24693942182E+02  0.25627180508E+02 -0.26354175308E+03  0.26597535371E+03  0.47000000000E+01 0. -1.
         -5    1    3    3    0  502 -0.55723091244E+02  0.16909120330E+02 -0.54991779338E+02  0.80231957741E+02  0.47000000000E+01 0. -1.
        -11    1    4    4    0    0  0.67273875359E+01  0.27719859954E+02 -0.70215411811E+02  0.75788207755E+02  0.00000000000E+00 0.  1.
         11    1    4    4    0    0  0.24301761525E+02 -0.70256160792E+02 -0.32967167201E+03  0.33794957474E+03  0.00000000000E+00 0. -1.
<mgrwt>
<rscale>  0 0.12757257E+03</rscale>
<asrwt>0</asrwt>
<pdfrwt beam="2">  1        1 0.11372043E+00 0.13563145E+03</pdfrwt>
<pdfrwt beam="1">  1       -1 0.31941907E-02 0.13563145E+03</pdfrwt>
<totfact> 0.85906832E+03</totfact>
</mgrwt>
</event>
<event>
 8    1  0.8504141E-006  0.1649142E+03  0.7546771E-02  0.1190080E+00
          2   -1    0    0  501    0  0.00000000000E+00  0.00000000000E+00  0.72405553892E+03  0.72405553892E+03  0.00000000000E+00 0. -1.
         -2   -1    0    0    0  501 -0.00000000000E+00 -0.00000000000E+00 -0.41093865765E+02  0.41093865765E+02  0.00000000000E+00 0.  1.
         23    2    1    2    0    0  0.90566512348E+02  0.58031275303E+02  0.18696293100E+03  0.24930266028E+03  0.12500702693E+03 0.  0.
         23    2    1    2    0    0 -0.90566512348E+02 -0.58031275303E+02  0.49599874215E+03  0.51584674440E+03  0.92266946540E+02 0.  0.
          5    1    3    3  502    0  0.40410702704E+02  0.46633673577E+02  0.18771012212E+03  0.19764843624E+03  0.47000000000E+01 0. -1.
         -5    1    3    3    0  502  0.50155809645E+02  0.11397601725E+02 -0.74719111511E+00  0.51654224036E+02  0.47000000000E+01 0. -1.
        -11    1    4    4    0    0 -0.93145443232E+02 -0.10961307281E+02  0.30356141164E+03  0.31771961615E+03  0.00000000000E+00 0.  1.
         11    1    4    4    0    0  0.25789308837E+01 -0.47069968021E+02  0.19243733051E+03  0.19812712825E+03  0.00000000000E+00 0. -1.
<mgrwt>
<rscale>  0 0.15878056E+03</rscale>
<asrwt>0</asrwt>
<pdfrwt beam="1">  1        2 0.11139315E+00 0.16491416E+03</pdfrwt>
<pdfrwt beam="2">  1       -2 0.63221337E-02 0.16491416E+03</pdfrwt>
<totfact> 0.53675385E+03</totfact>
</mgrwt>
</event>
<event>
 8    1  0.8504141E-006  0.1451133E+03  0.7546771E-02  0.1216725E+00
         -1   -1    0    0    0  501 -0.00000000000E+00  0.00000000000E+00  0.59270286032E+02  0.59270286032E+02  0.00000000000E+00 0.  1.
          1   -1    0    0  501    0  0.00000000000E+00 -0.00000000000E+00 -0.29567829906E+03  0.29567829906E+03  0.00000000000E+00 0. -1.
         23    2    1    2    0    0 -0.62629785069E+02 -0.38901452225E+02 -0.10569740068E+03  0.17952664066E+03  0.12498824438E+03 0.  0.
         23    2    1    2    0    0  0.62629785069E+02  0.38901452225E+02 -0.13071061235E+03  0.17542194443E+03  0.90839316617E+02 0.  0.
          5    1    3    3  502    0 -0.52162657339E+02  0.34868139810E+01 -0.12189873437E+03  0.13271959965E+03  0.47000000000E+01 0. -1.
         -5    1    3    3    0  502 -0.10467127730E+02 -0.42388266206E+02  0.16201333685E+02  0.46807041009E+02  0.47000000000E+01 0. -1.
        -11    1    4    4    0    0  0.25156634323E+02  0.59084376500E+02 -0.41172482800E+02  0.76282325193E+02  0.00000000000E+00 0.  1.
         11    1    4    4    0    0  0.37473150746E+02 -0.20182924276E+02 -0.89538129546E+02  0.99139619233E+02  0.00000000000E+00 0. -1.
<mgrwt>
<rscale>  0 0.13750590E+03</rscale>
<asrwt>0</asrwt>
<pdfrwt beam="2">  1        1 0.45488968E-01 0.14511332E+03</pdfrwt>
<pdfrwt beam="1">  1       -1 0.91185057E-02 0.14511332E+03</pdfrwt>
<totfact> 0.60222389E+03</totfact>
</mgrwt>
</event>
<event>
 8    1  0.8504141E-006  0.1411841E+03  0.7546771E-02  0.1222754E+00
         -1   -1    0    0    0  501 -0.00000000000E+00  0.00000000000E+00  0.85909776391E+02  0.85909776391E+02  0.00000000000E+00 0.  1.
          1   -1    0    0  501    0  0.00000000000E+00 -0.00000000000E+00 -0.19806048983E+03  0.19806048983E+03  0.00000000000E+00 0. -1.
         23    2    1    2    0    0  0.51529750784E+02  0.40462046030E+02 -0.96371913944E+02  0.17094005540E+03  0.12506184214E+03 0.  0.
         23    2    1    2    0    0 -0.51529750784E+02 -0.40462046030E+02 -0.15778799497E+02  0.11303021082E+03  0.90743405601E+02 0.  0.
          5    1    3    3  502    0 -0.71583578294E+01  0.64582761141E+02 -0.13621209369E+02  0.66556761250E+02  0.47000000000E+01 0.  1.
         -5    1    3    3    0  502  0.58688108614E+02 -0.24120715112E+02 -0.82750704575E+02  0.10438329415E+03  0.47000000000E+01 0.  1.
        -11    1    4    4    0    0 -0.52154399349E+02 -0.20136447789E+02 -0.48826937218E+02  0.74226866424E+02  0.00000000000E+00 0. -1.
         11    1    4    4    0    0  0.62464856475E+00 -0.20325598241E+02  0.33048137721E+02  0.38803344398E+02  0.00000000000E+00 0.  1.
<mgrwt>
<rscale>  0 0.13322007E+03</rscale>
<asrwt>0</asrwt>
<pdfrwt beam="2">  1        1 0.30470845E-01 0.14118412E+03</pdfrwt>
<pdfrwt beam="1">  1       -1 0.13216889E-01 0.14118412E+03</pdfrwt>
<totfact> 0.55851825E+03</totfact>
</mgrwt>
</event>
<event>
 8    1  0.8504141E-006  0.2591918E+03  0.7546771E-02  0.1110011E+00
          2   -1    0    0  501    0  0.00000000000E+00  0.00000000000E+00  0.49318403267E+03  0.49318403267E+03  0.00000000000E+00 0. -1.
         -2   -1    0    0    0  501 -0.00000000000E+00 -0.00000000000E+00 -0.24839953847E+03  0.24839953847E+03  0.00000000000E+00 0.  1.
         23    2    1    2    0    0  0.89024805840E+02 -0.20887553339E+03 -0.13344728531E+03  0.29152799005E+03  0.12500394601E+03 0.  0.
         23    2    1    2    0    0 -0.89024805840E+02  0.20887553339E+03  0.37823177951E+03  0.45005558109E+03  0.89086152340E+02 0.  0.
          5    1    3    3  502    0  0.98127310018E+02 -0.17392332517E+03 -0.15166446930E+03  0.25080369466E+03  0.47000000000E+01 0. -1.
         -5    1    3    3    0  502 -0.91025041776E+01 -0.34952208225E+02  0.18217183986E+02  0.40724295384E+02  0.47000000000E+01 0. -1.
        -11    1    4    4    0    0 -0.24952608696E+02  0.16260946420E+03  0.24378558450E+03  0.29410182205E+03  0.00000000000E+00 0.  1.
         11    1    4    4    0    0 -0.64072197144E+02  0.46266069198E+02  0.13444619501E+03  0.15595375904E+03  0.00000000000E+00 0. -1.
<mgrwt>
<rscale>  0 0.25528314E+03</rscale>
<asrwt>0</asrwt>
<pdfrwt beam="1">  1        2 0.75874466E-01 0.25919180E+03</pdfrwt>
<pdfrwt beam="2">  1       -2 0.38215314E-01 0.25919180E+03</pdfrwt>
<totfact> 0.41390830E+02</totfact>
</mgrwt>
</event>
<event>
 8    1  0.8504141E-006  0.1264422E+03  0.7546771E-02  0.1247798E+00
          1   -1    0    0  501    0  0.00000000000E+00  0.00000000000E+00  0.27887456505E+02  0.27887456505E+02  0.00000000000E+00 0. -1.
         -1   -1    0    0    0  501 -0.00000000000E+00 -0.00000000000E+00 -0.45820427591E+03  0.45820427591E+03  0.00000000000E+00 0.  1.
         23    2    1    2    0    0  0.17571107758E+02 -0.73907541826E+01 -0.30226124154E+03  0.32764230676E+03  0.12499702385E+03 0.  0.
         23    2    1    2    0    0 -0.17571107758E+02  0.73907541826E+01 -0.12805557787E+03  0.15844942565E+03  0.91348904708E+02 0.  0.
          5    1    3    3  502    0  0.95498073809E+01 -0.42541263994E+02 -0.28322776001E+03  0.28660253314E+03  0.47000000000E+01 0.  1.
         -5    1    3    3    0  502  0.80213003771E+01  0.35150509811E+02 -0.19033481526E+02  0.41039773619E+02  0.47000000000E+01 0.  1.
        -11    1    4    4    0    0  0.30334586580E+02  0.50911427893E+01 -0.95886409557E+02  0.10069910832E+03  0.00000000000E+00 0.  1.
         11    1    4    4    0    0 -0.47905694338E+02  0.22996113934E+01 -0.32169168309E+02  0.57750317335E+02  0.00000000000E+00 0. -1.
<mgrwt>
<rscale>  0 0.11719490E+03</rscale>
<asrwt>0</asrwt>
<pdfrwt beam="1">  1        1 0.42903778E-02 0.12644217E+03</pdfrwt>
<pdfrwt beam="2">  1       -1 0.70492967E-01 0.12644217E+03</pdfrwt>
<totfact> 0.41536626E+03</totfact>
</mgrwt>
</event>
<event>
 8    1  0.8504141E-006  0.1286871E+03  0.7546771E-02  0.1242396E+00
          2   -1    0    0  501    0  0.00000000000E+00  0.00000000000E+00  0.45361633193E+03  0.45361633193E+03  0.00000000000E+00 0. -1.
         -2   -1    0    0    0  501 -0.00000000000E+00 -0.00000000000E+00 -0.29853106926E+02  0.29853106926E+02  0.00000000000E+00 0.  1.
         23    2    1    2    0    0 -0.29765477327E+02  0.73182884055E+01  0.18740477062E+03  0.22733434695E+03  0.12498326396E+03 0.  0.
         23    2    1    2    0    0  0.29765477327E+02 -0.73182884055E+01  0.23635845439E+03  0.25613509190E+03  0.93810049343E+02 0.  0.
          5    1    3    3  502    0 -0.27629791074E+02 -0.42497919820E+02  0.23726289006E+02  0.56164983164E+02  0.47000000000E+01 0. -1.
         -5    1    3    3    0  502 -0.21356862529E+01  0.49816208225E+02  0.16367848161E+03  0.17116936379E+03  0.47000000000E+01 0. -1.
        -11    1    4    4    0    0  0.25947377467E+02 -0.46088365493E+02  0.87319794091E+02  0.10208893315E+03  0.00000000000E+00 0.  1.
         11    1    4    4    0    0  0.38180998599E+01  0.38770077088E+02  0.14903866030E+03  0.15404615876E+03  0.00000000000E+00 0. -1.
<mgrwt>
<rscale>  0 0.12042600E+03</rscale>
<asrwt>0</asrwt>
<pdfrwt beam="1">  1        2 0.69787123E-01 0.12868705E+03</pdfrwt>
<pdfrwt beam="2">  1       -2 0.45927860E-02 0.12868705E+03</pdfrwt>
<totfact> 0.14558234E+04</totfact>
</mgrwt>
</event>
<event>
 8    1  0.8504141E-006  0.2348631E+03  0.7546771E-02  0.1126171E+00
         -2   -1    0    0    0  501 -0.00000000000E+00  0.00000000000E+00  0.20405966515E+03  0.20405966515E+03  0.00000000000E+00 0.  1.
          2   -1    0    0  501    0  0.00000000000E+00 -0.00000000000E+00 -0.26809871656E+03  0.26809871656E+03  0.00000000000E+00 0. -1.
         23    2    1    2    0    0  0.19228265819E+03  0.50639587349E+02  0.24998389437E+02  0.23618971700E+03  0.12499469786E+03 0.  0.
         23    2    1    2    0    0 -0.19228265819E+03 -0.50639587349E+02 -0.89037440848E+02  0.23596866471E+03  0.90645222729E+02 0.  0.
          5    1    3    3  502    0  0.16618033404E+03  0.71000826278E+01  0.57124032848E+02  0.17593055369E+03  0.47000000000E+01 0.  1.
         -5    1    3    3    0  502  0.26102324155E+02  0.43539504722E+02 -0.32125643411E+02  0.60259163305E+02  0.47000000000E+01 0.  1.
        -11    1    4    4    0    0 -0.31553506762E+01 -0.22136757841E+02 -0.26649239198E+02  0.34787558630E+02  0.00000000000E+00 0. -1.
         11    1    4    4    0    0 -0.18912730752E+03 -0.28502829509E+02 -0.62388201650E+02  0.20118110608E+03  0.00000000000E+00 0.  1.
<mgrwt>
<rscale>  0 0.23066768E+03</rscale>
<asrwt>0</asrwt>
<pdfrwt beam="2">  1        2 0.41245956E-01 0.23486307E+03</pdfrwt>
<pdfrwt beam="1">  1       -2 0.31393795E-01 0.23486307E+03</pdfrwt>
<totfact> 0.11601659E+03</totfact>
</mgrwt>
</event>
<event>
 8    1  0.8504141E-006  0.1869088E+03  0.7546771E-02  0.1166576E+00
         -2   -1    0    0    0  501 -0.00000000000E+00  0.00000000000E+00  0.18926421073E+02  0.18926421073E+02  0.00000000000E+00 0.  1.
          2   -1    0    0  501    0  0.00000000000E+00 -0.00000000000E+00 -0.17028281636E+04  0.17028281636E+04  0.00000000000E+00 0. -1.
         23    2    1    2    0    0 -0.10706299209E+03  0.88591385132E+02 -0.10576095922E+04  0.10739985806E+04  0.12499593507E+03 0.  0.
         23    2    1    2    0    0  0.10706299209E+03 -0.88591385132E+02 -0.62629215035E+03  0.64775600411E+03  0.89638526770E+02 0.  0.
          5    1    3    3  502    0  0.21801600209E+02  0.35011097544E+02 -0.37231070082E+03  0.37461771803E+03  0.47000000000E+01 0.  1.
         -5    1    3    3    0  502 -0.12886459230E+03  0.53580287588E+02 -0.68529889137E+03  0.69938086254E+03  0.47000000000E+01 0.  1.
        -11    1    4    4    0    0  0.66661021552E+02 -0.14113731130E+02 -0.40699145372E+03  0.41265594943E+03  0.00000000000E+00 0. -1.
         11    1    4    4    0    0  0.40401970537E+02 -0.74477654002E+02 -0.21930069662E+03  0.23510005468E+03  0.00000000000E+00 0.  1.
<mgrwt>
<rscale>  0 0.18127337E+03</rscale>
<asrwt>0</asrwt>
<pdfrwt beam="2">  1        2 0.26197352E+00 0.18690881E+03</pdfrwt>
<pdfrwt beam="1">  1       -2 0.29117576E-02 0.18690881E+03</pdfrwt>
<totfact> 0.46931216E+03</totfact>
</mgrwt>
</event>
<event>
 8    1  0.8504141E-006  0.2115794E+03  0.7546771E-02  0.1143928E+00
         -1   -1    0    0    0  501 -0.00000000000E+00  0.00000000000E+00  0.79665885349E+03  0.79665885349E+03  0.00000000000E+00 0.  1.
          1   -1    0    0  501    0  0.00000000000E+00 -0.00000000000E+00 -0.54971148949E+02  0.54971148949E+02  0.00000000000E+00 0. -1.
         23    2    1    2    0    0 -0.68060063755E+02 -0.15655217496E+03  0.49091627076E+03  0.53456958215E+03  0.12500039002E+03 0.  0.
         23    2    1    2    0    0  0.68060063755E+02  0.15655217496E+03  0.25077143379E+03  0.31706042029E+03  0.92196758874E+02 0.  0.
          5    1    3    3  502    0  0.15989507735E+02 -0.73500076325E+02  0.94397446175E+02  0.12079277057E+03  0.47000000000E+01 0.  1.
         -5    1    3    3    0  502 -0.84049571490E+02 -0.83052098637E+02  0.39651882458E+03  0.41377681158E+03  0.47000000000E+01 0.  1.
        -11    1    4    4    0    0  0.24711501675E+02  0.10570909392E+03  0.21598632449E+03  0.24173366174E+03  0.00000000000E+00 0.  1.
         11    1    4    4    0    0  0.43348562080E+02  0.50843081046E+02  0.34785109295E+02  0.75326758548E+02  0.00000000000E+00 0. -1.
<mgrwt>
<rscale>  0 0.20704403E+03</rscale>
<asrwt>0</asrwt>
<pdfrwt beam="2">  1        1 0.84571004E-02 0.21157943E+03</pdfrwt>
<pdfrwt beam="1">  1       -1 0.12256289E+00 0.21157943E+03</pdfrwt>
<totfact> 0.50643425E+02</totfact>
</mgrwt>
</event>
<event>
 8    1  0.8504141E-006  0.1925530E+03  0.7546771E-02  0.1161032E+00
         -2   -1    0    0    0  501 -0.00000000000E+00  0.00000000000E+00  0.24513111682E+02  0.24513111682E+02  0.00000000000E+00 0.  1.
          2   -1    0    0  501    0  0.00000000000E+00 -0.00000000000E+00 -0.13579211263E+04  0.13579211263E+04  0.00000000000E+00 0. -1.
         23    2    1    2    0    0 -0.23665475733E+02 -0.14454155382E+03 -0.73687392361E+03  0.76161659206E+03  0.12499735391E+03 0.  0.
         23    2    1    2    0    0  0.23665475733E+02  0.14454155382E+03 -0.59653409104E+03  0.62081764595E+03  0.90051719775E+02 0.  0.
          5    1    3    3  502    0  0.20472757112E+02  0.11372950409E+02 -0.18155673545E+03  0.18312131490E+03  0.47000000000E+01 0.  1.
         -5    1    3    3    0  502 -0.44138232845E+02 -0.15591450422E+03 -0.55531718816E+03  0.57849527716E+03  0.47000000000E+01 0.  1.
        -11    1    4    4    0    0  0.51938898420E+02  0.68225134909E+02 -0.23277986688E+03  0.24807012038E+03  0.00000000000E+00 0.  1.
         11    1    4    4    0    0 -0.28273422686E+02  0.76316418907E+02 -0.36375422416E+03  0.37274752557E+03  0.00000000000E+00 0. -1.
<mgrwt>
<rscale>  0 0.18717754E+03</rscale>
<asrwt>0</asrwt>
<pdfrwt beam="2">  1        2 0.20891095E+00 0.19255299E+03</pdfrwt>
<pdfrwt beam="1">  1       -2 0.37712479E-02 0.19255299E+03</pdfrwt>
<totfact> 0.48602865E+03</totfact>
</mgrwt>
</event>
<event>
 8    1  0.8504141E-006  0.1296240E+03  0.7546771E-02  0.1242385E+00
          1   -1    0    0  501    0  0.00000000000E+00  0.00000000000E+00  0.30768999662E+03  0.30768999662E+03  0.00000000000E+00 0. -1.
         -1   -1    0    0    0  501 -0.00000000000E+00 -0.00000000000E+00 -0.42898030798E+02  0.42898030798E+02  0.00000000000E+00 0.  1.
         23    2    1    2    0    0  0.33420498578E+02 -0.78219893746E+01  0.12069734283E+03  0.17711646263E+03  0.12499711808E+03 0.  0.
         23    2    1    2    0    0 -0.33420498578E+02  0.78219893746E+01  0.14409462299E+03  0.17347156478E+03  0.90282945067E+02 0.  0.
          5    1    3    3  502    0  0.32000134233E+02 -0.23548879886E+02  0.14350662606E+03  0.14897919337E+03  0.47000000000E+01 0. -1.
         -5    1    3    3    0  502  0.14203643450E+01  0.15726890511E+02 -0.22809283231E+02  0.28137269262E+02  0.47000000000E+01 0. -1.
        -11    1    4    4    0    0 -0.41163276517E+02 -0.80761117939E+01  0.14926541147E+03  0.15504774096E+03  0.00000000000E+00 0. -1.
         11    1    4    4    0    0  0.77427779394E+01  0.15898101169E+02 -0.51707884736E+01  0.18423823827E+02  0.00000000000E+00 0.  1.
<mgrwt>
<rscale>  0 0.12043266E+03</rscale>
<asrwt>0</asrwt>
<pdfrwt beam="1">  1        1 0.47336921E-01 0.12962404E+03</pdfrwt>
<pdfrwt beam="2">  1       -1 0.65996972E-02 0.12962404E+03</pdfrwt>
<totfact> 0.92602997E+03</totfact>
</mgrwt>
</event>
<event>
 7    1  0.8504141E-006  0.2317865E+03  0.7546771E-02  0.1135110E+00
         -2   -1    0    0    0  501 -0.00000000000E+00  0.00000000000E+00  0.22545155197E+02  0.22545155197E+02  0.00000000000E+00 0.  1.
          2   -1    0    0  501    0  0.00000000000E+00 -0.00000000000E+00 -0.19259056006E+04  0.19259056006E+04  0.00000000000E+00 0. -1.
         23    2    1    2    0    0 -0.95370248129E+02  0.89600481834E+02 -0.94331677577E+03  0.96082287966E+03  0.12731981800E+03 0.  0.
          5    1    1    2  502    0  0.10535386640E+03  0.22355443286E+02 -0.62426822900E+03  0.63350778586E+03  0.47000000000E+01 0. -1.
         -5    1    1    2    0  502 -0.99836182757E+01 -0.11195592512E+03 -0.33577544064E+03  0.35412009028E+03  0.47000000000E+01 0.  1.
        -11    1    3    3    0    0 -0.81950852941E+02 -0.95642782675E+01 -0.42518103044E+03  0.43311237151E+03  0.00000000000E+00 0.  1.
         11    1    3    3    0    0 -0.13419395188E+02  0.99164760102E+02 -0.51813574533E+03  0.52771050815E+03  0.00000000000E+00 0. -1.
<mgrwt>
<rscale>  0 0.21836203E+03</rscale>
<asrwt>0</asrwt>
<pdfrwt beam="2">  1        2 0.29629326E+00 0.23178648E+03</pdfrwt>
<pdfrwt beam="1">  1       -2 0.34684844E-02 0.23178648E+03</pdfrwt>
<totfact> 0.27707023E+03</totfact>
</mgrwt>
</event>
<event>
 8    1  0.8504141E-006  0.2088863E+03  0.7546771E-02  0.1146262E+00
         -1   -1    0    0    0  501 -0.00000000000E+00  0.00000000000E+00  0.28710326490E+03  0.28710326490E+03  0.00000000000E+00 0.  1.
          1   -1    0    0  501    0  0.00000000000E+00 -0.00000000000E+00 -0.14951762009E+03  0.14951762009E+03  0.00000000000E+00 0. -1.
         23    2    1    2    0    0  0.43745331396E+02  0.16152730721E+03  0.13909222332E+02  0.20934886285E+03  0.12501501876E+03 0.  0.
         23    2    1    2    0    0 -0.43745331396E+02 -0.16152730721E+03  0.12367642248E+03  0.22727202214E+03  0.91389220239E+02 0.  0.
          5    1    3    3  502    0  0.73965691657E+01  0.15035211909E+03  0.47989855144E+02  0.15806829267E+03  0.47000000000E+01 0.  1.
         -5    1    3    3    0  502  0.36348762230E+02  0.11175188125E+02 -0.34080632812E+02  0.51280570182E+02  0.47000000000E+01 0.  1.
        -11    1    4    4    0    0 -0.70957781749E+02 -0.11112042124E+03  0.99120492239E+02  0.16494734550E+03  0.00000000000E+00 0.  1.
         11    1    4    4    0    0  0.27212450353E+02 -0.50406885977E+02  0.24555930241E+02  0.62324676639E+02  0.00000000000E+00 0. -1.
<mgrwt>
<rscale>  0 0.20417639E+03</rscale>
<asrwt>0</asrwt>
<pdfrwt beam="2">  1        1 0.23002711E-01 0.20888628E+03</pdfrwt>
<pdfrwt beam="1">  1       -1 0.44169733E-01 0.20888628E+03</pdfrwt>
<totfact> 0.10952299E+03</totfact>
</mgrwt>
</event>
<event>
 8    1  0.8504141E-006  0.1257391E+03  0.7546771E-02  0.1249048E+00
         -2   -1    0    0    0  501 -0.00000000000E+00  0.00000000000E+00  0.28192329599E+02  0.28192329599E+02  0.00000000000E+00 0.  1.
          2   -1    0    0  501    0  0.00000000000E+00 -0.00000000000E+00 -0.47120959890E+03  0.47120959890E+03  0.00000000000E+00 0. -1.
         23    2    1    2    0    0 -0.38466643126E+01  0.22744562940E+02 -0.17228451930E+03  0.21328916575E+03  0.12360501877E+03 0.  0.
         23    2    1    2    0    0  0.38466643126E+01 -0.22744562940E+02 -0.27073275000E+03  0.28611276275E+03  0.89622425308E+02 0.  0.
          5    1    3    3  502    0  0.50314071490E+02 -0.17169293205E+02 -0.10624947447E+03  0.11890050986E+03  0.47000000000E+01 0. -1.
         -5    1    3    3    0  502 -0.54160735802E+02  0.39913856145E+02 -0.66035044835E+02  0.94388655893E+02  0.47000000000E+01 0.  1.
        -11    1    4    4    0    0 -0.25010353889E+02  0.15798616243E+02 -0.36500489203E+02  0.46982973394E+02  0.00000000000E+00 0.  1.
         11    1    4    4    0    0  0.28857018202E+02 -0.38543179184E+02 -0.23423226079E+03  0.23912978936E+03  0.00000000000E+00 0. -1.
<mgrwt>
<rscale>  0 0.11646330E+03</rscale>
<asrwt>0</asrwt>
<pdfrwt beam="2">  1        2 0.72493777E-01 0.12573907E+03</pdfrwt>
<pdfrwt beam="1">  1       -2 0.43372819E-02 0.12573907E+03</pdfrwt>
<totfact> 0.15186003E+04</totfact>
</mgrwt>
</event>
<event>
 8    1  0.8504141E-006  0.1272404E+03  0.7546771E-02  0.1236752E+00
         -1   -1    0    0    0  501 -0.00000000000E+00  0.00000000000E+00  0.13475559288E+03  0.13475559288E+03  0.00000000000E+00 0.  1.
          1   -1    0    0  501    0  0.00000000000E+00 -0.00000000000E+00 -0.10842714800E+03  0.10842714800E+03  0.00000000000E+00 0. -1.
         23    2    1    2    0    0  0.34212249687E+02  0.52544845045E+02  0.14887067271E+02  0.12810828659E+03  0.11071887622E+03 0.  0.
         23    2    1    2    0    0 -0.34212249687E+02 -0.52544845045E+02  0.11441377606E+02  0.11507445429E+03  0.95811200494E+02 0.  0.
          5    1    3    3  502    0  0.29415847945E+02 -0.25657976292E+02 -0.17707162159E+02  0.43119107707E+02  0.47000000000E+01 0. -1.
         -5    1    3    3    0  502  0.47964017421E+01  0.78202821337E+02  0.32594229430E+02  0.84989178881E+02  0.47000000000E+01 0.  1.
        -11    1    4    4    0    0  0.66545125004E+01 -0.22705939317E+02  0.47414052682E+02  0.52989948185E+02  0.00000000000E+00 0.  1.
         11    1    4    4    0    0 -0.40866762188E+02 -0.29838905728E+02 -0.35972675076E+02  0.62084506109E+02  0.00000000000E+00 0. -1.
<mgrwt>
<rscale>  0 0.12392932E+03</rscale>
<asrwt>0</asrwt>
<pdfrwt beam="2">  1        1 0.16681100E-01 0.12724036E+03</pdfrwt>
<pdfrwt beam="1">  1       -1 0.20731630E-01 0.12724036E+03</pdfrwt>
<totfact> 0.58290850E+03</totfact>
</mgrwt>
</event>
<event>
 8    1  0.8504141E-006  0.1299676E+03  0.7546771E-02  0.1241426E+00
         -1   -1    0    0    0  501 -0.00000000000E+00  0.00000000000E+00  0.94949958538E+02  0.94949958538E+02  0.00000000000E+00 0.  1.
          1   -1    0    0  501    0  0.00000000000E+00 -0.00000000000E+00 -0.13778716003E+03  0.13778716003E+03  0.00000000000E+00 0. -1.
         23    2    1    2    0    0  0.15348365142E+02  0.32099081879E+02 -0.13190438030E+02  0.13063523154E+03  0.12500261075E+03 0.  0.
         23    2    1    2    0    0 -0.15348365142E+02 -0.32099081879E+02 -0.29646763458E+02  0.10210188702E+03  0.90994183217E+02 0.  0.
          5    1    3    3  502    0  0.32511967535E+02  0.47189254756E+02  0.41676573987E+02  0.71013242545E+02  0.47000000000E+01 0. -1.
         -5    1    3    3    0  502 -0.17163602393E+02 -0.15090172877E+02 -0.54867012017E+02  0.59621988999E+02  0.47000000000E+01 0. -1.
        -11    1    4    4    0    0  0.33904230636E+02  0.71568317762E+01 -0.12359607313E+02  0.36789631543E+02  0.00000000000E+00 0.  1.
         11    1    4    4    0    0 -0.49252595778E+02 -0.39255913656E+02 -0.17287156145E+02  0.65312255476E+02  0.00000000000E+00 0. -1.
<mgrwt>
<rscale>  0 0.12101891E+03</rscale>
<asrwt>0</asrwt>
<pdfrwt beam="2">  1        1 0.21198025E-01 0.12996760E+03</pdfrwt>
<pdfrwt beam="1">  1       -1 0.14607686E-01 0.12996760E+03</pdfrwt>
<totfact> 0.74909442E+03</totfact>
</mgrwt>
</event>
<event>
 8    1  0.8504141E-006  0.1541662E+03  0.7546771E-02  0.1204317E+00
         -1   -1    0    0    0  501 -0.00000000000E+00  0.00000000000E+00  0.96325818562E+02  0.96325818562E+02  0.00000000000E+00 0.  1.
          1   -1    0    0  501    0  0.00000000000E+00 -0.00000000000E+00 -0.21355792624E+03  0.21355792624E+03  0.00000000000E+00 0. -1.
         23    2    1    2    0    0 -0.32704140097E+02  0.84106759606E+02 -0.33850144511E+02  0.15783868269E+03  0.12499483861E+03 0.  0.
         23    2    1    2    0    0  0.32704140097E+02 -0.84106759606E+02 -0.83381963168E+02  0.15204506211E+03  0.89563616163E+02 0.  0.
          5    1    3    3  502    0 -0.15793837282E+02  0.66479200224E+02  0.40409645726E+02  0.79523322530E+02  0.47000000000E+01 0. -1.
         -5    1    3    3    0  502 -0.16910302814E+02  0.17627559382E+02 -0.74259790237E+02  0.78315360160E+02  0.47000000000E+01 0. -1.
        -11    1    4    4    0    0  0.21428421182E+02 -0.71170437440E+01 -0.69409087000E+02  0.72989388983E+02  0.00000000000E+00 0. -1.
         11    1    4    4    0    0  0.11275718914E+02 -0.76989715862E+02 -0.13972876168E+02  0.79055673129E+02  0.00000000000E+00 0.  1.
<mgrwt>
<rscale>  0 0.14691439E+03</rscale>
<asrwt>0</asrwt>
<pdfrwt beam="2">  1        1 0.32855065E-01 0.15416620E+03</pdfrwt>
<pdfrwt beam="1">  1       -1 0.14819357E-01 0.15416620E+03</pdfrwt>
<totfact> 0.42743143E+03</totfact>
</mgrwt>
</event>
<event>
 8    1  0.8504141E-006  0.1452237E+03  0.7546771E-02  0.1216404E+00
          2   -1    0    0  501    0  0.00000000000E+00  0.00000000000E+00  0.32281491540E+03  0.32281491540E+03  0.00000000000E+00 0. -1.
         -2   -1    0    0    0  501 -0.00000000000E+00 -0.00000000000E+00 -0.53627912211E+02  0.53627912211E+02  0.00000000000E+00 0.  1.
         23    2    1    2    0    0  0.67194097425E+02  0.30783953285E+02  0.15911460495E+03  0.21542369022E+03  0.12500884085E+03 0.  0.
         23    2    1    2    0    0 -0.67194097425E+02 -0.30783953285E+02  0.11007239824E+03  0.16101913739E+03  0.91370297387E+02 0.  0.
          5    1    3    3  502    0  0.70733462039E+02 -0.23737061272E+02  0.41147925708E+02  0.85334122834E+02  0.47000000000E+01 0.  1.
         -5    1    3    3    0  502 -0.35393646143E+01  0.54521014557E+02  0.11796667924E+03  0.13008956738E+03  0.47000000000E+01 0.  1.
        -11    1    4    4    0    0 -0.72800573776E+02 -0.21589071212E+01  0.35659830611E+02  0.81093821844E+02  0.00000000000E+00 0. -1.
         11    1    4    4    0    0  0.56064763514E+01 -0.28625046164E+02  0.74412567625E+02  0.79925315548E+02  0.00000000000E+00 0.  1.
<mgrwt>
<rscale>  0 0.13773904E+03</rscale>
<asrwt>0</asrwt>
<pdfrwt beam="1">  1        2 0.49663832E-01 0.14522365E+03</pdfrwt>
<pdfrwt beam="2">  1       -2 0.82504482E-02 0.14522365E+03</pdfrwt>
<totfact> 0.86735111E+03</totfact>
</mgrwt>
</event>
<event>
 7    1  0.8504141E-006  0.2593616E+03  0.7546771E-02  0.1121766E+00
         -1   -1    0    0    0  501 -0.00000000000E+00  0.00000000000E+00  0.50210821315E+03  0.50210821315E+03  0.00000000000E+00 0.  1.
          1   -1    0    0  501    0  0.00000000000E+00 -0.00000000000E+00 -0.27155739019E+03  0.27155739019E+03  0.00000000000E+00 0. -1.
         23    2    1    2    0    0 -0.73201876159E+02 -0.13789368884E+03 -0.20079739823E+03  0.27034687692E+03  0.91622347878E+02 0.  0.
          5    1    1    2  502    0 -0.22781614738E+02 -0.47921578843E+01 -0.12827736774E+02  0.26992731948E+02  0.47000000000E+01 0. -1.
         -5    1    1    2    0  502  0.95983490897E+02  0.14268584672E+03  0.44417595796E+03  0.47632599447E+03  0.47000000000E+01 0.  1.
        -11    1    3    3    0    0 -0.58596058966E+02 -0.12309611248E+03 -0.20769409048E+03  0.24844111225E+03  0.00000000000E+00 0. -1.
         11    1    3    3    0    0 -0.14605817192E+02 -0.14797576357E+02  0.68966922516E+01  0.21905764673E+02  0.00000000000E+00 0.  1.
<mgrwt>
<rscale>  0 0.23706108E+03</rscale>
<asrwt>0</asrwt>
<pdfrwt beam="2">  1        1 0.41778060E-01 0.25936162E+03</pdfrwt>
<pdfrwt beam="1">  1       -1 0.77247417E-01 0.25936162E+03</pdfrwt>
<totfact> 0.17610061E+02</totfact>
</mgrwt>
</event>
<event>
 8    1  0.8504141E-006  0.1874238E+03  0.7546771E-02  0.1165570E+00
         -1   -1    0    0    0  501 -0.00000000000E+00  0.00000000000E+00  0.25736010355E+03  0.25736010355E+03  0.00000000000E+00 0.  1.
          1   -1    0    0  501    0  0.00000000000E+00 -0.00000000000E+00 -0.13548925028E+03  0.13548925028E+03  0.00000000000E+00 0. -1.
         23    2    1    2    0    0 -0.12040618319E+03  0.70750804286E+02  0.12444668365E+03  0.22497702298E+03  0.12499743412E+03 0.  0.
         23    2    1    2    0    0  0.12040618319E+03 -0.70750804286E+02 -0.25758303855E+01  0.16787233085E+03  0.93119059831E+02 0.  0.
          5    1    3    3  502    0 -0.10611170245E+03  0.70612995139E+02  0.14902743514E+03  0.19615594536E+03  0.47000000000E+01 0. -1.
         -5    1    3    3    0  502 -0.14294480748E+02  0.13780914678E+00 -0.24580751483E+02  0.28821077612E+02  0.47000000000E+01 0. -1.
        -11    1    4    4    0    0  0.71401484018E+02  0.10217586733E+02 -0.10538813142E+02  0.72894702009E+02  0.00000000000E+00 0.  1.
         11    1    4    4    0    0  0.49004699177E+02 -0.80968391019E+02  0.79629827562E+01  0.94977628840E+02  0.00000000000E+00 0. -1.
<mgrwt>
<rscale>  0 0.18232682E+03</rscale>
<asrwt>0</asrwt>
<pdfrwt beam="2">  1        1 0.20844500E-01 0.18742381E+03</pdfrwt>
<pdfrwt beam="1">  1       -1 0.39593862E-01 0.18742381E+03</pdfrwt>
<totfact> 0.15061241E+03</totfact>
</mgrwt>
</event>
<event>
 7    1  0.8504141E-006  0.2111481E+03  0.7546771E-02  0.1175296E+00
          1   -1    0    0  501    0  0.00000000000E+00  0.00000000000E+00  0.42414071867E+02  0.42414071867E+02  0.00000000000E+00 0. -1.
         -1   -1    0    0    0  501 -0.00000000000E+00 -0.00000000000E+00 -0.55551836841E+03  0.55551836841E+03  0.00000000000E+00 0.  1.
         23    2    1    2    0    0  0.26003561160E+02 -0.33784692016E+01 -0.12889898422E+03  0.15952937945E+03  0.90261151811E+02 0.  0.
          5    1    1    2  502    0 -0.77604644389E+02 -0.79921000044E+02 -0.23065922918E+03  0.25619449074E+03  0.47000000000E+01 0. -1.
         -5    1    1    2    0  502  0.51601083229E+02  0.83299469245E+02 -0.15354608314E+03  0.18220857009E+03  0.47000000000E+01 0.  1.
        -11    1    3    3    0    0  0.31359530622E+02 -0.42362357381E+02 -0.89362478244E+02  0.10374797348E+03  0.00000000000E+00 0.  1.
         11    1    3    3    0    0 -0.53559694623E+01  0.38983888179E+02 -0.39536505976E+02  0.55781405964E+02  0.00000000000E+00 0. -1.
<mgrwt>
<rscale>  0 0.17247026E+03</rscale>
<asrwt>0</asrwt>
<pdfrwt beam="1">  1        1 0.65252418E-02 0.21114810E+03</pdfrwt>
<pdfrwt beam="2">  1       -1 0.85464364E-01 0.21114810E+03</pdfrwt>
<totfact> 0.16184439E+03</totfact>
</mgrwt>
</event>
<event>
 8    1  0.8504141E-006  0.2952325E+03  0.7546771E-02  0.1089243E+00
          1   -1    0    0  501    0  0.00000000000E+00  0.00000000000E+00  0.28853414633E+03  0.28853414633E+03  0.00000000000E+00 0. -1.
         -1   -1    0    0    0  501 -0.00000000000E+00 -0.00000000000E+00 -0.30136372795E+03  0.30136372795E+03  0.00000000000E+00 0.  1.
         23    2    1    2    0    0 -0.17476348758E+03 -0.20246869251E+03 -0.64528265660E+02  0.30220211123E+03  0.12500548358E+03 0.  0.
         23    2    1    2    0    0  0.17476348758E+03  0.20246869251E+03  0.51698684041E+02  0.28769576306E+03  0.92521619717E+02 0.  0.
          5    1    3    3  502    0 -0.11237900814E+03 -0.11193173881E+03  0.24613273069E+02  0.16057913574E+03  0.47000000000E+01 0.  1.
         -5    1    3    3    0  502 -0.62384479437E+02 -0.90536953692E+02 -0.89141538729E+02  0.14162297549E+03  0.47000000000E+01 0.  1.
        -11    1    4    4    0    0  0.14321979280E+03  0.18844297531E+03  0.72309001326E+02  0.24748991023E+03  0.00000000000E+00 0. -1.
         11    1    4    4    0    0  0.31543694777E+02  0.14025717199E+02 -0.20610317286E+02  0.40205852830E+02  0.00000000000E+00 0.  1.
<mgrwt>
<rscale>  0 0.29212890E+03</rscale>
<asrwt>0</asrwt>
<pdfrwt beam="1">  1        1 0.44389869E-01 0.29523248E+03</pdfrwt>
<pdfrwt beam="2">  1       -1 0.46363650E-01 0.29523248E+03</pdfrwt>
<totfact> 0.43679049E+02</totfact>
</mgrwt>
</event>
<event>
 8    1  0.8504141E-006  0.1825612E+03  0.7546771E-02  0.1172459E+00
          2   -1    0    0  501    0  0.00000000000E+00  0.00000000000E+00  0.10020089804E+04  0.10020089804E+04  0.00000000000E+00 0. -1.
         -2   -1    0    0    0  501 -0.00000000000E+00 -0.00000000000E+00 -0.28589129484E+02  0.28589129484E+02  0.00000000000E+00 0.  1.
         23    2    1    2    0    0  0.11507886142E+03  0.66801600915E+02  0.48988586161E+03  0.52279705479E+03  0.12499201920E+03 0.  0.
         23    2    1    2    0    0 -0.11507886142E+03 -0.66801600915E+02  0.48353398929E+03  0.50780105508E+03  0.79694381905E+02 0.  0.
          5    1    3    3  502    0  0.37106776558E+02  0.18093400727E+02  0.36653564358E+03  0.36888311432E+03  0.47000000000E+01 0.  1.
         -5    1    3    3    0  502  0.77972084862E+02  0.48708200188E+02  0.12335021803E+03  0.15391394047E+03  0.47000000000E+01 0.  1.
        -11    1    4    4    0    0 -0.26012771418E+02  0.16983839724E+02  0.13199507654E+03  0.13560167890E+03  0.00000000000E+00 0. -1.
         11    1    4    4    0    0 -0.89066090002E+02 -0.83785440639E+02  0.35153891275E+03  0.37219937618E+03  0.00000000000E+00 0.  1.
<mgrwt>
<rscale>  0 0.17527143E+03</rscale>
<asrwt>0</asrwt>
<pdfrwt beam="1">  1        2 0.15415520E+00 0.18256123E+03</pdfrwt>
<pdfrwt beam="2">  1       -2 0.43983284E-02 0.18256123E+03</pdfrwt>
<totfact> 0.61345535E+03</totfact>
</mgrwt>
</event>
<event>
 8    1  0.8504141E-006  0.1348710E+03  0.7546771E-02  0.1232280E+00
          2   -1    0    0  501    0  0.00000000000E+00  0.00000000000E+00  0.38188306818E+03  0.38188306818E+03  0.00000000000E+00 0. -1.
         -2   -1    0    0    0  501 -0.00000000000E+00 -0.00000000000E+00 -0.42410041081E+02  0.42410041081E+02  0.00000000000E+00 0.  1.
         23    2    1    2    0    0 -0.33865602676E+02  0.37563194547E+02  0.11872040334E+03  0.17967953123E+03  0.12502930515E+03 0.  0.
         23    2    1    2    0    0  0.33865602676E+02 -0.37563194547E+02  0.22075262375E+03  0.24461357802E+03  0.92445708552E+02 0.  0.
          5    1    3    3  502    0 -0.62348160735E+02  0.67061992829E+02  0.67263582363E+02  0.11371492225E+03  0.47000000000E+01 0.  1.
         -5    1    3    3    0  502  0.28482558059E+02 -0.29498798283E+02  0.51456820979E+02  0.65964608988E+02  0.47000000000E+01 0.  1.
        -11    1    4    4    0    0  0.56776798022E+02 -0.31489720297E+02  0.20758062562E+03  0.21749695035E+03  0.00000000000E+00 0. -1.
         11    1    4    4    0    0 -0.22911195346E+02 -0.60734742498E+01  0.13171998136E+02  0.27116627677E+02  0.00000000000E+00 0.  1.
<mgrwt>
<rscale>  0 0.12680150E+03</rscale>
<asrwt>0</asrwt>
<pdfrwt beam="1">  1        2 0.58751239E-01 0.13487105E+03</pdfrwt>
<pdfrwt beam="2">  1       -2 0.65246219E-02 0.13487105E+03</pdfrwt>
<totfact> 0.10349611E+04</totfact>
</mgrwt>
</event>
<event>
 8    1  0.8504141E-006  0.1469212E+03  0.7546771E-02  0.1214690E+00
         -1   -1    0    0    0  501 -0.00000000000E+00  0.00000000000E+00  0.12620325061E+04  0.12620325061E+04  0.00000000000E+00 0.  1.
          1   -1    0    0  501    0  0.00000000000E+00 -0.00000000000E+00 -0.43044520874E+02  0.43044520874E+02  0.00000000000E+00 0. -1.
         23    2    1    2    0    0 -0.56019402055E+02 -0.53140844030E+02  0.11673529325E+04  0.11765622442E+04  0.12499489088E+03 0.  0.
         23    2    1    2    0    0  0.56019402055E+02  0.53140844030E+02  0.51635052805E+02  0.12851478285E+03  0.88812994674E+02 0.  0.
          5    1    3    3  502    0 -0.79373264250E+02  0.68044492778E+01  0.53351303887E+03  0.53944848526E+03  0.47000000000E+01 0. -1.
         -5    1    3    3    0  502  0.23353862196E+02 -0.59945293308E+02  0.63383989359E+03  0.63711375890E+03  0.47000000000E+01 0. -1.
        -11    1    4    4    0    0  0.39125246465E+02 -0.65182521040E+01 -0.10191154470E+02  0.40952803944E+02  0.00000000000E+00 0. -1.
         11    1    4    4    0    0  0.16894155590E+02  0.59659096134E+02  0.61826207275E+02  0.87561978910E+02  0.00000000000E+00 0.  1.
<mgrwt>
<rscale>  0 0.13899338E+03</rscale>
<asrwt>0</asrwt>
<pdfrwt beam="2">  1        1 0.66222349E-02 0.14692122E+03</pdfrwt>
<pdfrwt beam="1">  1       -1 0.19415882E+00 0.14692122E+03</pdfrwt>
<totfact> 0.20806178E+02</totfact>
</mgrwt>
</event>
<event>
 8    1  0.8504141E-006  0.1521723E+03  0.7546771E-02  0.1207124E+00
          3   -1    0    0  501    0  0.00000000000E+00  0.00000000000E+00  0.15235750623E+03  0.15235750623E+03  0.00000000000E+00 0. -1.
         -3   -1    0    0    0  501 -0.00000000000E+00 -0.00000000000E+00 -0.14802504750E+03  0.14802504750E+03  0.00000000000E+00 0.  1.
         23    2    1    2    0    0  0.16375974392E+02 -0.85228169544E+02 -0.55900598938E+02  0.16211507529E+03  0.12499762899E+03 0.  0.
         23    2    1    2    0    0 -0.16375974392E+02  0.85228169544E+02  0.60233057665E+02  0.13826747843E+03  0.89206843547E+02 0.  0.
          5    1    3    3  502    0  0.10353547158E+02  0.29362132848E+02  0.53807202612E+01  0.31943276830E+02  0.47000000000E+01 0. -1.
         -5    1    3    3    0  502  0.60224272337E+01 -0.11459030239E+03 -0.61281319199E+02  0.13017179846E+03  0.47000000000E+01 0. -1.
        -11    1    4    4    0    0 -0.37230948580E+02  0.44219588798E+02 -0.54635902869E+01  0.58063468588E+02  0.00000000000E+00 0.  1.
         11    1    4    4    0    0  0.20854974188E+02  0.41008580746E+02  0.65696647952E+02  0.80204009846E+02  0.00000000000E+00 0. -1.
<mgrwt>
<rscale>  0 0.14471308E+03</rscale>
<asrwt>0</asrwt>
<pdfrwt beam="1">  1        3 0.23439616E-01 0.15217234E+03</pdfrwt>
<pdfrwt beam="2">  1       -3 0.22773084E-01 0.15217234E+03</pdfrwt>
<totfact> 0.70662615E+02</totfact>
</mgrwt>
</event>
<event>
 8    1  0.8504141E-006  0.1241249E+03  0.7546771E-02  0.1243573E+00
         -4   -1    0    0    0  501 -0.00000000000E+00  0.00000000000E+00  0.63999931086E+03  0.63999931086E+03  0.00000000000E+00 0.  1.
          4   -1    0    0  501    0  0.00000000000E+00 -0.00000000000E+00 -0.22140231481E+02  0.22140231481E+02  0.00000000000E+00 0. -1.
         23    2    1    2    0    0  0.49504885703E+02 -0.24755444650E+02  0.40701699197E+03  0.42552300039E+03  0.11110097373E+03 0.  0.
         23    2    1    2    0    0 -0.49504885703E+02  0.24755444650E+02  0.21084208742E+03  0.23661654195E+03  0.92029540647E+02 0.  0.
          5    1    3    3  502    0 -0.12148401049E+02  0.25236192962E+02  0.22645397519E+03  0.22822782907E+03  0.47000000000E+01 0. -1.
         -5    1    3    3    0  502  0.61653286753E+02 -0.49991637612E+02  0.18056301678E+03  0.19729517132E+03  0.47000000000E+01 0.  1.
        -11    1    4    4    0    0 -0.39039996068E+02 -0.84218819486E+01  0.19381019729E+03  0.19788239427E+03  0.00000000000E+00 0.  1.
         11    1    4    4    0    0 -0.10464889635E+02  0.33177326599E+02  0.17031890123E+02  0.38734147680E+02  0.00000000000E+00 0. -1.
<mgrwt>
<rscale>  0 0.11971181E+03</rscale>
<asrwt>0</asrwt>
<pdfrwt beam="2">  1        4 0.34061899E-02 0.12412491E+03</pdfrwt>
<pdfrwt beam="1">  1       -4 0.98461419E-01 0.12412491E+03</pdfrwt>
<totfact> 0.63808892E+02</totfact>
</mgrwt>
</event>
<event>
 8    1  0.8504141E-006  0.1854437E+03  0.7546771E-02  0.1166807E+00
          2   -1    0    0  501    0  0.00000000000E+00  0.00000000000E+00  0.17279943130E+04  0.17279943130E+04  0.00000000000E+00 0. -1.
         -2   -1    0    0    0  501 -0.00000000000E+00 -0.00000000000E+00 -0.18561524646E+02  0.18561524646E+02  0.00000000000E+00 0.  1.
         23    2    1    2    0    0 -0.96631287292E+02 -0.97103469385E+02  0.10299085840E+04  0.10464707592E+04  0.12499067626E+03 0.  0.
         23    2    1    2    0    0  0.96631287292E+02  0.97103469385E+02  0.67952420438E+03  0.70008507840E+03  0.97975931827E+02 0.  0.
          5    1    3    3  502    0 -0.10821238748E+03 -0.66243956762E+02  0.51253158695E+03  0.52802357924E+03  0.47000000000E+01 0.  1.
         -5    1    3    3    0  502  0.11581100187E+02 -0.30859512623E+02  0.51737699703E+03  0.51844718000E+03  0.47000000000E+01 0.  1.
        -11    1    4    4    0    0  0.10016180595E+03  0.37228861092E+02  0.38739986196E+03  0.40186692887E+03  0.00000000000E+00 0.  1.
         11    1    4    4    0    0 -0.35305186604E+01  0.59874608293E+02  0.29212434241E+03  0.29821814953E+03  0.00000000000E+00 0. -1.
<mgrwt>
<rscale>  0 0.18103341E+03</rscale>
<asrwt>0</asrwt>
<pdfrwt beam="1">  1        2 0.26584515E+00 0.18544368E+03</pdfrwt>
<pdfrwt beam="2">  1       -2 0.28556205E-02 0.18544368E+03</pdfrwt>
<totfact> 0.46866355E+03</totfact>
</mgrwt>
</event>
<event>
 8    1  0.8504141E-006  0.1492725E+03  0.7546771E-02  0.1209673E+00
         -1   -1    0    0    0  501 -0.00000000000E+00  0.00000000000E+00  0.28450560303E+02  0.28450560303E+02  0.00000000000E+00 0.  1.
          1   -1    0    0  501    0  0.00000000000E+00 -0.00000000000E+00 -0.69611814897E+03  0.69611814897E+03  0.00000000000E+00 0. -1.
         23    2    1    2    0    0  0.24854334656E+02  0.77706104823E+02 -0.44391277611E+03  0.46833837937E+03  0.12500523238E+03 0.  0.
         23    2    1    2    0    0 -0.24854334656E+02 -0.77706104823E+02 -0.22375481255E+03  0.25623032990E+03  0.94508143247E+02 0.  0.
          5    1    3    3  502    0 -0.32954430711E+02 -0.16945146168E+02 -0.13558229511E+03  0.14063349967E+03  0.47000000000E+01 0. -1.
         -5    1    3    3    0  502  0.57808765366E+02  0.94651250990E+02 -0.30833048100E+03  0.32770487970E+03  0.47000000000E+01 0. -1.
        -11    1    4    4    0    0 -0.78398592346E+01 -0.36809329976E+02 -0.11427113688E+02  0.39331527981E+02  0.00000000000E+00 0.  1.
         11    1    4    4    0    0 -0.17014475421E+02 -0.40896774846E+02 -0.21232769887E+03  0.21689880192E+03  0.00000000000E+00 0. -1.
<mgrwt>
<rscale>  0 0.14275222E+03</rscale>
<asrwt>0</asrwt>
<pdfrwt beam="2">  1        1 0.10709510E+00 0.14927252E+03</pdfrwt>
<pdfrwt beam="1">  1       -1 0.43770091E-02 0.14927252E+03</pdfrwt>
<totfact> 0.59322621E+03</totfact>
</mgrwt>
</event>
<event>
 8    1  0.8504141E-006  0.1612225E+03  0.7546771E-02  0.1196826E+00
          2   -1    0    0  501    0  0.00000000000E+00  0.00000000000E+00  0.19443177605E+03  0.19443177605E+03  0.00000000000E+00 0. -1.
         -2   -1    0    0    0  501 -0.00000000000E+00 -0.00000000000E+00 -0.11013334436E+03  0.11013334436E+03  0.00000000000E+00 0.  1.
         23    2    1    2    0    0  0.95934384966E+02 -0.34102907344E+02  0.36378891071E+02  0.16527591081E+03  0.12500515377E+03 0.  0.
         23    2    1    2    0    0 -0.95934384966E+02  0.34102907344E+02  0.47919540611E+02  0.13928920960E+03  0.82090115304E+02 0.  0.
          5    1    3    3  502    0  0.91330081333E+02 -0.13766934765E+02 -0.28655618738E+02  0.96819144462E+02  0.47000000000E+01 0. -1.
         -5    1    3    3    0  502  0.46043036331E+01 -0.20335972579E+02  0.65034509809E+02  0.68456766347E+02  0.47000000000E+01 0. -1.
        -11    1    4    4    0    0 -0.37208367804E+02  0.48596254975E+02  0.49597383777E+02  0.78777910036E+02  0.00000000000E+00 0. -1.
         11    1    4    4    0    0 -0.58726017162E+02 -0.14493347631E+02 -0.16778431657E+01  0.60511299564E+02  0.00000000000E+00 0.  1.
<mgrwt>
<rscale>  0 0.15300665E+03</rscale>
<asrwt>0</asrwt>
<pdfrwt beam="1">  1        2 0.29912581E-01 0.16122253E+03</pdfrwt>
<pdfrwt beam="2">  1       -2 0.16943591E-01 0.16122253E+03</pdfrwt>
<totfact> 0.47459454E+03</totfact>
</mgrwt>
</event>
<event>
 8    1  0.8504141E-006  0.2578192E+03  0.7546771E-02  0.1110739E+00
          2   -1    0    0  501    0  0.00000000000E+00  0.00000000000E+00  0.37314475484E+03  0.37314475484E+03  0.00000000000E+00 0.  1.
         -2   -1    0    0    0  501 -0.00000000000E+00 -0.00000000000E+00 -0.17416771329E+03  0.17416771329E+03  0.00000000000E+00 0. -1.
         23    2    1    2    0    0  0.22234544281E+03 -0.37534356290E+02  0.15278878549E+03  0.29969174042E+03  0.12499760984E+03 0.  0.
         23    2    1    2    0    0 -0.22234544281E+03  0.37534356290E+02  0.46188256064E+02  0.24762072772E+03  0.91303592229E+02 0.  0.
          5    1    3    3  502    0  0.17768398066E+03 -0.66962939634E+02  0.15616127789E+03  0.24589442242E+03  0.47000000000E+01 0. -1.
         -5    1    3    3    0  502  0.44661462152E+02  0.29428583344E+02 -0.33724923992E+01  0.53797318001E+02  0.47000000000E+01 0. -1.
        -11    1    4    4    0    0 -0.12662029927E+03 -0.20320198173E+02  0.47084144372E+01  0.12832684757E+03  0.00000000000E+00 0. -1.
         11    1    4    4    0    0 -0.95725143545E+02  0.57854554463E+02  0.41479841627E+02  0.11929388015E+03  0.00000000000E+00 0.  1.
<mgrwt>
<rscale>  0 0.25410355E+03</rscale>
<asrwt>0</asrwt>
<pdfrwt beam="1">  1        2 0.57406885E-01 0.25781917E+03</pdfrwt>
<pdfrwt beam="2">  1       -2 0.26795033E-01 0.25781917E+03</pdfrwt>
<totfact> 0.10823156E+03</totfact>
</mgrwt>
</event>
<event>
 8    1  0.8504141E-006  0.1729029E+03  0.7546771E-02  0.1181052E+00
         -2   -1    0    0    0  501 -0.00000000000E+00  0.00000000000E+00  0.41661652384E+02  0.41661652384E+02  0.00000000000E+00 0.  1.
          2   -1    0    0  501    0  0.00000000000E+00 -0.00000000000E+00 -0.62945344266E+03  0.62945344266E+03  0.00000000000E+00 0. -1.
         23    2    1    2    0    0 -0.10136471337E+03  0.63216535211E+02 -0.29340877895E+03  0.34056441319E+03  0.12499709005E+03 0.  0.
         23    2    1    2    0    0  0.10136471337E+03 -0.63216535211E+02 -0.29438301132E+03  0.33055068186E+03  0.91275738728E+02 0.  0.
          5    1    3    3  502    0 -0.27322446877E+02  0.89518316411E+01 -0.22269538319E+03  0.22459290970E+03  0.47000000000E+01 0.  1.
         -5    1    3    3    0  502 -0.74042266491E+02  0.54264703570E+02 -0.70713395765E+02  0.11597150349E+03  0.47000000000E+01 0.  1.
        -11    1    4    4    0    0 -0.37427363013E+01  0.16527767984E+02 -0.20902463323E+02  0.26908886311E+02  0.00000000000E+00 0.  1.
         11    1    4    4    0    0  0.10510744967E+03 -0.79744303194E+02 -0.27348054800E+03  0.30364179555E+03  0.00000000000E+00 0. -1.
<mgrwt>
<rscale>  0 0.16696329E+03</rscale>
<asrwt>0</asrwt>
<pdfrwt beam="2">  1        2 0.96838992E-01 0.17290289E+03</pdfrwt>
<pdfrwt beam="1">  1       -2 0.64094849E-02 0.17290289E+03</pdfrwt>
<totfact> 0.62180162E+03</totfact>
</mgrwt>
</event>
<event>
 8    1  0.8504141E-006  0.2181640E+03  0.7546771E-02  0.1138727E+00
          1   -1    0    0  501    0  0.00000000000E+00  0.00000000000E+00  0.25948400392E+03  0.25948400392E+03  0.00000000000E+00 0. -1.
         -1   -1    0    0    0  501 -0.00000000000E+00 -0.00000000000E+00 -0.19076359764E+03  0.19076359764E+03  0.00000000000E+00 0.  1.
         23    2    1    2    0    0  0.14798777301E+03 -0.10034822973E+03 -0.40465254129E+02  0.22188503444E+03  0.12500153418E+03 0.  0.
         23    2    1    2    0    0 -0.14798777301E+03  0.10034822973E+03  0.10918566040E+03  0.22836256712E+03  0.90872468079E+02 0.  0.
          5    1    3    3  502    0  0.84705767862E+02 -0.10101879757E+03 -0.72790486076E+02  0.15066655048E+03  0.47000000000E+01 0. -1.
         -5    1    3    3    0  502  0.63282005148E+02  0.67056783951E+00  0.32325231947E+02  0.71218483958E+02  0.47000000000E+01 0. -1.
        -11    1    4    4    0    0 -0.63687084684E+02  0.53586026305E+02  0.10206297579E+03  0.13169798024E+03  0.00000000000E+00 0.  1.
         11    1    4    4    0    0 -0.84300688326E+02  0.46762203421E+02  0.71226846072E+01  0.96664586882E+02  0.00000000000E+00 0. -1.
<mgrwt>
<rscale>  0 0.21362561E+03</rscale>
<asrwt>0</asrwt>
<pdfrwt beam="1">  1        1 0.39920616E-01 0.21816400E+03</pdfrwt>
<pdfrwt beam="2">  1       -1 0.29348246E-01 0.21816400E+03</pdfrwt>
<totfact> 0.11153544E+03</totfact>
</mgrwt>
</event>
<event>
 7    1  0.8504141E-006  0.1662236E+03  0.7546771E-02  0.1201566E+00
         -2   -1    0    0    0  501 -0.00000000000E+00  0.00000000000E+00  0.11763696937E+03  0.11763696937E+03  0.00000000000E+00 0.  1.
          2   -1    0    0  501    0  0.00000000000E+00 -0.00000000000E+00 -0.19581406549E+03  0.19581406549E+03  0.00000000000E+00 0. -1.
         23    2    1    2    0    0 -0.43984103403E+02  0.35163499480E+02 -0.98600410815E+02  0.14597745805E+03  0.91740417468E+02 0.  0.
          5    1    1    2  502    0 -0.19101096538E+02 -0.10276019782E+02 -0.58937694626E+02  0.62977696999E+02  0.47000000000E+01 0. -1.
         -5    1    1    2    0  502  0.63085199941E+02 -0.24887479698E+02  0.79361009316E+02  0.10449587981E+03  0.47000000000E+01 0.  1.
        -11    1    3    3    0    0 -0.25663218062E+02  0.10619559412E+02  0.12700197569E+02  0.30539659816E+02  0.00000000000E+00 0.  1.
         11    1    3    3    0    0 -0.18320885340E+02  0.24543940069E+02 -0.11130060838E+03  0.11543779823E+03  0.00000000000E+00 0. -1.
<mgrwt>
<rscale>  0 0.14911374E+03</rscale>
<asrwt>0</asrwt>
<pdfrwt beam="2">  1        2 0.30125241E-01 0.16622361E+03</pdfrwt>
<pdfrwt beam="1">  1       -2 0.18097995E-01 0.16622361E+03</pdfrwt>
<totfact> 0.42253598E+03</totfact>
</mgrwt>
</event>
<event>
 8    1  0.8504141E-006  0.1973542E+03  0.7546771E-02  0.1156342E+00
         -2   -1    0    0    0  501 -0.00000000000E+00  0.00000000000E+00  0.36639604665E+02  0.36639604665E+02  0.00000000000E+00 0.  1.
          2   -1    0    0  501    0  0.00000000000E+00 -0.00000000000E+00 -0.10088858507E+04  0.10088858507E+04  0.00000000000E+00 0. -1.
         23    2    1    2    0    0 -0.14504936157E+03 -0.47795417313E+02 -0.62223808008E+03  0.65278551303E+03  0.12499991403E+03 0.  0.
         23    2    1    2    0    0  0.14504936157E+03  0.47795417313E+02 -0.35000816597E+03  0.39273994236E+03  0.91734545642E+02 0.  0.
          5    1    3    3  502    0 -0.56666977946E+02 -0.34210789907E+02 -0.83505425354E+02  0.10666194541E+03  0.47000000000E+01 0. -1.
         -5    1    3    3    0  502 -0.88382383629E+02 -0.13584627407E+02 -0.53873265472E+03  0.54612356761E+03  0.47000000000E+01 0. -1.
        -11    1    4    4    0    0  0.69825578213E+02 -0.22971945015E+02 -0.16992606992E+03  0.18514370329E+03  0.00000000000E+00 0.  1.
         11    1    4    4    0    0  0.75223783362E+02  0.70767362328E+02 -0.18008209606E+03  0.20759623907E+03  0.00000000000E+00 0. -1.
<mgrwt>
<rscale>  0 0.19236848E+03</rscale>
<asrwt>0</asrwt>
<pdfrwt beam="2">  1        2 0.15521320E+00 0.19735424E+03</pdfrwt>
<pdfrwt beam="1">  1       -2 0.56368626E-02 0.19735424E+03</pdfrwt>
<totfact> 0.41840296E+03</totfact>
</mgrwt>
</event>
<event>
 8    1  0.8504141E-006  0.1625357E+03  0.7546771E-02  0.1194836E+00
          2   -1    0    0  501    0  0.00000000000E+00  0.00000000000E+00  0.49046246227E+03  0.49046246227E+03  0.00000000000E+00 0. -1.
         -2   -1    0    0    0  501 -0.00000000000E+00 -0.00000000000E+00 -0.44787168921E+02  0.44787168921E+02  0.00000000000E+00 0.  1.
         23    2    1    2    0    0  0.88621576086E+02  0.54227923071E+02  0.22833125529E+03  0.28027313018E+03  0.12499365571E+03 0.  0.
         23    2    1    2    0    0 -0.88621576086E+02 -0.54227923071E+02  0.21734403806E+03  0.25497650102E+03  0.83547195063E+02 0.  0.
          5    1    3    3  502    0  0.11565964744E+03  0.63447484843E+02  0.20092768831E+03  0.24040957407E+03  0.47000000000E+01 0.  1.
         -5    1    3    3    0  502 -0.27038071350E+02 -0.92195617715E+01  0.27403566984E+02  0.39863556101E+02  0.47000000000E+01 0.  1.
        -11    1    4    4    0    0  0.15837159184E+01  0.13833803452E+02  0.56825847087E+01  0.15039083850E+02  0.00000000000E+00 0.  1.
         11    1    4    4    0    0 -0.90205292004E+02 -0.68061726523E+02  0.21166145335E+03  0.23993741717E+03  0.00000000000E+00 0. -1.
<mgrwt>
<rscale>  0 0.15468086E+03</rscale>
<asrwt>0</asrwt>
<pdfrwt beam="1">  1        2 0.75455760E-01 0.16253574E+03</pdfrwt>
<pdfrwt beam="2">  1       -2 0.68903340E-02 0.16253574E+03</pdfrwt>
<totfact> 0.73529477E+03</totfact>
</mgrwt>
</event>
<event>
 7    1  0.8504141E-006  0.1515772E+03  0.7546771E-02  0.1218114E+00
          1   -1    0    0  501    0  0.00000000000E+00  0.00000000000E+00  0.30246840993E+03  0.30246840993E+03  0.00000000000E+00 0. -1.
         -1   -1    0    0    0  501 -0.00000000000E+00 -0.00000000000E+00 -0.63267012302E+02  0.63267012302E+02  0.00000000000E+00 0.  1.
         23    2    1    2    0    0  0.22565897822E+01  0.32022007232E+02  0.17440895161E+03  0.20089091937E+03  0.94383144352E+02 0.  0.
          5    1    1    2  502    0 -0.65685152956E+02  0.19387600889E+02  0.39697004303E+02  0.79299183714E+02  0.47000000000E+01 0. -1.
         -5    1    1    2    0  502  0.63428563174E+02 -0.51409608121E+02  0.25095441712E+02  0.85545319148E+02  0.47000000000E+01 0.  1.
        -11    1    3    3    0    0  0.27285307383E+02 -0.25216633395E+02  0.61483728771E+02  0.71837424107E+02  0.00000000000E+00 0.  1.
         11    1    3    3    0    0 -0.25028717600E+02  0.57238640627E+02  0.11292522284E+03  0.12905349526E+03  0.00000000000E+00 0. -1.
<mgrwt>
<rscale>  0 0.13650278E+03</rscale>
<asrwt>0</asrwt>
<pdfrwt beam="1">  1        1 0.46533601E-01 0.15157720E+03</pdfrwt>
<pdfrwt beam="2">  1       -1 0.97333867E-02 0.15157720E+03</pdfrwt>
<totfact> 0.53140080E+03</totfact>
</mgrwt>
</event>
<event>
 8    1  0.8504141E-006  0.1524866E+03  0.7546771E-02  0.1204352E+00
          2   -1    0    0  501    0  0.00000000000E+00  0.00000000000E+00  0.18077645540E+03  0.18077645540E+03  0.00000000000E+00 0. -1.
         -2   -1    0    0    0  501 -0.00000000000E+00 -0.00000000000E+00 -0.13692326371E+03  0.13692326371E+03  0.00000000000E+00 0.  1.
         23    2    1    2    0    0  0.87213848962E+02 -0.47576686609E+01 -0.45215871592E+02  0.15904920645E+03  0.12499313648E+03 0.  0.
         23    2    1    2    0    0 -0.87213848962E+02  0.47576686609E+01  0.89069063284E+02  0.15865051266E+03  0.98019366817E+02 0.  0.
          5    1    3    3  502    0 -0.22641624973E+01 -0.50546795110E+02 -0.24071212514E+02  0.56228268688E+02  0.47000000000E+01 0. -1.
         -5    1    3    3    0  502  0.89478011459E+02  0.45789126449E+02 -0.21144659078E+02  0.10282093777E+03  0.47000000000E+01 0. -1.
        -11    1    4    4    0    0 -0.10914930612E+03  0.47602422275E+01  0.71818876077E+02  0.13074472032E+03  0.00000000000E+00 0.  1.
         11    1    4    4    0    0  0.21935457155E+02 -0.25735666059E-02  0.17250187207E+02  0.27905792335E+02  0.00000000000E+00 0. -1.
<mgrwt>
<rscale>  0 0.14688606E+03</rscale>
<asrwt>0</asrwt>
<pdfrwt beam="1">  1        2 0.27811763E-01 0.15248664E+03</pdfrwt>
<pdfrwt beam="2">  1       -2 0.21065117E-01 0.15248664E+03</pdfrwt>
<totfact> 0.35494563E+03</totfact>
</mgrwt>
</event>
<event>
 8    1  0.8504141E-006  0.1813426E+03  0.7546771E-02  0.1172022E+00
         -1   -1    0    0    0  501 -0.00000000000E+00  0.00000000000E+00  0.15814348198E+03  0.15814348198E+03  0.00000000000E+00 0.  1.
          1   -1    0    0  501    0  0.00000000000E+00 -0.00000000000E+00 -0.23008674040E+03  0.23008674040E+03  0.00000000000E+00 0. -1.
         23    2    1    2    0    0  0.11010468501E+03 -0.71663382405E+02  0.48939734909E+02  0.18783031208E+03  0.12500578564E+03 0.  0.
         23    2    1    2    0    0 -0.11010468501E+03  0.71663382405E+02 -0.12088299332E+03  0.20039991030E+03  0.91042539150E+02 0.  0.
          5    1    3    3  502    0  0.86000970646E+02 -0.35366801713E+02  0.88745787357E+02  0.12862691161E+03  0.47000000000E+01 0.  1.
         -5    1    3    3    0  502  0.24103714367E+02 -0.36296580692E+02 -0.39806052448E+02  0.59203400474E+02  0.47000000000E+01 0.  1.
        -11    1    4    4    0    0 -0.87672434570E+02  0.33477592427E+01 -0.71344467775E+02  0.11308269698E+03  0.00000000000E+00 0.  1.
         11    1    4    4    0    0 -0.22432250444E+02  0.68315623162E+02 -0.49538525550E+02  0.87317213319E+02  0.00000000000E+00 0. -1.
<mgrwt>
<rscale>  0 0.17570868E+03</rscale>
<asrwt>0</asrwt>
<pdfrwt beam="2">  1        1 0.35397960E-01 0.18134257E+03</pdfrwt>
<pdfrwt beam="1">  1       -1 0.24329767E-01 0.18134257E+03</pdfrwt>
<totfact> 0.17669718E+03</totfact>
</mgrwt>
</event>
<event>
 8    1  0.8504141E-006  0.1296919E+03  0.7546771E-02  0.1241823E+00
         -2   -1    0    0    0  501 -0.00000000000E+00  0.00000000000E+00  0.55409638459E+02  0.55409638459E+02  0.00000000000E+00 0.  1.
          2   -1    0    0  501    0  0.00000000000E+00 -0.00000000000E+00 -0.31985972221E+03  0.31985972221E+03  0.00000000000E+00 0. -1.
         23    2    1    2    0    0 -0.18851410566E+02  0.28986648896E+02 -0.48769671852E+02  0.13855855624E+03  0.12499756446E+03 0.  0.
         23    2    1    2    0    0  0.18851410566E+02 -0.28986648896E+02 -0.21568041190E+03  0.23671080443E+03  0.91205062151E+02 0.  0.
          5    1    3    3  502    0 -0.67337341269E+02  0.23044513158E+02 -0.53637131200E+02  0.89243481326E+02  0.47000000000E+01 0.  1.
         -5    1    3    3    0  502  0.48485930703E+02  0.59421357384E+01  0.48674593488E+01  0.49315074914E+02  0.47000000000E+01 0.  1.
        -11    1    4    4    0    0 -0.21850512742E+02 -0.26704524339E+02 -0.27380054895E+02  0.44048200115E+02  0.00000000000E+00 0.  1.
         11    1    4    4    0    0  0.40701923307E+02 -0.22821245568E+01 -0.18830035700E+03  0.19266260431E+03  0.00000000000E+00 0. -1.
<mgrwt>
<rscale>  0 0.12077578E+03</rscale>
<asrwt>0</asrwt>
<pdfrwt beam="2">  1        2 0.49209187E-01 0.12969191E+03</pdfrwt>
<pdfrwt beam="1">  1       -2 0.85245599E-02 0.12969191E+03</pdfrwt>
<totfact> 0.82610868E+03</totfact>
</mgrwt>
</event>
<event>
 8    1  0.8504141E-006  0.1325330E+03  0.7546771E-02  0.1236947E+00
         -1   -1    0    0    0  501 -0.00000000000E+00  0.00000000000E+00  0.35707687918E+03  0.35707687918E+03  0.00000000000E+00 0.  1.
          1   -1    0    0  501    0  0.00000000000E+00 -0.00000000000E+00 -0.47750007886E+02  0.47750007886E+02  0.00000000000E+00 0. -1.
         23    2    1    2    0    0 -0.30367555497E+02 -0.31893448897E+02  0.26144793829E+03  0.29312118896E+03  0.12500250586E+03 0.  0.
         23    2    1    2    0    0  0.30367555497E+02  0.31893448897E+02  0.47878933002E+02  0.11170569810E+03  0.90809637452E+02 0.  0.
          5    1    3    3  502    0  0.43878841286E+02 -0.37353678067E+02  0.10796601219E+03  0.12247203667E+03  0.47000000000E+01 0. -1.
         -5    1    3    3    0  502 -0.74246396784E+02  0.54602291705E+01  0.15348192610E+03  0.17064915229E+03  0.47000000000E+01 0. -1.
        -11    1    4    4    0    0  0.16568481469E+02  0.27474636322E+02  0.74656921586E+02  0.81259006639E+02  0.00000000000E+00 0.  1.
         11    1    4    4    0    0  0.13799074028E+02  0.44188125746E+01 -0.26777988584E+02  0.30446691466E+02  0.00000000000E+00 0. -1.
<mgrwt>
<rscale>  0 0.12380619E+03</rscale>
<asrwt>0</asrwt>
<pdfrwt beam="2">  1        1 0.73461553E-02 0.13253304E+03</pdfrwt>
<pdfrwt beam="1">  1       -1 0.54934903E-01 0.13253304E+03</pdfrwt>
<totfact> 0.32335432E+03</totfact>
</mgrwt>
</event>
<event>
 8    1  0.8504141E-006  0.1644393E+03  0.7546771E-02  0.1190362E+00
         -2   -1    0    0    0  501 -0.00000000000E+00  0.00000000000E+00  0.22917326563E+02  0.22917326563E+02  0.00000000000E+00 0.  1.
          2   -1    0    0  501    0  0.00000000000E+00 -0.00000000000E+00 -0.10563519717E+04  0.10563519717E+04  0.00000000000E+00 0. -1.
         23    2    1    2    0    0  0.92404201125E+02 -0.53635891283E+02 -0.46028369996E+03  0.48877538801E+03  0.12499980101E+03 0.  0.
         23    2    1    2    0    0 -0.92404201125E+02  0.53635891283E+02 -0.57315094519E+03  0.59049391027E+03  0.93625353801E+02 0.  0.
          5    1    3    3  502    0  0.93347775485E+02 -0.55415637867E+02 -0.46748297029E+03  0.47994491102E+03  0.47000000000E+01 0.  1.
         -5    1    3    3    0  502 -0.94357436083E+00  0.17797465843E+01  0.71992703282E+01  0.88304769824E+01  0.47000000000E+01 0.  1.
        -11    1    4    4    0    0  0.18780207406E+01  0.47407097330E+02 -0.20358435442E+03  0.20903958765E+03  0.00000000000E+00 0.  1.
         11    1    4    4    0    0 -0.94282221865E+02  0.62287939527E+01 -0.36956659077E+03  0.38145432262E+03  0.00000000000E+00 0. -1.
<mgrwt>
<rscale>  0 0.15853394E+03</rscale>
<asrwt>0</asrwt>
<pdfrwt beam="2">  1        2 0.16251571E+00 0.16443934E+03</pdfrwt>
<pdfrwt beam="1">  1       -2 0.35257421E-02 0.16443934E+03</pdfrwt>
<totfact> 0.78901810E+03</totfact>
</mgrwt>
</event>
<event>
 8    1  0.8504141E-006  0.1544588E+03  0.7546771E-02  0.1203241E+00
         -2   -1    0    0    0  501 -0.00000000000E+00  0.00000000000E+00  0.12475742004E+04  0.12475742004E+04  0.00000000000E+00 0. -1.
          2   -1    0    0  501    0  0.00000000000E+00 -0.00000000000E+00 -0.20855183189E+02  0.20855183189E+02  0.00000000000E+00 0.  1.
         23    2    1    2    0    0 -0.88886679156E+02  0.18299016781E+02  0.95578352382E+03  0.96818370071E+03  0.12498735201E+03 0.  0.
         23    2    1    2    0    0  0.88886679156E+02 -0.18299016781E+02  0.27093549341E+03  0.30024568290E+03  0.92226529617E+02 0.  0.
          5    1    3    3  502    0 -0.20146921001E+01 -0.31128613043E+02  0.70161002429E+02  0.76926626054E+02  0.47000000000E+01 0. -1.
         -5    1    3    3    0  502 -0.86871987056E+02  0.49427629823E+02  0.88562252139E+03  0.89125707465E+03  0.47000000000E+01 0. -1.
        -11    1    4    4    0    0  0.40080138131E+02  0.28761227919E+02  0.54838115031E+02  0.73762080801E+02  0.00000000000E+00 0.  1.
         11    1    4    4    0    0  0.48806541025E+02 -0.47060244699E+02  0.21609737838E+03  0.22648360210E+03  0.00000000000E+00 0. -1.
<mgrwt>
<rscale>  0 0.14776911E+03</rscale>
<asrwt>0</asrwt>
<pdfrwt beam="2">  1        2 0.32084907E-02 0.15445884E+03</pdfrwt>
<pdfrwt beam="1">  1       -2 0.19193443E+00 0.15445884E+03</pdfrwt>
<totfact> 0.45708382E+02</totfact>
</mgrwt>
</event>
<event>
 8    1  0.8504141E-006  0.1363493E+03  0.7546771E-02  0.1228364E+00
         -2   -1    0    0    0  501 -0.00000000000E+00  0.00000000000E+00  0.17206322860E+02  0.17206322860E+02  0.00000000000E+00 0.  1.
          2   -1    0    0  501    0  0.00000000000E+00 -0.00000000000E+00 -0.89666877076E+03  0.89666877076E+03  0.00000000000E+00 0. -1.
         23    2    1    2    0    0 -0.15780574184E+02 -0.52162166815E+02 -0.53498411897E+03  0.55208617740E+03  0.12498488531E+03 0.  0.
         23    2    1    2    0    0  0.15780574184E+02  0.52162166815E+02 -0.34447832894E+03  0.36178891623E+03  0.96208017489E+02 0.  0.
          5    1    3    3  502    0  0.36576935964E+02  0.23840570919E+02 -0.17734446981E+03  0.18270029020E+03  0.47000000000E+01 0.  1.
         -5    1    3    3    0  502 -0.52357510148E+02 -0.76002737735E+02 -0.35763964916E+03  0.36938588720E+03  0.47000000000E+01 0.  1.
        -11    1    4    4    0    0  0.52596518077E+02  0.30742060773E+02 -0.13626532464E+03  0.14926388282E+03  0.00000000000E+00 0.  1.
         11    1    4    4    0    0 -0.36815943893E+02  0.21420106042E+02 -0.20821300429E+03  0.21252503341E+03  0.00000000000E+00 0. -1.
<mgrwt>
<rscale>  0 0.12938975E+03</rscale>
<asrwt>0</asrwt>
<pdfrwt beam="2">  1        2 0.13794904E+00 0.13634933E+03</pdfrwt>
<pdfrwt beam="1">  1       -2 0.26471265E-02 0.13634933E+03</pdfrwt>
<totfact> 0.14899011E+04</totfact>
</mgrwt>
</event>
<event>
 8    1  0.8504141E-006  0.2045689E+03  0.7546771E-02  0.1150386E+00
          1   -1    0    0  501    0  0.00000000000E+00  0.00000000000E+00  0.34965486818E+03  0.34965486818E+03  0.00000000000E+00 0. -1.
         -1   -1    0    0    0  501 -0.00000000000E+00 -0.00000000000E+00 -0.10803142499E+03  0.10803142499E+03  0.00000000000E+00 0.  1.
         23    2    1    2    0    0  0.46521952108E+02  0.15511783252E+03  0.13201632479E+03  0.24346815782E+03  0.12499039911E+03 0.  0.
         23    2    1    2    0    0 -0.46521952108E+02 -0.15511783252E+03  0.10960711840E+03  0.21421813535E+03  0.87463450172E+02 0.  0.
          5    1    3    3  502    0 -0.32395057448E+02  0.63595144405E+01  0.80306197385E+01  0.34299621345E+02  0.47000000000E+01 0. -1.
         -5    1    3    3    0  502  0.78917009557E+02  0.14875831808E+03  0.12398570505E+03  0.20916853648E+03  0.47000000000E+01 0. -1.
        -11    1    4    4    0    0 -0.13627362162E+02 -0.10966640487E+03  0.25994816818E+02  0.11352601402E+03  0.00000000000E+00 0.  1.
         11    1    4    4    0    0 -0.32894589946E+02 -0.45451427642E+02  0.83612301579E+02  0.10069212133E+03  0.00000000000E+00 0. -1.
<mgrwt>
<rscale>  0 0.19923504E+03</rscale>
<asrwt>0</asrwt>
<pdfrwt beam="1">  1        1 0.53793056E-01 0.20456890E+03</pdfrwt>
<pdfrwt beam="2">  1       -1 0.16620219E-01 0.20456890E+03</pdfrwt>
<totfact> 0.19469678E+03</totfact>
</mgrwt>
</event>
<event>
 8    1  0.8504141E-006  0.1692091E+03  0.7546771E-02  0.1185276E+00
          1   -1    0    0  501    0  0.00000000000E+00  0.00000000000E+00  0.16242829085E+03  0.16242829085E+03  0.00000000000E+00 0. -1.
         -1   -1    0    0    0  501 -0.00000000000E+00 -0.00000000000E+00 -0.17487996190E+03  0.17487996190E+03  0.00000000000E+00 0.  1.
         23    2    1    2    0    0 -0.86272061939E+02 -0.74587962469E+02 -0.66308225698E+02  0.18173741528E+03  0.12500189800E+03 0.  0.
         23    2    1    2    0    0  0.86272061939E+02  0.74587962469E+02  0.53856554648E+02  0.15557083747E+03  0.91079768208E+02 0.  0.
          5    1    3    3  502    0 -0.22985717565E+02 -0.97959522935E+02 -0.30677619567E+02  0.10529775728E+03  0.47000000000E+01 0. -1.
         -5    1    3    3    0  502 -0.63286344373E+02  0.23371560467E+02 -0.35630606131E+02  0.76439658006E+02  0.47000000000E+01 0. -1.
        -11    1    4    4    0    0  0.99509723240E+02  0.61782307609E+02  0.65087670465E+02  0.13399866939E+03  0.00000000000E+00 0. -1.
         11    1    4    4    0    0 -0.13237661301E+02  0.12805654859E+02 -0.11231115817E+02  0.21572168078E+02  0.00000000000E+00 0.  1.
<mgrwt>
<rscale>  0 0.16306834E+03</rscale>
<asrwt>0</asrwt>
<pdfrwt beam="1">  1        1 0.24988968E-01 0.16920906E+03</pdfrwt>
<pdfrwt beam="2">  1       -1 0.26904610E-01 0.16920906E+03</pdfrwt>
<totfact> 0.23096943E+03</totfact>
</mgrwt>
</event>
<event>
 8    1  0.8504141E-006  0.2131658E+03  0.7546771E-02  0.1142636E+00
          2   -1    0    0  501    0  0.00000000000E+00  0.00000000000E+00  0.40145895699E+03  0.40145895699E+03  0.00000000000E+00 0.  1.
         -2   -1    0    0    0  501 -0.00000000000E+00 -0.00000000000E+00 -0.18646561017E+03  0.18646561017E+03  0.00000000000E+00 0. -1.
         23    2    1    2    0    0 -0.13182417825E+03  0.11152117048E+03 -0.85216418522E+02  0.22956808371E+03  0.12500032655E+03 0.  0.
         23    2    1    2    0    0  0.13182417825E+03 -0.11152117048E+03  0.30020976535E+03  0.35835648345E+03  0.92080837206E+02 0.  0.
          5    1    3    3  502    0 -0.48096899610E+02  0.11374627746E+03 -0.24446835575E+02  0.12598120954E+03  0.47000000000E+01 0. -1.
         -5    1    3    3    0  502 -0.83727278640E+02 -0.22251069733E+01 -0.60769582947E+02  0.10358687417E+03  0.47000000000E+01 0. -1.
        -11    1    4    4    0    0 -0.28859138341E+01  0.11205769862E+02  0.32590175084E+02  0.34583482891E+02  0.00000000000E+00 0.  1.
         11    1    4    4    0    0  0.13471009208E+03 -0.12272694034E+03  0.26761959027E+03  0.32377300056E+03  0.00000000000E+00 0. -1.
<mgrwt>
<rscale>  0 0.20865498E+03</rscale>
<asrwt>0</asrwt>
<pdfrwt beam="1">  1        2 0.61762916E-01 0.21316582E+03</pdfrwt>
<pdfrwt beam="2">  1       -2 0.28687017E-01 0.21316582E+03</pdfrwt>
<totfact> 0.88282522E+02</totfact>
</mgrwt>
</event>
<event>
 8    1  0.8504141E-006  0.1763565E+03  0.7546771E-02  0.1178385E+00
         -1   -1    0    0    0  501 -0.00000000000E+00  0.00000000000E+00  0.35240072287E+02  0.35240072287E+02  0.00000000000E+00 0.  1.
          1   -1    0    0  501    0  0.00000000000E+00 -0.00000000000E+00 -0.75772544762E+03  0.75772544762E+03  0.00000000000E+00 0. -1.
         23    2    1    2    0    0  0.33941475359E+02  0.11968816336E+03 -0.39454997473E+03  0.43217046151E+03  0.12499738015E+03 0.  0.
         23    2    1    2    0    0 -0.33941475359E+02 -0.11968816336E+03 -0.32793540060E+03  0.36079505839E+03  0.84582309008E+02 0.  0.
          5    1    3    3  502    0 -0.80161473400E+01 -0.48342682319E+01  0.49527659210E+01  0.11586572305E+02  0.47000000000E+01 0.  1.
         -5    1    3    3    0  502  0.41957622699E+02  0.12452243159E+03 -0.39950274065E+03  0.42058388920E+03  0.47000000000E+01 0.  1.
        -11    1    4    4    0    0 -0.45607997404E+02 -0.19742745471E+02 -0.10184619471E+03  0.11332481106E+03  0.00000000000E+00 0. -1.
         11    1    4    4    0    0  0.11666522044E+02 -0.99945417886E+02 -0.22608920589E+03  0.24747024733E+03  0.00000000000E+00 0.  1.
<mgrwt>
<rscale>  0 0.16948556E+03</rscale>
<asrwt>0</asrwt>
<pdfrwt beam="2">  1        1 0.11657314E+00 0.17635653E+03</pdfrwt>
<pdfrwt beam="1">  1       -1 0.54215499E-02 0.17635653E+03</pdfrwt>
<totfact> 0.38414814E+03</totfact>
</mgrwt>
</event>
<event>
 8    1  0.8504141E-006  0.2340687E+03  0.7546771E-02  0.1126767E+00
          2   -1    0    0  501    0  0.00000000000E+00  0.00000000000E+00  0.42322941315E+03  0.42322941315E+03  0.00000000000E+00 0. -1.
         -2   -1    0    0    0  501 -0.00000000000E+00 -0.00000000000E+00 -0.12048735859E+03  0.12048735859E+03  0.00000000000E+00 0.  1.
         23    2    1    2    0    0  0.49287220798E+02 -0.19165084382E+03  0.15346042594E+03  0.27988975264E+03  0.12501557996E+03 0.  0.
         23    2    1    2    0    0 -0.49287220798E+02  0.19165084382E+03  0.14928162862E+03  0.26382701910E+03  0.90335016993E+02 0.  0.
          5    1    3    3  502    0 -0.12607863314E+02  0.13885884741E+02  0.11508849944E+02  0.22501547489E+02  0.47000000000E+01 0.  1.
         -5    1    3    3    0  502  0.61895084112E+02 -0.20553672856E+03  0.14195157600E+03  0.25738820515E+03  0.47000000000E+01 0.  1.
        -11    1    4    4    0    0  0.36925108717E+01  0.10266935380E+03  0.32526233093E+02  0.10776171252E+03  0.00000000000E+00 0.  1.
         11    1    4    4    0    0 -0.52979731670E+02  0.88981490016E+02  0.11675539553E+03  0.15606530658E+03  0.00000000000E+00 0. -1.
<mgrwt>
<rscale>  0 0.22981998E+03</rscale>
<asrwt>0</asrwt>
<pdfrwt beam="1">  1        2 0.65112217E-01 0.23406873E+03</pdfrwt>
<pdfrwt beam="2">  1       -2 0.18536517E-01 0.23406873E+03</pdfrwt>
<totfact> 0.17888062E+03</totfact>
</mgrwt>
</event>
<event>
 8    1  0.8504141E-006  0.1927760E+03  0.7546771E-02  0.1160428E+00
          1   -1    0    0  501    0  0.00000000000E+00  0.00000000000E+00  0.32982914618E+03  0.32982914618E+03  0.00000000000E+00 0. -1.
         -1   -1    0    0    0  501 -0.00000000000E+00 -0.00000000000E+00 -0.10666030475E+03  0.10666030475E+03  0.00000000000E+00 0.  1.
         23    2    1    2    0    0 -0.14503313598E+03 -0.22451561434E+02  0.70737912447E+02  0.20534464092E+03  0.12499554453E+03 0.  0.
         23    2    1    2    0    0  0.14503313598E+03  0.22451561434E+02  0.15243092898E+03  0.23114481001E+03  0.93027157017E+02 0.  0.
          5    1    3    3  502    0  0.21002962477E+02 -0.12886976991E+02  0.14853492492E+01  0.25129561699E+02  0.47000000000E+01 0.  1.
         -5    1    3    3    0  502 -0.16603609846E+03 -0.95645844431E+01  0.69252563198E+02  0.18021507922E+03  0.47000000000E+01 0.  1.
        -11    1    4    4    0    0  0.44682250414E+02  0.29141907297E+02  0.10947720248E+03  0.12178264296E+03  0.00000000000E+00 0. -1.
         11    1    4    4    0    0  0.10035088557E+03 -0.66903458626E+01  0.42953726493E+02  0.10936216705E+03  0.00000000000E+00 0.  1.
<mgrwt>
<rscale>  0 0.18783541E+03</rscale>
<asrwt>0</asrwt>
<pdfrwt beam="1">  1        1 0.50742945E-01 0.19277596E+03</pdfrwt>
<pdfrwt beam="2">  1       -1 0.16409278E-01 0.19277596E+03</pdfrwt>
<totfact> 0.21353768E+03</totfact>
</mgrwt>
</event>
<event>
 8    1  0.8504141E-006  0.1625097E+03  0.7546771E-02  0.1189684E+00
         -2   -1    0    0    0  501 -0.00000000000E+00  0.00000000000E+00  0.13131729016E+03  0.13131729016E+03  0.00000000000E+00 0.  1.
          2   -1    0    0  501    0  0.00000000000E+00 -0.00000000000E+00 -0.23578809233E+03  0.23578809233E+03  0.00000000000E+00 0. -1.
         23    2    1    2    0    0 -0.86944472092E+02  0.79731059327E+02  0.30986777248E+02  0.16543751970E+03  0.11177213209E+03 0.  0.
         23    2    1    2    0    0  0.86944472092E+02 -0.79731059327E+02 -0.13545757942E+03  0.20166786279E+03  0.91677630930E+02 0.  0.
          5    1    3    3  502    0 -0.32141904103E+02  0.98376407598E+02  0.27830817917E+02  0.10727378057E+03  0.47000000000E+01 0. -1.
         -5    1    3    3    0  502 -0.54802567989E+02 -0.18645348271E+02  0.31559593308E+01  0.58163739131E+02  0.47000000000E+01 0.  1.
        -11    1    4    4    0    0  0.71630260040E+01 -0.13896195782E+02 -0.85281941634E+02  0.86703072423E+02  0.00000000000E+00 0. -1.
         11    1    4    4    0    0  0.79781446088E+02 -0.65834863545E+02 -0.50175637786E+02  0.11496479037E+03  0.00000000000E+00 0.  1.
<mgrwt>
<rscale>  0 0.15912889E+03</rscale>
<asrwt>0</asrwt>
<pdfrwt beam="2">  1        2 0.36275091E-01 0.16250967E+03</pdfrwt>
<pdfrwt beam="1">  1       -2 0.20202660E-01 0.16250967E+03</pdfrwt>
<totfact> 0.28669572E+03</totfact>
</mgrwt>
</event>
<event>
 8    1  0.8504141E-006  0.1683618E+03  0.7546771E-02  0.1188234E+00
         -2   -1    0    0    0  501 -0.00000000000E+00  0.00000000000E+00  0.75446440602E+02  0.75446440602E+02  0.00000000000E+00 0.  1.
          2   -1    0    0  501    0  0.00000000000E+00 -0.00000000000E+00 -0.31506046442E+03  0.31506046442E+03  0.00000000000E+00 0. -1.
         23    2    1    2    0    0 -0.82596090344E+00  0.11278608046E+03 -0.14874624350E+03  0.22465779858E+03  0.12499719738E+03 0.  0.
         23    2    1    2    0    0  0.82596090344E+00 -0.11278608046E+03 -0.90867780320E+02  0.16584910644E+03  0.80793504998E+02 0.  0.
          5    1    3    3  502    0  0.14295861692E+02 -0.22443836875E+02 -0.48715249330E+02  0.55707836006E+02  0.47000000000E+01 0. -1.
         -5    1    3    3    0  502 -0.15121822595E+02  0.13522991733E+03 -0.10003099417E+03  0.16894996258E+03  0.47000000000E+01 0. -1.
        -11    1    4    4    0    0  0.37403929084E+02 -0.78619305888E+02 -0.69604410792E+02  0.11146669086E+03  0.00000000000E+00 0. -1.
         11    1    4    4    0    0 -0.36577968180E+02 -0.34166774570E+02 -0.21263369528E+02  0.54382415581E+02  0.00000000000E+00 0.  1.
<mgrwt>
<rscale>  0 0.16041077E+03</rscale>
<asrwt>0</asrwt>
<pdfrwt beam="2">  1        2 0.48470840E-01 0.16836176E+03</pdfrwt>
<pdfrwt beam="1">  1       -2 0.11607145E-01 0.16836176E+03</pdfrwt>
<totfact> 0.52479530E+03</totfact>
</mgrwt>
</event>
<event>
 8    1  0.8504141E-006  0.1481432E+03  0.7546771E-02  0.1210692E+00
          4   -1    0    0  501    0  0.00000000000E+00  0.00000000000E+00  0.62878791687E+02  0.62878791687E+02  0.00000000000E+00 0. -1.
         -4   -1    0    0    0  501 -0.00000000000E+00 -0.00000000000E+00 -0.31860994101E+03  0.31860994101E+03  0.00000000000E+00 0.  1.
         23    2    1    2    0    0 -0.18694448943E+02 -0.77289710795E+02 -0.18793999852E+03  0.23930699981E+03  0.12499286100E+03 0.  0.
         23    2    1    2    0    0  0.18694448943E+02  0.77289710795E+02 -0.67791150801E+02  0.14218173288E+03  0.96420035375E+02 0.  0.
          5    1    3    3  502    0  0.41971193091E+02 -0.69381196910E+01 -0.19808357853E+02  0.47161208585E+02  0.47000000000E+01 0. -1.
         -5    1    3    3    0  502 -0.60665642034E+02 -0.70351591104E+02 -0.16813164067E+03  0.19214579123E+03  0.47000000000E+01 0. -1.
        -11    1    4    4    0    0  0.24669047630E+02 -0.16874924882E+02 -0.99086225678E+01  0.31488185117E+02  0.00000000000E+00 0.  1.
         11    1    4    4    0    0 -0.59745986873E+01  0.94164635677E+02 -0.57882528233E+02  0.11069354776E+03  0.00000000000E+00 0. -1.
<mgrwt>
<rscale>  0 0.14197810E+03</rscale>
<asrwt>0</asrwt>
<pdfrwt beam="1">  1        4 0.96736601E-02 0.14814316E+03</pdfrwt>
<pdfrwt beam="2">  1       -4 0.49016915E-01 0.14814316E+03</pdfrwt>
<totfact> 0.54694024E+02</totfact>
</mgrwt>
</event>
<event>
 8    1  0.8504141E-006  0.1507106E+03  0.7546771E-02  0.1208885E+00
          2   -1    0    0  501    0  0.00000000000E+00  0.00000000000E+00  0.14855833833E+03  0.14855833833E+03  0.00000000000E+00 0. -1.
         -2   -1    0    0    0  501 -0.00000000000E+00 -0.00000000000E+00 -0.20198877725E+03  0.20198877725E+03  0.00000000000E+00 0.  1.
         23    2    1    2    0    0  0.35854106663E+02 -0.76182581828E+02 -0.13525760592E+03  0.20250505353E+03  0.12499749600E+03 0.  0.
         23    2    1    2    0    0 -0.35854106663E+02  0.76182581828E+02  0.81827167000E+02  0.14804206205E+03  0.90174631346E+02 0.  0.
          5    1    3    3  502    0  0.55971742208E+02 -0.94451147878E+02 -0.66554489675E+02  0.12847352006E+03  0.47000000000E+01 0. -1.
         -5    1    3    3    0  502 -0.20117635546E+02  0.18268566051E+02 -0.68703116243E+02  0.74031533464E+02  0.47000000000E+01 0. -1.
        -11    1    4    4    0    0 -0.32876575517E+02  0.38879098372E+02 -0.72440964862E+01  0.51428887231E+02  0.00000000000E+00 0.  1.
         11    1    4    4    0    0 -0.29775311457E+01  0.37303483456E+02  0.89071263486E+02  0.96613174820E+02  0.00000000000E+00 0. -1.
<mgrwt>
<rscale>  0 0.14335484E+03</rscale>
<asrwt>0</asrwt>
<pdfrwt beam="1">  1        2 0.22855129E-01 0.15071057E+03</pdfrwt>
<pdfrwt beam="2">  1       -2 0.31075196E-01 0.15071057E+03</pdfrwt>
<totfact> 0.22249931E+03</totfact>
</mgrwt>
</event>
<event>
 8    1  0.8504141E-006  0.1668697E+03  0.7546771E-02  0.1188022E+00
         -2   -1    0    0    0  501 -0.00000000000E+00  0.00000000000E+00  0.15829407817E+03  0.15829407817E+03  0.00000000000E+00 0.  1.
          2   -1    0    0  501    0  0.00000000000E+00 -0.00000000000E+00 -0.15337407290E+03  0.15337407290E+03  0.00000000000E+00 0. -1.
         23    2    1    2    0    0  0.10240879092E+03  0.41615524485E+02  0.18344600791E+02  0.16787498787E+03  0.12500429928E+03 0.  0.
         23    2    1    2    0    0 -0.10240879092E+03 -0.41615524485E+02 -0.13424595518E+02  0.14379316320E+03  0.90977149238E+02 0.  0.
          5    1    3    3  502    0  0.62225421455E+02  0.78436517614E+02  0.41484947029E+02  0.10847756082E+03  0.47000000000E+01 0. -1.
         -5    1    3    3    0  502  0.40183369462E+02 -0.36820993130E+02 -0.23140346238E+02  0.59397427052E+02  0.47000000000E+01 0. -1.
        -11    1    4    4    0    0 -0.92222288447E+02 -0.65319941137E+02 -0.24629856241E+02  0.11566449332E+03  0.00000000000E+00 0.  1.
         11    1    4    4    0    0 -0.10186502470E+02  0.23704416653E+02  0.11205260724E+02  0.28128669881E+02  0.00000000000E+00 0. -1.
<mgrwt>
<rscale>  0 0.16059883E+03</rscale>
<asrwt>0</asrwt>
<pdfrwt beam="2">  1        2 0.23596011E-01 0.16686967E+03</pdfrwt>
<pdfrwt beam="1">  1       -2 0.24352935E-01 0.16686967E+03</pdfrwt>
<totfact> 0.33285033E+03</totfact>
</mgrwt>
</event>
<event>
 8    1  0.8504141E-006  0.1314808E+03  0.7546771E-02  0.1238004E+00
          1   -1    0    0  501    0  0.00000000000E+00  0.00000000000E+00  0.39613825981E+02  0.39613825981E+02  0.00000000000E+00 0. -1.
         -1   -1    0    0    0  501 -0.00000000000E+00 -0.00000000000E+00 -0.51405424499E+03  0.51405424499E+03  0.00000000000E+00 0.  1.
         23    2    1    2    0    0 -0.79497854235E+01  0.39985564767E+02 -0.41721367299E+03  0.43744080192E+03  0.12500064710E+03 0.  0.
         23    2    1    2    0    0  0.79497854235E+01 -0.39985564767E+02 -0.57226746024E+02  0.11622726906E+03  0.92584194841E+02 0.  0.
          5    1    3    3  502    0  0.18913723650E+02  0.79999148091E+02 -0.24005949409E+03  0.25378779194E+03  0.47000000000E+01 0. -1.
         -5    1    3    3    0  502 -0.26863509073E+02 -0.40013583324E+02 -0.17715417890E+03  0.18365300997E+03  0.47000000000E+01 0. -1.
        -11    1    4    4    0    0 -0.41334883866E+02 -0.29389867396E+02 -0.30198667415E+02  0.59027929350E+02  0.00000000000E+00 0.  1.
         11    1    4    4    0    0  0.49284669290E+02 -0.10595697371E+02 -0.27028078609E+02  0.57199339708E+02  0.00000000000E+00 0. -1.
<mgrwt>
<rscale>  0 0.12314076E+03</rscale>
<asrwt>0</asrwt>
<pdfrwt beam="1">  1        1 0.60944346E-02 0.13148082E+03</pdfrwt>
<pdfrwt beam="2">  1       -1 0.79085270E-01 0.13148082E+03</pdfrwt>
<totfact> 0.20483821E+03</totfact>
</mgrwt>
</event>
<event>
 8    1  0.8504141E-006  0.2629544E+03  0.7546771E-02  0.1107586E+00
         -2   -1    0    0    0  501 -0.00000000000E+00  0.00000000000E+00  0.16061567800E+03  0.16061567800E+03  0.00000000000E+00 0.  1.
          2   -1    0    0  501    0  0.00000000000E+00 -0.00000000000E+00 -0.47144093807E+03  0.47144093807E+03  0.00000000000E+00 0. -1.
         23    2    1    2    0    0 -0.21384540075E+03  0.88263477268E+02 -0.42556339405E+02  0.26637583140E+03  0.12499897874E+03 0.  0.
         23    2    1    2    0    0  0.21384540075E+03 -0.88263477268E+02 -0.26826892067E+03  0.36568078468E+03  0.90740981047E+02 0.  0.
          5    1    3    3  502    0  0.16302453754E+02  0.89039751889E+01 -0.64764191396E+01  0.20225844295E+02  0.47000000000E+01 0. -1.
         -5    1    3    3    0  502 -0.23014785451E+03  0.79359502079E+02 -0.36079920266E+02  0.24614998710E+03  0.47000000000E+01 0. -1.
        -11    1    4    4    0    0  0.19049204022E+02 -0.67529185850E+01  0.45221706802E+01  0.20710483117E+02  0.00000000000E+00 0.  1.
         11    1    4    4    0    0  0.19479619673E+03 -0.81510558683E+02 -0.27279109135E+03  0.34497030156E+03  0.00000000000E+00 0. -1.
<mgrwt>
<rscale>  0 0.25926490E+03</rscale>
<asrwt>0</asrwt>
<pdfrwt beam="2">  1        2 0.72529374E-01 0.26295445E+03</pdfrwt>
<pdfrwt beam="1">  1       -2 0.24710105E-01 0.26295445E+03</pdfrwt>
<totfact> 0.96699502E+02</totfact>
</mgrwt>
</event>
<event>
 8    1  0.8504141E-006  0.1403270E+03  0.7546771E-02  0.1224970E+00
          3   -1    0    0  501    0  0.00000000000E+00  0.00000000000E+00  0.32946466664E+02  0.32946466664E+02  0.00000000000E+00 0. -1.
         -3   -1    0    0    0  501 -0.00000000000E+00 -0.00000000000E+00 -0.47124230420E+03  0.47124230420E+03  0.00000000000E+00 0.  1.
         23    2    1    2    0    0 -0.36710384637E+02  0.51878327312E+02 -0.25132436779E+03  0.28784651263E+03  0.12511060629E+03 0.  0.
         23    2    1    2    0    0  0.36710384637E+02 -0.51878327312E+02 -0.18697146974E+03  0.21634225823E+03  0.88355130083E+02 0.  0.
          5    1    3    3  502    0 -0.48865756775E+02  0.34605688819E+02 -0.25823826959E+03  0.26513111806E+03  0.47000000000E+01 0. -1.
         -5    1    3    3    0  502  0.12155372138E+02  0.17272638494E+02  0.69139018031E+01  0.22715394570E+02  0.47000000000E+01 0. -1.
        -11    1    4    4    0    0  0.51207048198E+02 -0.13808732412E+02 -0.15714627481E+03  0.16585473934E+03  0.00000000000E+00 0.  1.
         11    1    4    4    0    0 -0.14496663561E+02 -0.38069594900E+02 -0.29825194935E+02  0.50487518885E+02  0.00000000000E+00 0. -1.
<mgrwt>
<rscale>  0 0.13168941E+03</rscale>
<asrwt>0</asrwt>
<pdfrwt beam="1">  1        3 0.50686874E-02 0.14032704E+03</pdfrwt>
<pdfrwt beam="2">  1       -3 0.72498813E-01 0.14032704E+03</pdfrwt>
<totfact> 0.95516040E+02</totfact>
</mgrwt>
</event>
<event>
 8    1  0.8504141E-006  0.1385700E+03  0.7546771E-02  0.1226474E+00
          2   -1    0    0  501    0  0.00000000000E+00  0.00000000000E+00  0.27036570896E+02  0.27036570896E+02  0.00000000000E+00 0. -1.
         -2   -1    0    0    0  501 -0.00000000000E+00 -0.00000000000E+00 -0.63502509959E+03  0.63502509959E+03  0.00000000000E+00 0.  1.
         23    2    1    2    0    0  0.14037567824E+02  0.58140904631E+02 -0.44174066553E+03  0.46296486300E+03  0.12499692271E+03 0.  0.
         23    2    1    2    0    0 -0.14037567824E+02 -0.58140904631E+02 -0.16624786317E+03  0.19909680749E+03  0.91781090881E+02 0.  0.
          5    1    3    3  502    0 -0.29775286255E+01 -0.37461335130E+02 -0.17523381973E+03  0.17927966668E+03  0.47000000000E+01 0.  1.
         -5    1    3    3    0  502  0.17015096450E+02  0.95602239761E+02 -0.26650684580E+03  0.28368519632E+03  0.47000000000E+01 0.  1.
        -11    1    4    4    0    0  0.27626824784E+02 -0.13808329645E+02 -0.11645142172E+03  0.12047757068E+03  0.00000000000E+00 0.  1.
         11    1    4    4    0    0 -0.41664392608E+02 -0.44332574986E+02 -0.49796441445E+02  0.78619236812E+02  0.00000000000E+00 0. -1.
<mgrwt>
<rscale>  0 0.13066371E+03</rscale>
<asrwt>0</asrwt>
<pdfrwt beam="1">  1        2 0.41594730E-02 0.13857001E+03</pdfrwt>
<pdfrwt beam="2">  1       -2 0.97696155E-01 0.13857001E+03</pdfrwt>
<totfact> 0.17537065E+03</totfact>
</mgrwt>
</event>
<event>
 8    1  0.8504141E-006  0.3230570E+03  0.7546771E-02  0.1075562E+00
         -1   -1    0    0    0  501 -0.00000000000E+00  0.00000000000E+00  0.16347402824E+03  0.16347402824E+03  0.00000000000E+00 0.  1.
          1   -1    0    0  501    0  0.00000000000E+00 -0.00000000000E+00 -0.64585203342E+03  0.64585203342E+03  0.00000000000E+00 0. -1.
         23    2    1    2    0    0  0.29716656023E+03  0.20913194926E+02 -0.15867930379E+03  0.35992349221E+03  0.12498188889E+03 0.  0.
         23    2    1    2    0    0 -0.29716656023E+03 -0.20913194926E+02 -0.32369870139E+03  0.44940256946E+03  0.91850388740E+02 0.  0.
          5    1    3    3  502    0  0.21703281658E+02 -0.71550042573E+01 -0.62590331798E+02  0.66797201702E+02  0.47000000000E+01 0. -1.
         -5    1    3    3    0  502  0.27546327857E+03  0.28068199183E+02 -0.96088971993E+02  0.29312629050E+03  0.47000000000E+01 0. -1.
        -11    1    4    4    0    0 -0.26131437435E+03  0.39014739846E+01 -0.30582227166E+03  0.40227811970E+03  0.00000000000E+00 0. -1.
         11    1    4    4    0    0 -0.35852185874E+02 -0.24814668911E+02 -0.17876429728E+02  0.47124449757E+02  0.00000000000E+00 0.  1.
<mgrwt>
<rscale>  0 0.32018977E+03</rscale>
<asrwt>0</asrwt>
<pdfrwt beam="2">  1        1 0.99361850E-01 0.32305696E+03</pdfrwt>
<pdfrwt beam="1">  1       -1 0.25149851E-01 0.32305696E+03</pdfrwt>
<totfact> 0.43793168E+02</totfact>
</mgrwt>
</event>
<event>
 8    1  0.8504141E-006  0.1585353E+03  0.7546771E-02  0.1198543E+00
         -1   -1    0    0    0  501 -0.00000000000E+00  0.00000000000E+00  0.69684062015E+02  0.69684062015E+02  0.00000000000E+00 0.  1.
          1   -1    0    0  501    0  0.00000000000E+00 -0.00000000000E+00 -0.30853161634E+03  0.30853161634E+03  0.00000000000E+00 0. -1.
         23    2    1    2    0    0 -0.49854119858E+01  0.97383935237E+02 -0.10680176240E+03  0.19115450372E+03  0.12499977066E+03 0.  0.
         23    2    1    2    0    0  0.49854119858E+01 -0.97383935237E+02 -0.13204579193E+03  0.18706117464E+03  0.89706781896E+02 0.  0.
          5    1    3    3  502    0 -0.60250186132E+02  0.23825439614E+02 -0.31630301452E+02  0.72251660685E+02  0.47000000000E+01 0. -1.
         -5    1    3    3    0  502  0.55264774146E+02  0.73558495623E+02 -0.75171460948E+02  0.11890284303E+03  0.47000000000E+01 0. -1.
        -11    1    4    4    0    0  0.32661947079E+02 -0.54962483644E+01 -0.54079865625E+02  0.63416428464E+02  0.00000000000E+00 0.  1.
         11    1    4    4    0    0 -0.27676535093E+02 -0.91887686873E+02 -0.77965926303E+02  0.12364474618E+03  0.00000000000E+00 0. -1.
<mgrwt>
<rscale>  0 0.15158176E+03</rscale>
<asrwt>0</asrwt>
<pdfrwt beam="2">  1        1 0.47466403E-01 0.15853526E+03</pdfrwt>
<pdfrwt beam="1">  1       -1 0.10720625E-01 0.15853526E+03</pdfrwt>
<totfact> 0.44816629E+03</totfact>
</mgrwt>
</event>
<event>
 8    1  0.8504141E-006  0.1407890E+03  0.7546771E-02  0.1223195E+00
         -2   -1    0    0    0  501 -0.00000000000E+00  0.00000000000E+00  0.27772345438E+03  0.27772345438E+03  0.00000000000E+00 0.  1.
          2   -1    0    0  501    0  0.00000000000E+00 -0.00000000000E+00 -0.58469761741E+02  0.58469761741E+02  0.00000000000E+00 0. -1.
         23    2    1    2    0    0  0.51966228528E+02 -0.38668507454E+02  0.99898537644E+02  0.17263044305E+03  0.12500323864E+03 0.  0.
         23    2    1    2    0    0 -0.51966228528E+02  0.38668507454E+02  0.11935515500E+03  0.16356277307E+03  0.91166799511E+02 0.  0.
          5    1    3    3  502    0  0.29235096165E+02 -0.26658377384E+02 -0.23659827614E+02  0.46338292753E+02  0.47000000000E+01 0. -1.
         -5    1    3    3    0  502  0.22731132363E+02 -0.12010130070E+02  0.12355836526E+03  0.12629215030E+03  0.47000000000E+01 0. -1.
        -11    1    4    4    0    0 -0.26948536428E+02  0.58748699912E+02  0.35414172932E+02  0.73700725922E+02  0.00000000000E+00 0. -1.
         11    1    4    4    0    0 -0.25017692100E+02 -0.20080192458E+02  0.83940982064E+02  0.89862047145E+02  0.00000000000E+00 0.  1.
<mgrwt>
<rscale>  0 0.13291418E+03</rscale>
<asrwt>0</asrwt>
<pdfrwt beam="2">  1        2 0.89953481E-02 0.14078903E+03</pdfrwt>
<pdfrwt beam="1">  1       -2 0.42726685E-01 0.14078903E+03</pdfrwt>
<totfact> 0.36785086E+03</totfact>
</mgrwt>
</event>
<event>
 8    1  0.8504141E-006  0.1468382E+03  0.7546771E-02  0.1213884E+00
         -3   -1    0    0    0  501 -0.00000000000E+00  0.00000000000E+00  0.28518428807E+03  0.28518428807E+03  0.00000000000E+00 0.  1.
          3   -1    0    0  501    0  0.00000000000E+00 -0.00000000000E+00 -0.63526559290E+02  0.63526559290E+02  0.00000000000E+00 0. -1.
         23    2    1    2    0    0  0.69008845851E+02 -0.34258893375E+02  0.14512432544E+03  0.20645223252E+03  0.12500224756E+03 0.  0.
         23    2    1    2    0    0 -0.69008845851E+02  0.34258893375E+02  0.76533403332E+02  0.14225861484E+03  0.91892649809E+02 0.  0.
          5    1    3    3  502    0  0.77835629508E+02 -0.16738106615E+02  0.23468229190E+02  0.83134813497E+02  0.47000000000E+01 0.  1.
         -5    1    3    3    0  502 -0.88267836568E+01 -0.17520786760E+02  0.12165609625E+03  0.12331741902E+03  0.47000000000E+01 0.  1.
        -11    1    4    4    0    0 -0.52320811425E+02  0.46678785740E+02  0.92473948454E+02  0.11605088319E+03  0.00000000000E+00 0.  1.
         11    1    4    4    0    0 -0.16688034425E+02 -0.12419892364E+02 -0.15940545123E+02  0.26207731648E+02  0.00000000000E+00 0. -1.
<mgrwt>
<rscale>  0 0.13958852E+03</rscale>
<asrwt>0</asrwt>
<pdfrwt beam="2">  1        3 0.97733170E-02 0.14683819E+03</pdfrwt>
<pdfrwt beam="1">  1       -3 0.43874505E-01 0.14683819E+03</pdfrwt>
<totfact> 0.92785955E+02</totfact>
</mgrwt>
</event>
<event>
 8    1  0.8504141E-006  0.1830625E+03  0.7546771E-02  0.1170285E+00
         -1   -1    0    0    0  501 -0.00000000000E+00  0.00000000000E+00  0.53472529058E+02  0.53472529058E+02  0.00000000000E+00 0.  1.
          1   -1    0    0  501    0  0.00000000000E+00 -0.00000000000E+00 -0.61986863777E+03  0.61986863777E+03  0.00000000000E+00 0. -1.
         23    2    1    2    0    0 -0.10303033757E+03 -0.85266291653E+02 -0.19072125742E+03  0.26436047502E+03  0.12500508696E+03 0.  0.
         23    2    1    2    0    0  0.10303033757E+03  0.85266291653E+02 -0.37567485129E+03  0.40898069181E+03  0.90818618319E+02 0.  0.
          5    1    3    3  502    0  0.10502312121E+02 -0.63464855949E+02 -0.91451677302E+02  0.11190882799E+03  0.47000000000E+01 0. -1.
         -5    1    3    3    0  502 -0.11353264969E+03 -0.21801435704E+02 -0.99269580123E+02  0.15245164703E+03  0.47000000000E+01 0. -1.
        -11    1    4    4    0    0  0.52625162205E+02  0.21824717429E+02 -0.58651795154E+02  0.81766491076E+02  0.00000000000E+00 0.  1.
         11    1    4    4    0    0  0.50405175361E+02  0.63441574224E+02 -0.31702305613E+03  0.32721420074E+03  0.00000000000E+00 0. -1.
<mgrwt>
<rscale>  0 0.17745956E+03</rscale>
<asrwt>0</asrwt>
<pdfrwt beam="2">  1        1 0.95364402E-01 0.18306246E+03</pdfrwt>
<pdfrwt beam="1">  1       -1 0.82265433E-02 0.18306246E+03</pdfrwt>
<totfact> 0.27367087E+03</totfact>
</mgrwt>
</event>
<event>
 8    1  0.8504141E-006  0.1162795E+03  0.7546771E-02  0.1259596E+00
         -2   -1    0    0    0  501 -0.00000000000E+00  0.00000000000E+00  0.23499892431E+03  0.23499892431E+03  0.00000000000E+00 0.  1.
          2   -1    0    0  501    0  0.00000000000E+00 -0.00000000000E+00 -0.12373773019E+03  0.12373773019E+03  0.00000000000E+00 0. -1.
         23    2    1    2    0    0 -0.21303226434E+02 -0.17054264058E+02  0.19834607007E+03  0.22991755103E+03  0.11303203696E+03 0.  0.
         23    2    1    2    0    0  0.21303226434E+02  0.17054264058E+02 -0.87084875962E+02  0.12881910347E+03  0.90917052405E+02 0.  0.
          5    1    3    3  502    0  0.15374714806E+02 -0.19040196897E+02 -0.30856665801E+01  0.25110202936E+02  0.47000000000E+01 0. -1.
         -5    1    3    3    0  502 -0.36677941241E+02  0.19859328392E+01  0.20143173665E+03  0.20480734810E+03  0.47000000000E+01 0.  1.
        -11    1    4    4    0    0  0.36798599191E+02 -0.71736887946E+01 -0.40579238353E+00  0.37493511183E+02  0.00000000000E+00 0.  1.
         11    1    4    4    0    0 -0.15495372757E+02  0.24227952852E+02 -0.86679083578E+02  0.91325592285E+02  0.00000000000E+00 0. -1.
<mgrwt>
<rscale>  0 0.11052778E+03</rscale>
<asrwt>0</asrwt>
<pdfrwt beam="2">  1        2 0.19036574E-01 0.11627948E+03</pdfrwt>
<pdfrwt beam="1">  1       -2 0.36153681E-01 0.11627948E+03</pdfrwt>
<totfact> 0.20465382E+03</totfact>
</mgrwt>
</event>
<event>
 8    1  0.8504141E-006  0.1608072E+03  0.7546771E-02  0.1192283E+00
         -1   -1    0    0    0  501 -0.00000000000E+00  0.00000000000E+00  0.23302873676E+03  0.23302873676E+03  0.00000000000E+00 0.  1.
          1   -1    0    0  501    0  0.00000000000E+00 -0.00000000000E+00 -0.19492433748E+03  0.19492433748E+03  0.00000000000E+00 0. -1.
         23    2    1    2    0    0 -0.10298104040E+03  0.22407163443E+02  0.16819460564E+03  0.23269805521E+03  0.12145692189E+03 0.  0.
         23    2    1    2    0    0  0.10298104040E+03 -0.22407163443E+02 -0.13009020636E+03  0.19525501904E+03  0.10046832840E+03 0.  0.
          5    1    3    3  502    0 -0.28738315051E+02  0.29689413850E+01 -0.15814995426E+02  0.33270248650E+02  0.47000000000E+01 0. -1.
         -5    1    3    3    0  502 -0.74242725350E+02  0.19438222058E+02  0.18400960107E+03  0.19942780656E+03  0.47000000000E+01 0.  1.
        -11    1    4    4    0    0 -0.18641197761E+02  0.22860478988E+01 -0.59026282446E+01  0.19686576370E+02  0.00000000000E+00 0.  1.
         11    1    4    4    0    0  0.12162223816E+03 -0.24693211342E+02 -0.12418757812E+03  0.17556844267E+03  0.00000000000E+00 0. -1.
<mgrwt>
<rscale>  0 0.15686420E+03</rscale>
<asrwt>0</asrwt>
<pdfrwt beam="2">  1        1 0.29988359E-01 0.16080721E+03</pdfrwt>
<pdfrwt beam="1">  1       -1 0.35850575E-01 0.16080721E+03</pdfrwt>
<totfact> 0.11270442E+03</totfact>
</mgrwt>
</event>
<event>
 8    1  0.8504141E-006  0.1342480E+03  0.7546771E-02  0.1232538E+00
         -2   -1    0    0    0  501 -0.00000000000E+00  0.00000000000E+00  0.11781244578E+03  0.11781244578E+03  0.00000000000E+00 0.  1.
          2   -1    0    0  501    0  0.00000000000E+00 -0.00000000000E+00 -0.12573389762E+03  0.12573389762E+03  0.00000000000E+00 0. -1.
         23    2    1    2    0    0  0.42271342838E+02  0.24713667657E+02  0.14156136977E+02  0.13499227361E+03  0.12499954370E+03 0.  0.
         23    2    1    2    0    0 -0.42271342838E+02 -0.24713667657E+02 -0.22077588814E+02  0.10855406979E+03  0.94334163196E+02 0.  0.
          5    1    3    3  502    0  0.61411865131E+02 -0.34461897361E+02 -0.18442399085E+01  0.70601209405E+02  0.47000000000E+01 0. -1.
         -5    1    3    3    0  502 -0.19140522293E+02  0.59175565018E+02  0.16000376886E+02  0.64391064204E+02  0.47000000000E+01 0. -1.
        -11    1    4    4    0    0 -0.30573592295E+02  0.29276776237E+01  0.33463573290E+02  0.45421653200E+02  0.00000000000E+00 0.  1.
         11    1    4    4    0    0 -0.11697750543E+02 -0.27641345280E+02 -0.55541162104E+02  0.63132416591E+02  0.00000000000E+00 0. -1.
<mgrwt>
<rscale>  0 0.12663364E+03</rscale>
<asrwt>0</asrwt>
<pdfrwt beam="2">  1        2 0.19343677E-01 0.13424797E+03</pdfrwt>
<pdfrwt beam="1">  1       -2 0.18124992E-01 0.13424797E+03</pdfrwt>
<totfact> 0.68032698E+03</totfact>
</mgrwt>
</event>
<event>
 8    1  0.8504141E-006  0.1744609E+03  0.7546771E-02  0.1179289E+00
         -1   -1    0    0    0  501 -0.00000000000E+00  0.00000000000E+00  0.14021370578E+03  0.14021370578E+03  0.00000000000E+00 0.  1.
          1   -1    0    0  501    0  0.00000000000E+00 -0.00000000000E+00 -0.21337652148E+03  0.21337652148E+03  0.00000000000E+00 0. -1.
         23    2    1    2    0    0 -0.11869307601E+03  0.26900345748E+02 -0.96779264877E+02  0.19950651352E+03  0.12499979174E+03 0.  0.
         23    2    1    2    0    0  0.11869307601E+03 -0.26900345748E+02  0.23616449176E+02  0.15408371374E+03  0.91500706422E+02 0.  0.
          5    1    3    3  502    0 -0.70992930539E+02  0.77189074063E+02 -0.57106663353E+02  0.11950485488E+03  0.47000000000E+01 0.  1.
         -5    1    3    3    0  502 -0.47700145470E+02 -0.50288728315E+02 -0.39672601524E+02  0.80001658639E+02  0.47000000000E+01 0.  1.
        -11    1    4    4    0    0  0.13057267651E+03 -0.11992379577E+02  0.28968944576E+02  0.13428417914E+03  0.00000000000E+00 0.  1.
         11    1    4    4    0    0 -0.11879600500E+02 -0.14907966171E+02 -0.53524953990E+01  0.19799534600E+02  0.00000000000E+00 0. -1.
<mgrwt>
<rscale>  0 0.16862515E+03</rscale>
<asrwt>0</asrwt>
<pdfrwt beam="2">  1        1 0.32827157E-01 0.17446095E+03</pdfrwt>
<pdfrwt beam="1">  1       -1 0.21571339E-01 0.17446095E+03</pdfrwt>
<totfact> 0.23616398E+03</totfact>
</mgrwt>
</event>
<event>
 8    1  0.8504141E-006  0.1306935E+03  0.7546771E-02  0.1241135E+00
         -1   -1    0    0    0  501 -0.00000000000E+00  0.00000000000E+00  0.67444013787E+02  0.67444013787E+02  0.00000000000E+00 0.  1.
          1   -1    0    0  501    0  0.00000000000E+00 -0.00000000000E+00 -0.19279277759E+03  0.19279277759E+03  0.00000000000E+00 0. -1.
         23    2    1    2    0    0  0.36369890795E+02  0.11552376619E+02 -0.61832125558E+02  0.14458217356E+03  0.12499826718E+03 0.  0.
         23    2    1    2    0    0 -0.36369890795E+02 -0.11552376619E+02 -0.63516638241E+02  0.11565461781E+03  0.88799779989E+02 0.  0.
          5    1    3    3  502    0  0.85270724618E+01 -0.23647797633E+02  0.31702038351E+02  0.40731296729E+02  0.47000000000E+01 0. -1.
         -5    1    3    3    0  502  0.27842818333E+02  0.35200174252E+02 -0.93534163909E+02  0.10385087683E+03  0.47000000000E+01 0. -1.
        -11    1    4    4    0    0 -0.48110906589E+02 -0.38902305615E+02 -0.59105738010E+02  0.85565980277E+02  0.00000000000E+00 0. -1.
         11    1    4    4    0    0  0.11741015794E+02  0.27349928996E+02 -0.44109002309E+01  0.30088637537E+02  0.00000000000E+00 0.  1.
<mgrwt>
<rscale>  0 0.12119741E+03</rscale>
<asrwt>0</asrwt>
<pdfrwt beam="2">  1        1 0.29660427E-01 0.13069351E+03</pdfrwt>
<pdfrwt beam="1">  1       -1 0.10376002E-01 0.13069351E+03</pdfrwt>
<totfact> 0.83417048E+03</totfact>
</mgrwt>
</event>
<event>
 8    1  0.8504141E-006  0.1583283E+03  0.7546771E-02  0.1199277E+00
         -2   -1    0    0    0  501 -0.00000000000E+00  0.00000000000E+00  0.52351440679E+03  0.52351440679E+03  0.00000000000E+00 0.  1.
          2   -1    0    0  501    0  0.00000000000E+00 -0.00000000000E+00 -0.42067259465E+02  0.42067259465E+02  0.00000000000E+00 0. -1.
         23    2    1    2    0    0 -0.96478664927E+02  0.11643298539E+02  0.32555245868E+03  0.36201139725E+03  0.12499659677E+03 0.  0.
         23    2    1    2    0    0  0.96478664927E+02 -0.11643298539E+02  0.15589468865E+03  0.20357026900E+03  0.87715456366E+02 0.  0.
          5    1    3    3  502    0  0.23387904162E+02  0.12283541503E+02  0.12885912993E+03  0.13162311659E+03  0.47000000000E+01 0.  1.
         -5    1    3    3    0  502 -0.11986656909E+03 -0.64024296442E+00  0.19669332875E+03  0.23038828067E+03  0.47000000000E+01 0.  1.
        -11    1    4    4    0    0  0.61254990399E+02  0.14092674457E+02  0.28690303440E+02  0.69093493424E+02  0.00000000000E+00 0. -1.
         11    1    4    4    0    0  0.35223674528E+02 -0.25735972995E+02  0.12720438521E+03  0.13447677558E+03  0.00000000000E+00 0.  1.
<mgrwt>
<rscale>  0 0.15097776E+03</rscale>
<asrwt>0</asrwt>
<pdfrwt beam="2">  1        2 0.64718864E-02 0.15832829E+03</pdfrwt>
<pdfrwt beam="1">  1       -2 0.80540673E-01 0.15832829E+03</pdfrwt>
<totfact> 0.15298248E+03</totfact>
</mgrwt>
</event>
<event>
 8    1  0.8504141E-006  0.1621233E+03  0.7546771E-02  0.1193731E+00
         -1   -1    0    0    0  501 -0.00000000000E+00  0.00000000000E+00  0.92627732482E+02  0.92627732482E+02  0.00000000000E+00 0. -1.
          1   -1    0    0  501    0  0.00000000000E+00 -0.00000000000E+00 -0.25469905942E+03  0.25469905942E+03  0.00000000000E+00 0.  1.
         23    2    1    2    0    0  0.93660268925E+02 -0.43450335661E+02 -0.49485504601E+02  0.16950748464E+03  0.12499517806E+03 0.  0.
         23    2    1    2    0    0 -0.93660268925E+02  0.43450335661E+02 -0.11258582233E+03  0.17781930726E+03  0.91016267783E+02 0.  0.
          5    1    3    3  502    0  0.72673046921E+02  0.13661456534E+02 -0.73086588371E+02  0.10407567700E+03  0.47000000000E+01 0. -1.
         -5    1    3    3    0  502  0.20987222004E+02 -0.57111792196E+02  0.23601083770E+02  0.65431807635E+02  0.47000000000E+01 0. -1.
        -11    1    4    4    0    0 -0.72795977921E+02  0.59861798634E+02 -0.11770131102E+03  0.15078556945E+03  0.00000000000E+00 0.  1.
         11    1    4    4    0    0 -0.20864291004E+02 -0.16411462972E+02  0.51154886850E+01  0.27033737819E+02  0.00000000000E+00 0. -1.
<mgrwt>
<rscale>  0 0.15562110E+03</rscale>
<asrwt>0</asrwt>
<pdfrwt beam="2">  1        1 0.39184470E-01 0.16212332E+03</pdfrwt>
<pdfrwt beam="1">  1       -1 0.14250420E-01 0.16212332E+03</pdfrwt>
<totfact> 0.36600668E+03</totfact>
</mgrwt>
</event>
<event>
 8    1  0.8504141E-006  0.1597608E+03  0.7546771E-02  0.1196798E+00
          1   -1    0    0  501    0  0.00000000000E+00  0.00000000000E+00  0.21112951845E+03  0.21112951845E+03  0.00000000000E+00 0. -1.
         -1   -1    0    0    0  501 -0.00000000000E+00 -0.00000000000E+00 -0.10310508422E+03  0.10310508422E+03  0.00000000000E+00 0.  1.
         23    2    1    2    0    0 -0.93515842694E+02  0.33966025071E+02  0.46904526919E+02  0.16650392233E+03  0.12499847124E+03 0.  0.
         23    2    1    2    0    0  0.93515842694E+02 -0.33966025071E+02  0.61119907311E+02  0.14773068035E+03  0.90497553292E+02 0.  0.
          5    1    3    3  502    0 -0.21792047323E+02 -0.41009904937E+02  0.41566552401E+02  0.62502591210E+02  0.47000000000E+01 0.  1.
         -5    1    3    3    0  502 -0.71723795370E+02  0.74975930008E+02  0.53379745184E+01  0.10400133112E+03  0.47000000000E+01 0.  1.
        -11    1    4    4    0    0  0.56804359164E+02 -0.18701826140E+02  0.83037355317E+02  0.10233130459E+03  0.00000000000E+00 0. -1.
         11    1    4    4    0    0  0.36711483529E+02 -0.15264198930E+02 -0.21917448006E+02  0.45399375756E+02  0.00000000000E+00 0.  1.
<mgrwt>
<rscale>  0 0.15303074E+03</rscale>
<asrwt>0</asrwt>
<pdfrwt beam="1">  1        1 0.32481464E-01 0.15976083E+03</pdfrwt>
<pdfrwt beam="2">  1       -1 0.15862321E-01 0.15976083E+03</pdfrwt>
<totfact> 0.39024626E+03</totfact>
</mgrwt>
</event>
<event>
 8    1  0.8504141E-006  0.1634106E+03  0.7546771E-02  0.1192183E+00
          2   -1    0    0  501    0  0.00000000000E+00  0.00000000000E+00  0.27683246817E+03  0.27683246817E+03  0.00000000000E+00 0. -1.
         -2   -1    0    0    0  501 -0.00000000000E+00 -0.00000000000E+00 -0.10005434889E+03  0.10005434889E+03  0.00000000000E+00 0.  1.
         23    2    1    2    0    0  0.32073561167E+02 -0.10023702993E+03  0.15818587027E+02  0.16417448449E+03  0.12500743245E+03 0.  0.
         23    2    1    2    0    0 -0.32073561167E+02  0.10023702993E+03  0.16095953225E+03  0.21271233257E+03  0.90897689251E+02 0.  0.
          5    1    3    3  502    0  0.42255422831E+02  0.93566406840E+01  0.30329596610E+02  0.53056968571E+02  0.47000000000E+01 0. -1.
         -5    1    3    3    0  502 -0.10181861663E+02 -0.10959367061E+03 -0.14511009583E+02  0.11111751592E+03  0.47000000000E+01 0. -1.
        -11    1    4    4    0    0  0.99932510289E+01 -0.14026739602E+02  0.17646050333E+02  0.24657606987E+02  0.00000000000E+00 0. -1.
         11    1    4    4    0    0 -0.42066812196E+02  0.11426376953E+03  0.14331348192E+03  0.18805472558E+03  0.00000000000E+00 0.  1.
<mgrwt>
<rscale>  0 0.15695070E+03</rscale>
<asrwt>0</asrwt>
<pdfrwt beam="1">  1        2 0.42589610E-01 0.16341063E+03</pdfrwt>
<pdfrwt beam="2">  1       -2 0.15392977E-01 0.16341063E+03</pdfrwt>
<totfact> 0.38054652E+03</totfact>
</mgrwt>
</event>
<event>
 7    1  0.8504141E-006  0.3048534E+03  0.7546771E-02  0.1115921E+00
         -1   -1    0    0    0  501 -0.00000000000E+00  0.00000000000E+00  0.17847907978E+03  0.17847907978E+03  0.00000000000E+00 0.  1.
          1   -1    0    0  501    0  0.00000000000E+00 -0.00000000000E+00 -0.28077043281E+03  0.28077043281E+03  0.00000000000E+00 0. -1.
         23    2    1    2    0    0  0.17090714918E+01 -0.93004870290E+02 -0.83711243369E+02  0.15383039153E+03  0.89461669274E+02 0.  0.
          5    1    1    2  502    0 -0.13000063791E+03  0.52941754691E+02  0.56513964154E+02  0.15138993821E+03  0.47000000000E+01 0. -1.
         -5    1    1    2    0  502  0.12829156642E+03  0.40063115599E+02 -0.75094073819E+02  0.15402918285E+03  0.47000000000E+01 0.  1.
        -11    1    3    3    0    0 -0.42216190535E+02 -0.53123172264E+02 -0.57614134369E+02  0.89014979940E+02  0.00000000000E+00 0. -1.
         11    1    3    3    0    0  0.43925262027E+02 -0.39881698027E+02 -0.26097109000E+02  0.64815411592E+02  0.00000000000E+00 0.  1.
<mgrwt>
<rscale>  0 0.24590387E+03</rscale>
<asrwt>0</asrwt>
<pdfrwt beam="2">  1        1 0.43195451E-01 0.30485344E+03</pdfrwt>
<pdfrwt beam="1">  1       -1 0.27458320E-01 0.30485344E+03</pdfrwt>
<totfact> 0.11347169E+03</totfact>
</mgrwt>
</event>
<event>
 8    1  0.8504141E-006  0.1286132E+03  0.7546771E-02  0.1243251E+00
          1   -1    0    0  501    0  0.00000000000E+00  0.00000000000E+00  0.13233504562E+03  0.13233504562E+03  0.00000000000E+00 0. -1.
         -1   -1    0    0    0  501 -0.00000000000E+00 -0.00000000000E+00 -0.10246871169E+03  0.10246871169E+03  0.00000000000E+00 0.  1.
         23    2    1    2    0    0 -0.17464520404E+02  0.24674001645E+02 -0.11649136440E+02  0.12913964217E+03  0.12501011547E+03 0.  0.
         23    2    1    2    0    0  0.17464520404E+02 -0.24674001645E+02  0.41515470367E+02  0.10566411515E+03  0.92344762275E+02 0.  0.
          5    1    3    3  502    0  0.18355882095E+02  0.45251781111E+02 -0.51797486949E+02  0.71342355971E+02  0.47000000000E+01 0. -1.
         -5    1    3    3    0  502 -0.35820402499E+02 -0.20577779465E+02  0.40148350509E+02  0.57797286195E+02  0.47000000000E+01 0. -1.
        -11    1    4    4    0    0  0.32160349182E+02  0.38100950171E+01 -0.18738452624E+02  0.37415698447E+02  0.00000000000E+00 0.  1.
         11    1    4    4    0    0 -0.14695828778E+02 -0.28484096663E+02  0.60253922991E+02  0.68248416699E+02  0.00000000000E+00 0. -1.
<mgrwt>
<rscale>  0 0.11990670E+03</rscale>
<asrwt>0</asrwt>
<pdfrwt beam="1">  1        1 0.20359238E-01 0.12861316E+03</pdfrwt>
<pdfrwt beam="2">  1       -1 0.15764417E-01 0.12861316E+03</pdfrwt>
<totfact> 0.69912660E+03</totfact>
</mgrwt>
</event>
<event>
 7    1  0.8504141E-006  0.1994949E+03  0.7546771E-02  0.1156032E+00
         -1   -1    0    0    0  501 -0.00000000000E+00  0.00000000000E+00  0.63625664292E+02  0.63625664292E+02  0.00000000000E+00 0.  1.
          1   -1    0    0  501    0  0.00000000000E+00 -0.00000000000E+00 -0.54772344995E+03  0.54772344995E+03  0.00000000000E+00 0. -1.
         23    2    1    2    0    0  0.10961810124E+03  0.73726923467E+02 -0.23320666146E+03  0.29081117090E+03  0.11284503892E+03 0.  0.
          5    1    1    2  502    0 -0.94357918768E+02 -0.45717260986E+01 -0.22655527954E+03  0.24550703086E+03  0.47000000000E+01 0. -1.
         -5    1    1    2    0  502 -0.15260182470E+02 -0.69155197368E+02 -0.24335844654E+02  0.75030912477E+02  0.47000000000E+01 0.  1.
        -11    1    3    3    0    0  0.18226051940E+02 -0.22790292087E+02 -0.93613945577E+02  0.98056907911E+02  0.00000000000E+00 0.  1.
         11    1    3    3    0    0  0.91392049299E+02  0.96517215554E+02 -0.13959271588E+03  0.19275426299E+03  0.00000000000E+00 0. -1.
<mgrwt>
<rscale>  0 0.19271884E+03</rscale>
<asrwt>0</asrwt>
<pdfrwt beam="2">  1        1 0.84265150E-01 0.19949490E+03</pdfrwt>
<pdfrwt beam="1">  1       -1 0.97885633E-02 0.19949490E+03</pdfrwt>
<totfact> 0.24900469E+03</totfact>
</mgrwt>
</event>
<event>
 7    1  0.8504141E-006  0.2214208E+03  0.7546771E-02  0.1134617E+00
          2   -1    0    0  501    0  0.00000000000E+00  0.00000000000E+00  0.36962532776E+03  0.36962532776E+03  0.00000000000E+00 0. -1.
         -2   -1    0    0    0  501 -0.00000000000E+00 -0.00000000000E+00 -0.12739341126E+03  0.12739341126E+03  0.00000000000E+00 0.  1.
         23    2    1    2    0    0 -0.16891455315E+03  0.27819853161E+02  0.10536438066E+03  0.23671144756E+03  0.12499834478E+03 0.  0.
          5    1    3    3  502    0 -0.34362832618E+02  0.46570186313E+02 -0.93858039534E+01  0.58819808182E+02  0.47000000000E+01 0.  1.
         -5    1    3    3    0  502 -0.13455172053E+03 -0.18750333152E+02  0.11475018461E+03  0.17789163938E+03  0.47000000000E+01 0.  1.
        -11    1    1    2    0    0  0.59131460962E+02  0.37816379491E+02  0.10860800513E+03  0.12931475945E+03  0.00000000000E+00 0. -1.
         11    1    1    2    0    0  0.10978309219E+03 -0.65636232652E+02  0.28259530710E+02  0.13099253201E+03  0.00000000000E+00 0.  1.
<mgrwt>
<rscale>  0 0.21901892E+03</rscale>
<asrwt>0</asrwt>
<pdfrwt beam="1">  1        2 0.56865435E-01 0.22142078E+03</pdfrwt>
<pdfrwt beam="2">  1       -2 0.19598986E-01 0.22142078E+03</pdfrwt>
<totfact> 0.18826865E+03</totfact>
</mgrwt>
</event>
<event>
 7    1  0.8504141E-006  0.1353450E+03  0.7546771E-02  0.1236438E+00
         -2   -1    0    0    0  501 -0.00000000000E+00  0.00000000000E+00  0.18909175680E+03  0.18909175680E+03  0.00000000000E+00 0.  1.
          2   -1    0    0  501    0  0.00000000000E+00 -0.00000000000E+00 -0.80300812257E+02  0.80300812257E+02  0.00000000000E+00 0. -1.
         23    2    1    2    0    0 -0.46726396299E+01  0.26317099969E+02  0.15159149990E-01  0.95753763896E+02  0.91947592457E+02 0.  0.
          5    1    1    2  502    0  0.35197456411E+02 -0.17886093698E+02 -0.17446762647E+02  0.43419498067E+02  0.47000000000E+01 0. -1.
         -5    1    1    2    0  502 -0.30524816781E+02 -0.84310062709E+01  0.12622254804E+03  0.13021930709E+03  0.47000000000E+01 0.  1.
        -11    1    3    3    0    0 -0.60467105814E+01  0.60867641709E+02  0.62818317503E+00  0.61170475968E+02  0.00000000000E+00 0.  1.
         11    1    3    3    0    0  0.13740709514E+01 -0.34550541740E+02 -0.61302402504E+00  0.34583287928E+02  0.00000000000E+00 0. -1.
<mgrwt>
<rscale>  0 0.12412823E+03</rscale>
<asrwt>0</asrwt>
<pdfrwt beam="2">  1        2 0.12353971E-01 0.13534498E+03</pdfrwt>
<pdfrwt beam="1">  1       -2 0.29091039E-01 0.13534498E+03</pdfrwt>
<totfact> 0.50744705E+03</totfact>
</mgrwt>
</event>
<event>
 8    1  0.8504141E-006  0.3259792E+03  0.7546771E-02  0.1074653E+00
         -2   -1    0    0    0  501 -0.00000000000E+00  0.00000000000E+00  0.68858963583E+03  0.68858963583E+03  0.00000000000E+00 0.  1.
          2   -1    0    0  501    0  0.00000000000E+00 -0.00000000000E+00 -0.17326304940E+03  0.17326304940E+03  0.00000000000E+00 0. -1.
         23    2    1    2    0    0 -0.18410946504E+03  0.23820444655E+03  0.96094965705E+02  0.33984804457E+03  0.12499918998E+03 0.  0.
         23    2    1    2    0    0  0.18410946504E+03 -0.23820444655E+03  0.41923162073E+03  0.52200464066E+03  0.78077138640E+02 0.  0.
          5    1    3    3  502    0 -0.38135043498E+01  0.43437316917E+02 -0.22290938783E+02  0.49196740422E+02  0.47000000000E+01 0. -1.
         -5    1    3    3    0  502 -0.18029596069E+03  0.19476712963E+03  0.11838590449E+03  0.29065130415E+03  0.47000000000E+01 0. -1.
        -11    1    4    4    0    0  0.16472228253E+03 -0.23716601357E+03  0.40710091812E+03  0.49911151649E+03  0.00000000000E+00 0.  1.
         11    1    4    4    0    0  0.19387182505E+02 -0.10384329789E+01  0.12130702606E+02  0.22893124169E+02  0.00000000000E+00 0. -1.
<mgrwt>
<rscale>  0 0.32217338E+03</rscale>
<asrwt>0</asrwt>
<pdfrwt beam="2">  1        2 0.26655854E-01 0.32597922E+03</pdfrwt>
<pdfrwt beam="1">  1       -2 0.10593687E+00 0.32597922E+03</pdfrwt>
<totfact> 0.15024555E+02</totfact>
</mgrwt>
</event>
<event>
 8    1  0.8504141E-006  0.4065867E+03  0.7546771E-02  0.1042284E+00
          1   -1    0    0  501    0  0.00000000000E+00  0.00000000000E+00  0.57639678372E+03  0.57639678372E+03  0.00000000000E+00 0. -1.
         -1   -1    0    0    0  501 -0.00000000000E+00 -0.00000000000E+00 -0.28976088297E+03  0.28976088297E+03  0.00000000000E+00 0.  1.
         23    2    1    2    0    0  0.36477634114E+03  0.12894208263E+03  0.67748740408E+02  0.41219251955E+03  0.12499976646E+03 0.  0.
         23    2    1    2    0    0 -0.36477634114E+03 -0.12894208263E+03  0.21888716034E+03  0.45396514715E+03  0.92113658775E+02 0.  0.
          5    1    3    3  502    0  0.14051442005E+03 -0.41390527273E+01  0.55120604538E+02  0.15106887517E+03  0.47000000000E+01 0.  1.
         -5    1    3    3    0  502  0.22426192109E+03  0.13308113536E+03  0.12628135870E+02  0.26112364438E+03  0.47000000000E+01 0.  1.
        -11    1    4    4    0    0 -0.56836644391E+02  0.12548051813E+02  0.41256824268E+02  0.71344118879E+02  0.00000000000E+00 0. -1.
         11    1    4    4    0    0 -0.30793969675E+03 -0.14149013445E+03  0.17763033607E+03  0.38262102827E+03  0.00000000000E+00 0.  1.
<mgrwt>
<rscale>  0 0.40434900E+03</rscale>
<asrwt>0</asrwt>
<pdfrwt beam="1">  1        1 0.88676428E-01 0.40658675E+03</pdfrwt>
<pdfrwt beam="2">  1       -1 0.44578598E-01 0.40658675E+03</pdfrwt>
<totfact> 0.18787787E+02</totfact>
</mgrwt>
</event>
<event>
 7    1  0.8504141E-006  0.3055397E+03  0.7546771E-02  0.1082504E+00
         -2   -1    0    0    0  501 -0.00000000000E+00  0.00000000000E+00  0.25050709546E+03  0.25050709546E+03  0.00000000000E+00 0.  1.
          2   -1    0    0  501    0  0.00000000000E+00 -0.00000000000E+00 -0.93165516866E+02  0.93165516866E+02  0.00000000000E+00 0. -1.
         23    2    1    2    0    0 -0.11687374492E+02 -0.42804876412E+02 -0.12270649447E+02  0.10216731718E+03  0.91207125239E+02 0.  0.
          5    1    1    2  502    0  0.19123778037E+02 -0.68726832346E+01 -0.29484407020E+02  0.36116103313E+02  0.47000000000E+01 0. -1.
         -5    1    1    2    0  502 -0.74364035447E+01  0.49677559647E+02  0.19909663506E+03  0.20538919183E+03  0.47000000000E+01 0.  1.
        -11    1    3    3    0    0 -0.51173251514E+02 -0.20319040642E+02 -0.13577545793E+02  0.56709036607E+02  0.00000000000E+00 0. -1.
         11    1    3    3    0    0  0.39485877022E+02 -0.22485835770E+02  0.13068963460E+01  0.45458280572E+02  0.00000000000E+00 0.  1.
<mgrwt>
<rscale>  0 0.30553967E+03</rscale>
<asrwt>0</asrwt>
<pdfrwt beam="2">  1        2 0.14333157E-01 0.30553967E+03</pdfrwt>
<pdfrwt beam="1">  1       -2 0.38539553E-01 0.30553967E+03</pdfrwt>
<totfact> 0.26347017E+03</totfact>
</mgrwt>
</event>
<event>
 8    1  0.8504141E-006  0.1332430E+03  0.7546771E-02  0.1235517E+00
          1   -1    0    0  501    0  0.00000000000E+00  0.00000000000E+00  0.97997354967E+02  0.97997354967E+02  0.00000000000E+00 0. -1.
         -1   -1    0    0    0  501 -0.00000000000E+00 -0.00000000000E+00 -0.14153775806E+03  0.14153775806E+03  0.00000000000E+00 0.  1.
         23    2    1    2    0    0 -0.26058206228E+02 -0.38076408174E+02 -0.22554160571E+02  0.13513837485E+03  0.12499938890E+03 0.  0.
         23    2    1    2    0    0  0.26058206228E+02  0.38076408174E+02 -0.20986242525E+02  0.10439673818E+03  0.91265621106E+02 0.  0.
          5    1    3    3  502    0  0.17128732375E+02 -0.28581504977E+02  0.43817092303E+02  0.55247836857E+02  0.47000000000E+01 0.  1.
         -5    1    3    3    0  502 -0.43186938603E+02 -0.94949031971E+01 -0.66371252874E+02  0.79890537992E+02  0.47000000000E+01 0.  1.
        -11    1    4    4    0    0  0.49525078983E+02  0.51032603312E+02 -0.28416017965E+02  0.76580220201E+02  0.00000000000E+00 0.  1.
         11    1    4    4    0    0 -0.23466872755E+02 -0.12956195137E+02  0.74297754407E+01  0.27816517978E+02  0.00000000000E+00 0. -1.
<mgrwt>
<rscale>  0 0.12471413E+03</rscale>
<asrwt>0</asrwt>
<pdfrwt beam="1">  1        1 0.15076516E-01 0.13324297E+03</pdfrwt>
<pdfrwt beam="2">  1       -1 0.21775040E-01 0.13324297E+03</pdfrwt>
<totfact> 0.61545547E+03</totfact>
</mgrwt>
</event>
<event>
 8    1  0.8504141E-006  0.1260101E+03  0.7546771E-02  0.1243721E+00
          2   -1    0    0  501    0  0.00000000000E+00  0.00000000000E+00  0.19655995096E+03  0.19655995096E+03  0.00000000000E+00 0. -1.
         -2   -1    0    0    0  501 -0.00000000000E+00 -0.00000000000E+00 -0.66342517252E+02  0.66342517252E+02  0.00000000000E+00 0.  1.
         23    2    1    2    0    0 -0.24045733234E+02 -0.40504652363E+02  0.69379857672E+02  0.14384749404E+03  0.11687477376E+03 0.  0.
         23    2    1    2    0    0  0.24045733234E+02  0.40504652363E+02  0.60837576032E+02  0.11905497417E+03  0.90851813776E+02 0.  0.
          5    1    3    3  502    0 -0.53306099255E+02 -0.26991840750E+02  0.87892873294E+02  0.10638301961E+03  0.47000000000E+01 0. -1.
         -5    1    3    3    0  502  0.29260366020E+02 -0.13512811613E+02 -0.18513015622E+02  0.37464474436E+02  0.47000000000E+01 0.  1.
        -11    1    4    4    0    0 -0.62681383220E+01  0.63765620632E+02  0.36229360948E+02  0.73606457103E+02  0.00000000000E+00 0. -1.
         11    1    4    4    0    0  0.30313871556E+02 -0.23260968269E+02  0.24608215085E+02  0.45448517063E+02  0.00000000000E+00 0.  1.
<mgrwt>
<rscale>  0 0.11962231E+03</rscale>
<asrwt>0</asrwt>
<pdfrwt beam="1">  1        2 0.30239992E-01 0.12601007E+03</pdfrwt>
<pdfrwt beam="2">  1       -2 0.10206541E-01 0.12601007E+03</pdfrwt>
<totfact> 0.10453018E+04</totfact>
</mgrwt>
</event>
<event>
 8    1  0.8504141E-006  0.4530075E+03  0.7546771E-02  0.1027441E+00
         -1   -1    0    0    0  501 -0.00000000000E+00  0.00000000000E+00  0.41399167143E+03  0.41399167143E+03  0.00000000000E+00 0.  1.
          1   -1    0    0  501    0  0.00000000000E+00 -0.00000000000E+00 -0.49568542747E+03  0.49568542747E+03  0.00000000000E+00 0. -1.
         23    2    1    2    0    0 -0.24368138153E+03 -0.36085331167E+03  0.19789643079E+02  0.45343954982E+03  0.12498026692E+03 0.  0.
         23    2    1    2    0    0  0.24368138153E+03  0.36085331167E+03 -0.10148339913E+03  0.45623754908E+03  0.90874048252E+02 0.  0.
          5    1    3    3  502    0 -0.17324247092E+03 -0.30878214024E+03  0.56082803433E+02  0.35850625476E+03  0.47000000000E+01 0. -1.
         -5    1    3    3    0  502 -0.70438910613E+02 -0.52071171431E+02 -0.36293160354E+02  0.94933295060E+02  0.47000000000E+01 0. -1.
        -11    1    4    4    0    0  0.21319019191E+03  0.29980069724E+03 -0.51088013177E+02  0.37140342093E+03  0.00000000000E+00 0.  1.
         11    1    4    4    0    0  0.30491189617E+02  0.61052614433E+02 -0.50395385949E+02  0.84834128146E+02  0.00000000000E+00 0. -1.
<mgrwt>
<rscale>  0 0.45094347E+03</rscale>
<asrwt>0</asrwt>
<pdfrwt beam="2">  1        1 0.76259296E-01 0.45300750E+03</pdfrwt>
<pdfrwt beam="1">  1       -1 0.63691027E-01 0.45300750E+03</pdfrwt>
<totfact> 0.11678966E+02</totfact>
</mgrwt>
</event>
<event>
 8    1  0.8504141E-006  0.1487315E+03  0.7546771E-02  0.1209737E+00
          1   -1    0    0  501    0  0.00000000000E+00  0.00000000000E+00  0.27294308717E+03  0.27294308717E+03  0.00000000000E+00 0. -1.
         -1   -1    0    0    0  501 -0.00000000000E+00 -0.00000000000E+00 -0.90787267366E+02  0.90787267366E+02  0.00000000000E+00 0.  1.
         23    2    1    2    0    0 -0.72840899506E+02 -0.34443491511E+02  0.82645651812E+01  0.14896095315E+03  0.12501564613E+03 0.  0.
         23    2    1    2    0    0  0.72840899506E+02  0.34443491511E+02  0.17389125462E+03  0.21476940138E+03  0.96930782455E+02 0.  0.
          5    1    3    3  502    0  0.28941839796E+02  0.17724050785E+02  0.17713004473E+01  0.34307427363E+02  0.47000000000E+01 0.  1.
         -5    1    3    3    0  502 -0.10178273930E+03 -0.52167542297E+02  0.64932647339E+01  0.11465352579E+03  0.47000000000E+01 0.  1.
        -11    1    4    4    0    0  0.68839689627E+02  0.52204350056E+02  0.75587641771E+02  0.11479411405E+03  0.00000000000E+00 0.  1.
         11    1    4    4    0    0  0.40012098789E+01 -0.17760858545E+02  0.98303612852E+02  0.99975287329E+02  0.00000000000E+00 0. -1.
<mgrwt>
<rscale>  0 0.14270361E+03</rscale>
<asrwt>0</asrwt>
<pdfrwt beam="1">  1        1 0.41991244E-01 0.14873151E+03</pdfrwt>
<pdfrwt beam="2">  1       -1 0.13967272E-01 0.14873151E+03</pdfrwt>
<totfact> 0.34521014E+03</totfact>
</mgrwt>
</event>
<event>
 8    1  0.8504141E-006  0.2958521E+03  0.7546771E-02  0.1088913E+00
          2   -1    0    0  501    0  0.00000000000E+00  0.00000000000E+00  0.22623901860E+03  0.22623901860E+03  0.00000000000E+00 0. -1.
         -2   -1    0    0    0  501 -0.00000000000E+00 -0.00000000000E+00 -0.40632130891E+03  0.40632130891E+03  0.00000000000E+00 0.  1.
         23    2    1    2    0    0  0.26775176346E+03 -0.14590805140E+02 -0.18478103826E+03  0.34881584143E+03  0.12499824278E+03 0.  0.
         23    2    1    2    0    0 -0.26775176346E+03  0.14590805140E+02  0.46987479530E+01  0.28374448608E+03  0.92655041501E+02 0.  0.
          5    1    3    3  502    0  0.25792255376E+03  0.10832190452E+02 -0.19012958635E+03  0.32064424163E+03  0.47000000000E+01 0. -1.
         -5    1    3    3    0  502  0.98292097083E+01 -0.25422995592E+02  0.53485480900E+01  0.28171599795E+02  0.47000000000E+01 0. -1.
        -11    1    4    4    0    0 -0.74056575196E+02  0.74895946137E+01 -0.40471310759E+02  0.84725423291E+02  0.00000000000E+00 0.  1.
         11    1    4    4    0    0 -0.19369518827E+03  0.71012105262E+01  0.45170058713E+02  0.19901906279E+03  0.00000000000E+00 0. -1.
<mgrwt>
<rscale>  0 0.29276756E+03</rscale>
<asrwt>0</asrwt>
<pdfrwt beam="1">  1        2 0.34806003E-01 0.29585209E+03</pdfrwt>
<pdfrwt beam="2">  1       -2 0.62510970E-01 0.29585209E+03</pdfrwt>
<totfact> 0.36276259E+02</totfact>
</mgrwt>
</event>
<event>
 8    1  0.8504141E-006  0.1454201E+03  0.7546771E-02  0.1215445E+00
          1   -1    0    0  501    0  0.00000000000E+00  0.00000000000E+00  0.24860761474E+03  0.24860761474E+03  0.00000000000E+00 0. -1.
         -1   -1    0    0    0  501 -0.00000000000E+00 -0.00000000000E+00 -0.86920819146E+02  0.86920819146E+02  0.00000000000E+00 0.  1.
         23    2    1    2    0    0 -0.62524307818E+02 -0.40219171908E+02  0.14745335642E+02  0.14616572696E+03  0.12498049431E+03 0.  0.
         23    2    1    2    0    0  0.62524307818E+02  0.40219171908E+02  0.14694145995E+03  0.18936270693E+03  0.93485674118E+02 0.  0.
          5    1    3    3  502    0 -0.77189016454E+02 -0.50847174848E+02 -0.30303473557E+02  0.97385676363E+02  0.47000000000E+01 0.  1.
         -5    1    3    3    0  502  0.14664708636E+02  0.10628002940E+02  0.45048809199E+02  0.48780050596E+02  0.47000000000E+01 0.  1.
        -11    1    4    4    0    0  0.18649748992E+01  0.55090777330E+02  0.52399245265E+02  0.76053617814E+02  0.00000000000E+00 0.  1.
         11    1    4    4    0    0  0.60659332919E+02 -0.14871605422E+02  0.94542214688E+02  0.11330908912E+03  0.00000000000E+00 0. -1.
<mgrwt>
<rscale>  0 0.13843876E+03</rscale>
<asrwt>0</asrwt>
<pdfrwt beam="1">  1        1 0.38247325E-01 0.14542006E+03</pdfrwt>
<pdfrwt beam="2">  1       -1 0.13372434E-01 0.14542006E+03</pdfrwt>
<totfact> 0.41430639E+03</totfact>
</mgrwt>
</event>
<event>
 8    1  0.8504141E-006  0.1900710E+03  0.7546771E-02  0.1163198E+00
          1   -1    0    0  501    0  0.00000000000E+00  0.00000000000E+00  0.12771597033E+03  0.12771597033E+03  0.00000000000E+00 0. -1.
         -1   -1    0    0    0  501 -0.00000000000E+00 -0.00000000000E+00 -0.26369676558E+03  0.26369676558E+03  0.00000000000E+00 0.  1.
         23    2    1    2    0    0 -0.44776999733E+02  0.13600708385E+03 -0.10951514811E+03  0.21936394394E+03  0.12499626264E+03 0.  0.
         23    2    1    2    0    0  0.44776999733E+02 -0.13600708385E+03 -0.26465647143E+02  0.17204879197E+03  0.91637600250E+02 0.  0.
          5    1    3    3  502    0  0.21597817403E+02  0.11441080002E+03 -0.47359447897E+02  0.12578276584E+03  0.47000000000E+01 0. -1.
         -5    1    3    3    0  502 -0.66374817136E+02  0.21596283828E+02 -0.62155700214E+02  0.93581178097E+02  0.47000000000E+01 0. -1.
        -11    1    4    4    0    0  0.16928059600E+02  0.11006406975E+02 -0.57445895572E+01  0.20992867967E+02  0.00000000000E+00 0.  1.
         11    1    4    4    0    0  0.27848940134E+02 -0.14701349082E+03 -0.20721057586E+02  0.15105592401E+03  0.00000000000E+00 0. -1.
<mgrwt>
<rscale>  0 0.18484161E+03</rscale>
<asrwt>0</asrwt>
<pdfrwt beam="1">  1        1 0.19648611E-01 0.19007097E+03</pdfrwt>
<pdfrwt beam="2">  1       -1 0.40568733E-01 0.19007097E+03</pdfrwt>
<totfact> 0.15568655E+03</totfact>
</mgrwt>
</event>
<event>
 8    1  0.8504141E-006  0.1541905E+03  0.7546771E-02  0.1202905E+00
         -2   -1    0    0    0  501 -0.00000000000E+00  0.00000000000E+00  0.25556606297E+03  0.25556606297E+03  0.00000000000E+00 0.  1.
          2   -1    0    0  501    0  0.00000000000E+00 -0.00000000000E+00 -0.79572335083E+02  0.79572335083E+02  0.00000000000E+00 0. -1.
         23    2    1    2    0    0 -0.88387234284E+02 -0.18833902132E+02  0.94261438979E+02  0.18072059700E+03  0.12493076581E+03 0.  0.
         23    2    1    2    0    0  0.88387234284E+02  0.18833902132E+02  0.81732288906E+02  0.15441780106E+03  0.94856055046E+02 0.  0.
          5    1    3    3  502    0 -0.28196731205E+02 -0.69615021675E+02  0.48189792858E+02  0.89362481104E+02  0.47000000000E+01 0. -1.
         -5    1    3    3    0  502 -0.60190503079E+02  0.50781119543E+02  0.46071646121E+02  0.91358115892E+02  0.47000000000E+01 0. -1.
        -11    1    4    4    0    0 -0.14548837535E+02  0.20065965526E+02  0.30887928500E+02  0.39602724314E+02  0.00000000000E+00 0. -1.
         11    1    4    4    0    0  0.10293607182E+03 -0.12320633935E+01  0.50844360406E+02  0.11481507674E+03  0.00000000000E+00 0.  1.
<mgrwt>
<rscale>  0 0.14803784E+03</rscale>
<asrwt>0</asrwt>
<pdfrwt beam="2">  1        2 0.12241898E-01 0.15419052E+03</pdfrwt>
<pdfrwt beam="1">  1       -2 0.39317855E-01 0.15419052E+03</pdfrwt>
<totfact> 0.29723498E+03</totfact>
</mgrwt>
</event>
<event>
 8    1  0.8504141E-006  0.1367569E+03  0.7546771E-02  0.1231304E+00
         -2   -1    0    0    0  501 -0.00000000000E+00  0.00000000000E+00  0.94897263251E+02  0.94897263251E+02  0.00000000000E+00 0.  1.
          2   -1    0    0  501    0  0.00000000000E+00 -0.00000000000E+00 -0.20822223458E+03  0.20822223458E+03  0.00000000000E+00 0. -1.
         23    2    1    2    0    0  0.17111195622E+02 -0.52770870314E+02  0.16021772986E+02  0.13769224885E+03  0.12499960166E+03 0.  0.
         23    2    1    2    0    0 -0.17111195622E+02  0.52770870314E+02 -0.12934674432E+03  0.16542724898E+03  0.86936969522E+02 0.  0.
          5    1    3    3  502    0  0.60739837250E+02 -0.34740833125E+02  0.43831212090E+02  0.82701381298E+02  0.47000000000E+01 0. -1.
         -5    1    3    3    0  502 -0.43628641628E+02 -0.18030037189E+02 -0.27809439103E+02  0.54990867556E+02  0.47000000000E+01 0. -1.
        -11    1    4    4    0    0  0.29691149007E+02  0.19891028773E+02 -0.87616884762E+02  0.94625238971E+02  0.00000000000E+00 0. -1.
         11    1    4    4    0    0 -0.46802344628E+02  0.32879841541E+02 -0.41729859554E+02  0.70802010006E+02  0.00000000000E+00 0.  1.
<mgrwt>
<rscale>  0 0.12744043E+03</rscale>
<asrwt>0</asrwt>
<pdfrwt beam="2">  1        2 0.32034190E-01 0.13675693E+03</pdfrwt>
<pdfrwt beam="1">  1       -2 0.14599579E-01 0.13675693E+03</pdfrwt>
<totfact> 0.55751314E+03</totfact>
</mgrwt>
</event>
<event>
 8    1  0.1056594E-005  0.1642014E+03  0.7546771E-02  0.1190810E+00
         -3   -1    0    0    0  501 -0.00000000000E+00  0.00000000000E+00  0.89362595539E+02  0.89362595539E+02  0.00000000000E+00 0.  1.
          3   -1    0    0  501    0  0.00000000000E+00 -0.00000000000E+00 -0.26181596375E+03  0.26181596375E+03  0.00000000000E+00 0. -1.
         23    2    1    2    0    0  0.71745533512E+02  0.78677507007E+02 -0.83268625393E+02  0.18410801395E+03  0.12499810054E+03 0.  0.
         23    2    1    2    0    0 -0.71745533512E+02 -0.78677507007E+02 -0.89184742821E+02  0.16707054534E+03  0.92849755410E+02 0.  0.
          5    1    3    3  502    0  0.10129524242E+03  0.30467914370E+02 -0.66125637766E+02  0.12483473040E+03  0.47000000000E+01 0.  1.
         -5    1    3    3    0  502 -0.29549708910E+02  0.48209592637E+02 -0.17142987627E+02  0.59273283557E+02  0.47000000000E+01 0.  1.
        -11    1    4    4    0    0  0.61806429831E+01 -0.10149573713E+02  0.15591078051E+02  0.19603466760E+02  0.00000000000E+00 0.  1.
         11    1    4    4    0    0 -0.77926176495E+02 -0.68527933294E+02 -0.10477582087E+03  0.14746707858E+03  0.00000000000E+00 0. -1.
<mgrwt>
<rscale>  0 0.15814265E+03</rscale>
<asrwt>0</asrwt>
<pdfrwt beam="2">  1        3 0.40279379E-01 0.16420139E+03</pdfrwt>
<pdfrwt beam="1">  1       -3 0.13748092E-01 0.16420139E+03</pdfrwt>
<totfact> 0.62861662E+02</totfact>
</mgrwt>
</event>
<event>
 8    1  0.8504141E-006  0.1298196E+03  0.7546771E-02  0.1240397E+00
         -2   -1    0    0    0  501 -0.00000000000E+00  0.00000000000E+00  0.29637462936E+03  0.29637462936E+03  0.00000000000E+00 0.  1.
          2   -1    0    0  501    0  0.00000000000E+00 -0.00000000000E+00 -0.80308703257E+02  0.80308703257E+02  0.00000000000E+00 0. -1.
         23    2    1    2    0    0 -0.23049678480E+02  0.26359846811E+02  0.24080362452E+03  0.27356812531E+03  0.12500801736E+03 0.  0.
         23    2    1    2    0    0  0.23049678480E+02 -0.26359846811E+02 -0.24737698419E+02  0.10311520730E+03  0.93779864854E+02 0.  0.
          5    1    3    3  502    0 -0.37828666765E+02  0.38919393469E+02  0.24679161311E+03  0.25273289758E+03  0.47000000000E+01 0.  1.
         -5    1    3    3    0  502  0.14778988285E+02 -0.12559546657E+02 -0.59879885976E+01  0.20835227726E+02  0.47000000000E+01 0.  1.
        -11    1    4    4    0    0  0.45017158199E+02 -0.48267908775E+02 -0.28442431414E+02  0.71870073429E+02  0.00000000000E+00 0. -1.
         11    1    4    4    0    0 -0.21967479720E+02  0.21908061964E+02  0.37047329948E+01  0.31245133874E+02  0.00000000000E+00 0.  1.
<mgrwt>
<rscale>  0 0.12165165E+03</rscale>
<asrwt>0</asrwt>
<pdfrwt beam="2">  1        2 0.12355185E-01 0.12981962E+03</pdfrwt>
<pdfrwt beam="1">  1       -2 0.45596096E-01 0.12981962E+03</pdfrwt>
<totfact> 0.21933895E+03</totfact>
</mgrwt>
</event>
<event>
 8    1  0.8504141E-006  0.1547966E+03  0.7546771E-02  0.1203087E+00
          2   -1    0    0  501    0  0.00000000000E+00  0.00000000000E+00  0.26968738120E+03  0.26968738120E+03  0.00000000000E+00 0. -1.
         -2   -1    0    0    0  501 -0.00000000000E+00 -0.00000000000E+00 -0.15744489105E+03  0.15744489105E+03  0.00000000000E+00 0.  1.
         23    2    1    2    0    0  0.90949175278E+02 -0.80616768591E+01 -0.96027073697E+02  0.18216249609E+03  0.12500093192E+03 0.  0.
         23    2    1    2    0    0 -0.90949175278E+02  0.80616768591E+01  0.20826956385E+03  0.24496977616E+03  0.91089169984E+02 0.  0.
          5    1    3    3  502    0  0.55900713152E+02  0.57034903548E+02 -0.58581157965E+02  0.99154989900E+02  0.47000000000E+01 0.  1.
         -5    1    3    3    0  502  0.35048462126E+02 -0.65096580407E+02 -0.37445915732E+02  0.83007506186E+02  0.47000000000E+01 0.  1.
        -11    1    4    4    0    0 -0.74563854755E+01  0.37889975978E+02  0.46016865272E+02  0.60073287353E+02  0.00000000000E+00 0.  1.
         11    1    4    4    0    0 -0.83492789802E+02 -0.29828299119E+02  0.16225269858E+03  0.18489648881E+03  0.00000000000E+00 0. -1.
<mgrwt>
<rscale>  0 0.14789228E+03</rscale>
<asrwt>0</asrwt>
<pdfrwt beam="1">  1        2 0.41490366E-01 0.15479656E+03</pdfrwt>
<pdfrwt beam="2">  1       -2 0.24222291E-01 0.15479656E+03</pdfrwt>
<totfact> 0.18134029E+03</totfact>
</mgrwt>
</event>
<event>
 8    1  0.8504141E-006  0.1650702E+03  0.7546771E-02  0.1189305E+00
         -1   -1    0    0    0  501 -0.00000000000E+00  0.00000000000E+00  0.13145056589E+03  0.13145056589E+03  0.00000000000E+00 0.  1.
          1   -1    0    0  501    0  0.00000000000E+00 -0.00000000000E+00 -0.20501189373E+03  0.20501189373E+03  0.00000000000E+00 0. -1.
         23    2    1    2    0    0  0.81974163165E+02  0.70023422215E+02  0.17962890869E+02  0.16604467765E+03  0.12500050577E+03 0.  0.
         23    2    1    2    0    0 -0.81974163165E+02 -0.70023422215E+02 -0.91524218714E+02  0.17041778197E+03  0.95092032873E+02 0.  0.
          5    1    3    3  502    0  0.86228665385E+02  0.42463087584E+01 -0.21476352462E+02  0.89088369539E+02  0.47000000000E+01 0. -1.
         -5    1    3    3    0  502 -0.42545022199E+01  0.65777113457E+02  0.39439243331E+02  0.76956308113E+02  0.47000000000E+01 0. -1.
        -11    1    4    4    0    0 -0.38584641846E+02  0.18554927098E+02 -0.14268587111E+02  0.45129286325E+02  0.00000000000E+00 0.  1.
         11    1    4    4    0    0 -0.43389521318E+02 -0.88578349313E+02 -0.77255631603E+02  0.12528849565E+03  0.00000000000E+00 0. -1.
<mgrwt>
<rscale>  0 0.15946205E+03</rscale>
<asrwt>0</asrwt>
<pdfrwt beam="2">  1        1 0.31540291E-01 0.16507020E+03</pdfrwt>
<pdfrwt beam="1">  1       -1 0.20223164E-01 0.16507020E+03</pdfrwt>
<totfact> 0.27506900E+03</totfact>
</mgrwt>
</event>
<event>
 8    1  0.8504141E-006  0.1478222E+03  0.7546771E-02  0.1212645E+00
         -1   -1    0    0    0  501 -0.00000000000E+00  0.00000000000E+00  0.20720583906E+02  0.20720583906E+02  0.00000000000E+00 0.  1.
          1   -1    0    0  501    0  0.00000000000E+00 -0.00000000000E+00 -0.90089555567E+03  0.90089555567E+03  0.00000000000E+00 0. -1.
         23    2    1    2    0    0 -0.67870512534E+02 -0.40223459304E+02 -0.56828958886E+03  0.58720051551E+03  0.12500822153E+03 0.  0.
         23    2    1    2    0    0  0.67870512534E+02  0.40223459304E+02 -0.31188538290E+03  0.33441562407E+03  0.91307088469E+02 0.  0.
          5    1    3    3  502    0 -0.79712458818E+02 -0.24694095111E+02 -0.18073637567E+03  0.19912709990E+03  0.47000000000E+01 0.  1.
         -5    1    3    3    0  502  0.11841946284E+02 -0.15529364193E+02 -0.38755321319E+03  0.38807341561E+03  0.47000000000E+01 0.  1.
        -11    1    4    4    0    0  0.43282202595E+02  0.68949570560E+02 -0.18751550482E+03  0.20442469735E+03  0.00000000000E+00 0. -1.
         11    1    4    4    0    0  0.24588309939E+02 -0.28726111256E+02 -0.12436987808E+03  0.12999092672E+03  0.00000000000E+00 0.  1.
<mgrwt>
<rscale>  0 0.14050919E+03</rscale>
<asrwt>0</asrwt>
<pdfrwt beam="2">  1        1 0.13859936E+00 0.14782215E+03</pdfrwt>
<pdfrwt beam="1">  1       -1 0.31877810E-02 0.14782215E+03</pdfrwt>
<totfact> 0.64019380E+03</totfact>
</mgrwt>
</event>
<event>
 8    1  0.8504141E-006  0.1465884E+03  0.7546771E-02  0.1214400E+00
         -2   -1    0    0    0  501 -0.00000000000E+00  0.00000000000E+00  0.21791456329E+02  0.21791456329E+02  0.00000000000E+00 0. -1.
          2   -1    0    0  501    0  0.00000000000E+00 -0.00000000000E+00 -0.81544758335E+03  0.81544758335E+03  0.00000000000E+00 0.  1.
         23    2    1    2    0    0 -0.25047459781E+02 -0.72353589324E+02 -0.46964565212E+03  0.49199104627E+03  0.12500293563E+03 0.  0.
         23    2    1    2    0    0  0.25047459781E+02  0.72353589324E+02 -0.32401047489E+03  0.34524799341E+03  0.91383652716E+02 0.  0.
          5    1    3    3  502    0 -0.17157708463E+01 -0.10135621156E+03 -0.40228131911E+03  0.41488356824E+03  0.47000000000E+01 0. -1.
         -5    1    3    3    0  502 -0.23331688935E+02  0.29002622234E+02 -0.67364333012E+02  0.77107478024E+02  0.47000000000E+01 0. -1.
        -11    1    4    4    0    0  0.55348465123E+02  0.55536824863E+02 -0.16745162555E+03  0.18489953599E+03  0.00000000000E+00 0. -1.
         11    1    4    4    0    0 -0.30301005342E+02  0.16816764460E+02 -0.15655884934E+03  0.16034845742E+03  0.00000000000E+00 0.  1.
<mgrwt>
<rscale>  0 0.13920725E+03</rscale>
<asrwt>0</asrwt>
<pdfrwt beam="2">  1        2 0.12545346E+00 0.14658837E+03</pdfrwt>
<pdfrwt beam="1">  1       -2 0.33525320E-02 0.14658837E+03</pdfrwt>
<totfact> 0.11941916E+04</totfact>
</mgrwt>
</event>
<event>
 8    1  0.8504141E-006  0.1676086E+03  0.7546771E-02  0.1186937E+00
          1   -1    0    0  501    0  0.00000000000E+00  0.00000000000E+00  0.11670689527E+03  0.11670689527E+03  0.00000000000E+00 0. -1.
         -1   -1    0    0    0  501 -0.00000000000E+00 -0.00000000000E+00 -0.24752118185E+03  0.24752118185E+03  0.00000000000E+00 0.  1.
         23    2    1    2    0    0 -0.42702514532E+02 -0.10317354341E+03 -0.14116503262E+03  0.21913513740E+03  0.12499742878E+03 0.  0.
         23    2    1    2    0    0  0.42702514532E+02  0.10317354341E+03  0.10350746034E+02  0.14509293972E+03  0.92068118294E+02 0.  0.
          5    1    3    3  502    0 -0.24872384746E+01  0.18049713163E+02  0.98972111093E+01  0.21260839312E+02  0.47000000000E+01 0.  1.
         -5    1    3    3    0  502 -0.40215276057E+02 -0.12122325658E+03 -0.15106224373E+03  0.19787429809E+03  0.47000000000E+01 0.  1.
        -11    1    4    4    0    0  0.58311411065E+01  0.93671965410E+02  0.34512584758E+02  0.99997789061E+02  0.00000000000E+00 0. -1.
         11    1    4    4    0    0  0.36871373425E+02  0.95015780039E+01 -0.24161838723E+02  0.45095150663E+02  0.00000000000E+00 0.  1.
<mgrwt>
<rscale>  0 0.16156854E+03</rscale>
<asrwt>0</asrwt>
<pdfrwt beam="1">  1        1 0.17954907E-01 0.16760860E+03</pdfrwt>
<pdfrwt beam="2">  1       -1 0.38080181E-01 0.16760860E+03</pdfrwt>
<totfact> 0.19465281E+03</totfact>
</mgrwt>
</event>
<event>
 8    1  0.8504141E-006  0.1687809E+03  0.7546771E-02  0.1185976E+00
         -1   -1    0    0    0  501 -0.00000000000E+00  0.00000000000E+00  0.21273914488E+02  0.21273914488E+02  0.00000000000E+00 0.  1.
          1   -1    0    0  501    0  0.00000000000E+00 -0.00000000000E+00 -0.11556770193E+04  0.11556770193E+04  0.00000000000E+00 0. -1.
         23    2    1    2    0    0 -0.48392079649E+02 -0.10256475709E+03 -0.61812385828E+03  0.64075275906E+03  0.12500268516E+03 0.  0.
         23    2    1    2    0    0  0.48392079649E+02  0.10256475709E+03 -0.51627924650E+03  0.53619817469E+03  0.90016106403E+02 0.  0.
          5    1    3    3  502    0 -0.86554616220E+02 -0.55988692529E+02 -0.30873723458E+03  0.32552604396E+03  0.47000000000E+01 0.  1.
         -5    1    3    3    0  502  0.38162536571E+02 -0.46576064561E+02 -0.30938662370E+03  0.31522671510E+03  0.47000000000E+01 0.  1.
        -11    1    4    4    0    0  0.16622384443E+02 -0.13610351190E+02 -0.46459163438E+02  0.51185927670E+02  0.00000000000E+00 0.  1.
         11    1    4    4    0    0  0.31769695205E+02  0.11617510828E+03 -0.46982008306E+03  0.48501224702E+03  0.00000000000E+00 0. -1.
<mgrwt>
<rscale>  0 0.16243415E+03</rscale>
<asrwt>0</asrwt>
<pdfrwt beam="2">  1        1 0.17779648E+00 0.16878091E+03</pdfrwt>
<pdfrwt beam="1">  1       -1 0.32729096E-02 0.16878091E+03</pdfrwt>
<totfact> 0.40336744E+03</totfact>
</mgrwt>
</event>
<event>
 8    1  0.8504141E-006  0.1427534E+03  0.7546771E-02  0.1219289E+00
         -3   -1    0    0    0  501 -0.00000000000E+00  0.00000000000E+00  0.27069092080E+03  0.27069092080E+03  0.00000000000E+00 0.  1.
          3   -1    0    0  501    0  0.00000000000E+00 -0.00000000000E+00 -0.62560412780E+02  0.62560412780E+02  0.00000000000E+00 0. -1.
         23    2    1    2    0    0 -0.33766226388E+02 -0.60110116769E+02  0.12963981025E+03  0.19283413267E+03  0.12500055255E+03 0.  0.
         23    2    1    2    0    0  0.33766226388E+02  0.60110116769E+02  0.78490697767E+02  0.14041720091E+03  0.93823325948E+02 0.  0.
          5    1    3    3  502    0 -0.61874727746E+02 -0.39967468183E+02  0.18148854745E+02  0.76008890106E+02  0.47000000000E+01 0.  1.
         -5    1    3    3    0  502  0.28108501359E+02 -0.20142648587E+02  0.11149095551E+03  0.11682524256E+03  0.47000000000E+01 0.  1.
        -11    1    4    4    0    0 -0.12101504116E+02  0.13579177745E+02  0.72566978026E+02  0.74811809027E+02  0.00000000000E+00 0.  1.
         11    1    4    4    0    0  0.45867730503E+02  0.46530939024E+02  0.59237197407E+01  0.65605391879E+02  0.00000000000E+00 0. -1.
<mgrwt>
<rscale>  0 0.13566162E+03</rscale>
<asrwt>0</asrwt>
<pdfrwt beam="2">  1        3 0.96246791E-02 0.14275336E+03</pdfrwt>
<pdfrwt beam="1">  1       -3 0.41644756E-01 0.14275336E+03</pdfrwt>
<totfact> 0.10489108E+03</totfact>
</mgrwt>
</event>
<event>
 7    1  0.8504141E-006  0.1290291E+03  0.7546771E-02  0.1269763E+00
          3   -1    0    0  501    0  0.00000000000E+00  0.00000000000E+00  0.20102762104E+02  0.20102762104E+02  0.00000000000E+00 0.  1.
         -3   -1    0    0    0  501 -0.00000000000E+00 -0.00000000000E+00 -0.46689484691E+03  0.46689484691E+03  0.00000000000E+00 0. -1.
         23    2    1    2    0    0 -0.28737367560E+02 -0.14073655192E+02 -0.36645675508E+03  0.38850875932E+03  0.12499839463E+03 0.  0.
          5    1    3    3  502    0 -0.19820637324E+02  0.46888168377E+02 -0.26366342456E+03  0.26857373187E+03  0.47000000000E+01 0.  1.
         -5    1    3    3    0  502 -0.89167302360E+01 -0.60961823569E+02 -0.10279333051E+03  0.11993502745E+03  0.47000000000E+01 0.  1.
        -11    1    1    2    0    0  0.22998909801E+02 -0.12621888032E+02 -0.56298103928E+02  0.62110694855E+02  0.00000000000E+00 0.  1.
         11    1    1    2    0    0  0.57384577586E+01  0.26695543224E+02 -0.24037225802E+02  0.36378154842E+02  0.00000000000E+00 0. -1.
<mgrwt>
<rscale>  0 0.10518143E+03</rscale>
<asrwt>0</asrwt>
<pdfrwt beam="1">  1        3 0.30927328E-02 0.12902908E+03</pdfrwt>
<pdfrwt beam="2">  1       -3 0.71829972E-01 0.12902908E+03</pdfrwt>
<totfact> 0.20805332E+03</totfact>
</mgrwt>
</event>
<event>
 8    1  0.8504141E-006  0.1411137E+03  0.7546771E-02  0.1223145E+00
         -1   -1    0    0    0  501 -0.00000000000E+00  0.00000000000E+00  0.43764171063E+02  0.43764171063E+02  0.00000000000E+00 0.  1.
          1   -1    0    0  501    0  0.00000000000E+00 -0.00000000000E+00 -0.39589487337E+03  0.39589487337E+03  0.00000000000E+00 0. -1.
         23    2    1    2    0    0  0.61358494952E+02 -0.22866679102E+02 -0.13287952570E+03  0.19382995841E+03  0.12500133804E+03 0.  0.
         23    2    1    2    0    0 -0.61358494952E+02  0.22866679102E+02 -0.21925117661E+03  0.24582908602E+03  0.89850493459E+02 0.  0.
          5    1    3    3  502    0  0.40012034035E+02 -0.28749593908E+02  0.88722400756E+01  0.50282289740E+02  0.47000000000E+01 0.  1.
         -5    1    3    3    0  502  0.21346460917E+02  0.58829148060E+01 -0.14175176578E+03  0.14354766867E+03  0.47000000000E+01 0.  1.
        -11    1    4    4    0    0 -0.29935842693E+02  0.54703082280E+02 -0.93756026884E+02  0.11260006424E+03  0.00000000000E+00 0.  1.
         11    1    4    4    0    0 -0.31422652259E+02 -0.31836403178E+02 -0.12549514972E+03  0.13322902179E+03  0.00000000000E+00 0. -1.
<mgrwt>
<rscale>  0 0.13294838E+03</rscale>
<asrwt>0</asrwt>
<pdfrwt beam="2">  1        1 0.60906901E-01 0.14111373E+03</pdfrwt>
<pdfrwt beam="1">  1       -1 0.67329496E-02 0.14111373E+03</pdfrwt>
<totfact> 0.66001857E+03</totfact>
</mgrwt>
</event>
<event>
 8    1  0.8504141E-006  0.1414650E+03  0.7546771E-02  0.1222090E+00
         -2   -1    0    0    0  501 -0.00000000000E+00  0.00000000000E+00  0.70985782015E+02  0.70985782015E+02  0.00000000000E+00 0.  1.
          2   -1    0    0  501    0  0.00000000000E+00 -0.00000000000E+00 -0.24805407857E+03  0.24805407857E+03  0.00000000000E+00 0. -1.
         23    2    1    2    0    0  0.42047391971E+02 -0.51180468881E+02 -0.52278964656E+02  0.15081594787E+03  0.12499974568E+03 0.  0.
         23    2    1    2    0    0 -0.42047391971E+02  0.51180468881E+02 -0.12478933190E+03  0.16822391272E+03  0.91320774671E+02 0.  0.
          5    1    3    3  502    0  0.56318148608E+02 -0.88743412418E+01  0.24215093462E+02  0.62120435820E+02  0.47000000000E+01 0. -1.
         -5    1    3    3    0  502 -0.14270756636E+02 -0.42306127640E+02 -0.76494058119E+02  0.88695512053E+02  0.47000000000E+01 0. -1.
        -11    1    4    4    0    0 -0.35126216013E+02 -0.30774663213E+01 -0.38248315427E+01  0.35467607569E+02  0.00000000000E+00 0.  1.
         11    1    4    4    0    0 -0.69211759585E+01  0.54257935203E+02 -0.12096450036E+03  0.13275630515E+03  0.00000000000E+00 0. -1.
<mgrwt>
<rscale>  0 0.13368332E+03</rscale>
<asrwt>0</asrwt>
<pdfrwt beam="2">  1        2 0.38162166E-01 0.14146505E+03</pdfrwt>
<pdfrwt beam="1">  1       -2 0.10920890E-01 0.14146505E+03</pdfrwt>
<totfact> 0.73823015E+03</totfact>
</mgrwt>
</event>
<event>
 8    1  0.8504141E-006  0.1714185E+03  0.7546771E-02  0.1182785E+00
         -1   -1    0    0    0  501 -0.00000000000E+00  0.00000000000E+00  0.39893180762E+02  0.39893180762E+02  0.00000000000E+00 0.  1.
          1   -1    0    0  501    0  0.00000000000E+00 -0.00000000000E+00 -0.65559903727E+03  0.65559903727E+03  0.00000000000E+00 0. -1.
         23    2    1    2    0    0 -0.18687865064E+02 -0.11580712375E+03 -0.27775632705E+03  0.32639377448E+03  0.12499517027E+03 0.  0.
         23    2    1    2    0    0  0.18687865064E+02  0.11580712375E+03 -0.33794952946E+03  0.36909844356E+03  0.90902422193E+02 0.  0.
          5    1    3    3  502    0  0.14174295430E+02 -0.71787461489E+02 -0.25737063431E+03  0.26761181529E+03  0.47000000000E+01 0. -1.
         -5    1    3    3    0  502 -0.32862160493E+02 -0.44019662258E+02 -0.20385692739E+02  0.58781959188E+02  0.47000000000E+01 0. -1.
        -11    1    4    4    0    0 -0.35718686409E+02  0.40562885015E+02 -0.99952438417E+02  0.11362949505E+03  0.00000000000E+00 0.  1.
         11    1    4    4    0    0  0.54406551472E+02  0.75244238732E+02 -0.23799709105E+03  0.25546894851E+03  0.00000000000E+00 0. -1.
<mgrwt>
<rscale>  0 0.16535024E+03</rscale>
<asrwt>0</asrwt>
<pdfrwt beam="2">  1        1 0.10086139E+00 0.17141855E+03</pdfrwt>
<pdfrwt beam="1">  1       -1 0.61374125E-02 0.17141855E+03</pdfrwt>
<totfact> 0.39303177E+03</totfact>
</mgrwt>
</event>
<event>
 8    1  0.8504141E-006  0.1298498E+03  0.7546771E-02  0.1242190E+00
          1   -1    0    0  501    0  0.00000000000E+00  0.00000000000E+00  0.35895188284E+03  0.35895188284E+03  0.00000000000E+00 0. -1.
         -1   -1    0    0    0  501 -0.00000000000E+00 -0.00000000000E+00 -0.35839790226E+02  0.35839790226E+02  0.00000000000E+00 0.  1.
         23    2    1    2    0    0 -0.26825500290E+02  0.22594509511E+02  0.17191664457E+03  0.21544444821E+03  0.12502343084E+03 0.  0.
         23    2    1    2    0    0  0.26825500290E+02 -0.22594509511E+02  0.15119544804E+03  0.17934722485E+03  0.89862362685E+02 0.  0.
          5    1    3    3  502    0 -0.40847758106E+02  0.61093180717E+02  0.15355489871E+03  0.17030006750E+03  0.47000000000E+01 0. -1.
         -5    1    3    3    0  502  0.14022257816E+02 -0.38498671206E+02  0.18361745856E+02  0.45144380710E+02  0.47000000000E+01 0. -1.
        -11    1    4    4    0    0  0.48121323929E+02 -0.16989755964E+02  0.36965312944E+02  0.63013871373E+02  0.00000000000E+00 0.  1.
         11    1    4    4    0    0 -0.21295823640E+02 -0.56047535477E+01  0.11423013510E+03  0.11633335348E+03  0.00000000000E+00 0. -1.
<mgrwt>
<rscale>  0 0.12055152E+03</rscale>
<asrwt>0</asrwt>
<pdfrwt beam="1">  1        1 0.55223364E-01 0.12984983E+03</pdfrwt>
<pdfrwt beam="2">  1       -1 0.55138141E-02 0.12984983E+03</pdfrwt>
<totfact> 0.99945078E+03</totfact>
</mgrwt>
</event>
<event>
 8    1  0.8504141E-006  0.1404081E+03  0.7546771E-02  0.1223447E+00
          1   -1    0    0  501    0  0.00000000000E+00  0.00000000000E+00  0.13428601877E+03  0.13428601877E+03  0.00000000000E+00 0. -1.
         -1   -1    0    0    0  501 -0.00000000000E+00 -0.00000000000E+00 -0.17610553871E+03  0.17610553871E+03  0.00000000000E+00 0.  1.
         23    2    1    2    0    0  0.52830977211E+02 -0.36213806754E+02 -0.11067719963E+03  0.17878443968E+03  0.12494751459E+03 0.  0.
         23    2    1    2    0    0 -0.52830977211E+02  0.36213806754E+02  0.68857679679E+02  0.13160711780E+03  0.92067917599E+02 0.  0.
          5    1    3    3  502    0  0.22627212395E+02 -0.27026492541E+02  0.22337537326E+02  0.41993780654E+02  0.47000000000E+01 0.  1.
         -5    1    3    3    0  502  0.30203764816E+02 -0.91873142130E+01 -0.13301473695E+03  0.13679065903E+03  0.47000000000E+01 0.  1.
        -11    1    4    4    0    0 -0.51851788444E+02 -0.37592604324E+01  0.74893625638E+02  0.91169047187E+02  0.00000000000E+00 0. -1.
         11    1    4    4    0    0 -0.97918876755E+00  0.39973067186E+02 -0.60359459592E+01  0.40438070609E+02  0.00000000000E+00 0.  1.
<mgrwt>
<rscale>  0 0.13273948E+03</rscale>
<asrwt>0</asrwt>
<pdfrwt beam="1">  1        1 0.20659388E-01 0.14040810E+03</pdfrwt>
<pdfrwt beam="2">  1       -1 0.27093160E-01 0.14040810E+03</pdfrwt>
<totfact> 0.28821249E+03</totfact>
</mgrwt>
</event>
<event>
 8    1  0.8504141E-006  0.1421487E+03  0.7546771E-02  0.1221457E+00
          1   -1    0    0  501    0  0.00000000000E+00  0.00000000000E+00  0.13129560175E+04  0.13129560175E+04  0.00000000000E+00 0. -1.
         -1   -1    0    0    0  501 -0.00000000000E+00 -0.00000000000E+00 -0.12364732638E+02  0.12364732638E+02  0.00000000000E+00 0.  1.
         23    2    1    2    0    0 -0.21051511672E+02  0.64313206885E+02  0.72418248579E+03  0.73800171204E+03  0.12500759788E+03 0.  0.
         23    2    1    2    0    0  0.21051511672E+02 -0.64313206885E+02  0.57640879905E+03  0.58731903808E+03  0.90095472357E+02 0.  0.
          5    1    3    3  502    0 -0.63169410642E+02  0.26860577959E+02  0.56291662046E+03  0.56710587784E+03  0.47000000000E+01 0. -1.
         -5    1    3    3    0  502  0.42117898970E+02  0.37452628926E+02  0.16126586532E+03  0.17089583419E+03  0.47000000000E+01 0. -1.
        -11    1    4    4    0    0  0.46880348119E+02 -0.71782921372E+02  0.44656427315E+03  0.45471991918E+03  0.00000000000E+00 0. -1.
         11    1    4    4    0    0 -0.25828836448E+02  0.74697144872E+01  0.12984452590E+03  0.13259911890E+03  0.00000000000E+00 0.  1.
<mgrwt>
<rscale>  0 0.13412752E+03</rscale>
<asrwt>0</asrwt>
<pdfrwt beam="1">  1        1 0.20199312E+00 0.14214870E+03</pdfrwt>
<pdfrwt beam="2">  1       -1 0.19022676E-02 0.14214870E+03</pdfrwt>
<totfact> 0.68983482E+03</totfact>
</mgrwt>
</event>
<event>
 8    1  0.8504141E-006  0.1268302E+03  0.7546771E-02  0.1247119E+00
          1   -1    0    0  501    0  0.00000000000E+00  0.00000000000E+00  0.66010525430E+03  0.66010525430E+03  0.00000000000E+00 0. -1.
         -1   -1    0    0    0  501 -0.00000000000E+00 -0.00000000000E+00 -0.21209631403E+02  0.21209631403E+02  0.00000000000E+00 0.  1.
         23    2    1    2    0    0 -0.31098822913E+00  0.14461683800E+02  0.23884594690E+03  0.27043165912E+03  0.12600261462E+03 0.  0.
         23    2    1    2    0    0  0.31098822913E+00 -0.14461683800E+02  0.40004967600E+03  0.41088322659E+03  0.92606941497E+02 0.  0.
          5    1    3    3  502    0 -0.48757195328E+02 -0.55063876744E+01  0.36436676255E+02  0.61296865972E+02  0.47000000000E+01 0. -1.
         -5    1    3    3    0  502  0.48446207099E+02  0.19968071474E+02  0.20240927064E+03  0.20913479314E+03  0.47000000000E+01 0.  1.
        -11    1    4    4    0    0 -0.40492952553E+01  0.38080343249E+02  0.21860515108E+03  0.22193404744E+03  0.00000000000E+00 0. -1.
         11    1    4    4    0    0  0.43602834844E+01 -0.52542027048E+02  0.18144452492E+03  0.18894917915E+03  0.00000000000E+00 0.  1.
<mgrwt>
<rscale>  0 0.11759434E+03</rscale>
<asrwt>0</asrwt>
<pdfrwt beam="1">  1        1 0.10155464E+00 0.12683019E+03</pdfrwt>
<pdfrwt beam="2">  1       -1 0.32630207E-02 0.12683019E+03</pdfrwt>
<totfact> 0.97451229E+03</totfact>
</mgrwt>
</event>
<event>
 8    1  0.8504141E-006  0.1359734E+03  0.7546771E-02  0.1230907E+00
          1   -1    0    0  501    0  0.00000000000E+00  0.00000000000E+00  0.47106931074E+03  0.47106931074E+03  0.00000000000E+00 0. -1.
         -1   -1    0    0    0  501 -0.00000000000E+00 -0.00000000000E+00 -0.34105190388E+02  0.34105190388E+02  0.00000000000E+00 0.  1.
         23    2    1    2    0    0  0.24594493445E+02 -0.47525906344E+02  0.16784035104E+03  0.21600728763E+03  0.12500065596E+03 0.  0.
         23    2    1    2    0    0 -0.24594493445E+02  0.47525906344E+02  0.26912376931E+03  0.28916721350E+03  0.91249511077E+02 0.  0.
          5    1    3    3  502    0 -0.66314925124E+01  0.35812884705E+02  0.16245567239E+02  0.40156541917E+02  0.47000000000E+01 0. -1.
         -5    1    3    3    0  502  0.31225985958E+02 -0.83338791049E+02  0.15159478381E+03  0.17585074572E+03  0.47000000000E+01 0. -1.
        -11    1    4    4    0    0 -0.53149845041E+02  0.28701824931E+02  0.10170249504E+03  0.11828820009E+03  0.00000000000E+00 0.  1.
         11    1    4    4    0    0  0.28555351596E+02  0.18824081413E+02  0.16742127427E+03  0.17087901341E+03  0.00000000000E+00 0. -1.
<mgrwt>
<rscale>  0 0.12770108E+03</rscale>
<asrwt>0</asrwt>
<pdfrwt beam="1">  1        1 0.72472197E-01 0.13597340E+03</pdfrwt>
<pdfrwt beam="2">  1       -1 0.52469527E-02 0.13597340E+03</pdfrwt>
<totfact> 0.76507303E+03</totfact>
</mgrwt>
</event>
<event>
 8    1  0.8504141E-006  0.1830286E+03  0.7546771E-02  0.1170403E+00
          1   -1    0    0  501    0  0.00000000000E+00  0.00000000000E+00  0.36268683238E+03  0.36268683238E+03  0.00000000000E+00 0. -1.
         -1   -1    0    0    0  501 -0.00000000000E+00 -0.00000000000E+00 -0.82171429747E+02  0.82171429747E+02  0.00000000000E+00 0.  1.
         23    2    1    2    0    0  0.12501140094E+03 -0.47408241383E+02  0.16533073528E+03  0.24664489332E+03  0.12499623857E+03 0.  0.
         23    2    1    2    0    0 -0.12501140094E+03  0.47408241383E+02  0.11518466735E+03  0.19821336880E+03  0.90253200855E+02 0.  0.
          5    1    3    3  502    0  0.26622802729E+02  0.38051517308E+02  0.18355040566E+02  0.50156645709E+02  0.47000000000E+01 0.  1.
         -5    1    3    3    0  502  0.98388598208E+02 -0.85459758691E+02  0.14697569471E+03  0.19648824761E+03  0.47000000000E+01 0.  1.
        -11    1    4    4    0    0 -0.84838679687E+02  0.74437443766E+02  0.78967192738E+02  0.13774742152E+03  0.00000000000E+00 0.  1.
         11    1    4    4    0    0 -0.40172721250E+02 -0.27029202383E+02  0.36217474611E+02  0.60465947287E+02  0.00000000000E+00 0. -1.
<mgrwt>
<rscale>  0 0.17733918E+03</rscale>
<asrwt>0</asrwt>
<pdfrwt beam="1">  1        1 0.55797973E-01 0.18302855E+03</pdfrwt>
<pdfrwt beam="2">  1       -1 0.12641759E-01 0.18302855E+03</pdfrwt>
<totfact> 0.28524978E+03</totfact>
</mgrwt>
</event>
<event>
 8    1  0.8504141E-006  0.2687922E+03  0.7546771E-02  0.1104017E+00
         -3   -1    0    0    0  501 -0.00000000000E+00  0.00000000000E+00  0.85861547605E+03  0.85861547605E+03  0.00000000000E+00 0.  1.
          3   -1    0    0  501    0  0.00000000000E+00 -0.00000000000E+00 -0.83955804290E+02  0.83955804290E+02  0.00000000000E+00 0. -1.
         23    2    1    2    0    0  0.22850925661E+03 -0.66390246059E+02  0.50086766638E+03  0.56843439287E+03  0.12500037859E+03 0.  0.
         23    2    1    2    0    0 -0.22850925661E+03  0.66390246059E+02  0.27379200538E+03  0.37413688747E+03  0.91608969139E+02 0.  0.
          5    1    3    3  502    0  0.14789310585E+03 -0.79009234786E+02  0.22456773347E+03  0.28029910249E+03  0.47000000000E+01 0.  1.
         -5    1    3    3    0  502  0.80616150758E+02  0.12618988727E+02  0.27629993291E+03  0.28813529038E+03  0.47000000000E+01 0.  1.
        -11    1    4    4    0    0 -0.11966343947E+03  0.69448774912E+02  0.19766545482E+03  0.24127598951E+03  0.00000000000E+00 0.  1.
         11    1    4    4    0    0 -0.10884581714E+03 -0.30585288525E+01  0.76126550557E+02  0.13286089796E+03  0.00000000000E+00 0. -1.
<mgrwt>
<rscale>  0 0.26527132E+03</rscale>
<asrwt>0</asrwt>
<pdfrwt beam="2">  1        3 0.12916278E-01 0.26879219E+03</pdfrwt>
<pdfrwt beam="1">  1       -3 0.13209468E+00 0.26879219E+03</pdfrwt>
<totfact> 0.56093897E+01</totfact>
</mgrwt>
</event>
<event>
 8    1  0.8504141E-006  0.1619758E+03  0.7546771E-02  0.1194299E+00
          1   -1    0    0  501    0  0.00000000000E+00  0.00000000000E+00  0.24118411209E+03  0.24118411209E+03  0.00000000000E+00 0. -1.
         -1   -1    0    0    0  501 -0.00000000000E+00 -0.00000000000E+00 -0.92283678984E+02  0.92283678984E+02  0.00000000000E+00 0.  1.
         23    2    1    2    0    0 -0.38967344211E+02 -0.95362129560E+02  0.85107098294E+02  0.18297367898E+03  0.12499503730E+03 0.  0.
         23    2    1    2    0    0  0.38967344211E+02  0.95362129560E+02  0.63793334816E+02  0.15049411210E+03  0.89255243765E+02 0.  0.
          5    1    3    3  502    0 -0.68609217658E+02 -0.73029059790E+02  0.10097978152E+03  0.14233578116E+03  0.47000000000E+01 0. -1.
         -5    1    3    3    0  502  0.29641873447E+02 -0.22333069770E+02 -0.15872683226E+02  0.40637897825E+02  0.47000000000E+01 0. -1.
        -11    1    4    4    0    0  0.32962688662E+02  0.17661859373E+01  0.43377659119E+02  0.54509444753E+02  0.00000000000E+00 0. -1.
         11    1    4    4    0    0  0.60046555492E+01  0.93595943623E+02  0.20415675697E+02  0.95984667344E+02  0.00000000000E+00 0.  1.
<mgrwt>
<rscale>  0 0.15513686E+03</rscale>
<asrwt>0</asrwt>
<pdfrwt beam="1">  1        1 0.37105248E-01 0.16197577E+03</pdfrwt>
<pdfrwt beam="2">  1       -1 0.14197489E-01 0.16197577E+03</pdfrwt>
<totfact> 0.39396168E+03</totfact>
</mgrwt>
</event>
<event>
 8    1  0.8504141E-006  0.1809078E+03  0.7546771E-02  0.1172980E+00
          2   -1    0    0  501    0  0.00000000000E+00  0.00000000000E+00  0.35821385114E+03  0.35821385114E+03  0.00000000000E+00 0. -1.
         -2   -1    0    0    0  501 -0.00000000000E+00 -0.00000000000E+00 -0.13382692721E+03  0.13382692721E+03  0.00000000000E+00 0.  1.
         23    2    1    2    0    0 -0.86980894935E+02 -0.97656633298E+02 -0.39076734566E+02  0.18508002869E+03  0.12500052690E+03 0.  0.
         23    2    1    2    0    0  0.86980894935E+02  0.97656633298E+02  0.26346365850E+03  0.30696074966E+03  0.87802667228E+02 0.  0.
          5    1    3    3  502    0  0.25761273476E+02 -0.53800070419E+02 -0.13842771393E+02  0.61415007190E+02  0.47000000000E+01 0.  1.
         -5    1    3    3    0  502 -0.11274216841E+03 -0.43856562878E+02 -0.25233963173E+02  0.12366502150E+03  0.47000000000E+01 0.  1.
        -11    1    4    4    0    0  0.62782392308E+02  0.41743782096E+02  0.65626428127E+02  0.99954990853E+02  0.00000000000E+00 0.  1.
         11    1    4    4    0    0  0.24198502627E+02  0.55912851202E+02  0.19783723037E+03  0.20700575881E+03  0.00000000000E+00 0. -1.
<mgrwt>
<rscale>  0 0.17475324E+03</rscale>
<asrwt>0</asrwt>
<pdfrwt beam="1">  1        2 0.55109823E-01 0.18090778E+03</pdfrwt>
<pdfrwt beam="2">  1       -2 0.20588758E-01 0.18090778E+03</pdfrwt>
<totfact> 0.17811080E+03</totfact>
</mgrwt>
</event>
<event>
 8    1  0.8504141E-006  0.1307468E+03  0.7546771E-02  0.1239036E+00
          1   -1    0    0  501    0  0.00000000000E+00  0.00000000000E+00  0.23834247432E+03  0.23834247432E+03  0.00000000000E+00 0. -1.
         -1   -1    0    0    0  501 -0.00000000000E+00 -0.00000000000E+00 -0.57968961967E+02  0.57968961967E+02  0.00000000000E+00 0.  1.
         23    2    1    2    0    0  0.72346210304E+01 -0.37656564985E+02  0.75897249118E+02  0.15117907603E+03  0.12499745589E+03 0.  0.
         23    2    1    2    0    0 -0.72346210304E+01  0.37656564985E+02  0.10447626324E+03  0.14513236026E+03  0.93154472712E+02 0.  0.
          5    1    3    3  502    0 -0.44556634108E+01  0.14811465365E+02 -0.29008871290E+02  0.33208990593E+02  0.47000000000E+01 0. -1.
         -5    1    3    3    0  502  0.11690284441E+02 -0.52468030350E+02  0.10490612041E+03  0.11797008544E+03  0.47000000000E+01 0. -1.
        -11    1    4    4    0    0 -0.45193731776E+01  0.55390166991E+02  0.20458113605E+02  0.59220180222E+02  0.00000000000E+00 0.  1.
         11    1    4    4    0    0 -0.27152478528E+01 -0.17733602007E+02  0.84018149633E+02  0.85912180037E+02  0.00000000000E+00 0. -1.
<mgrwt>
<rscale>  0 0.12249586E+03</rscale>
<asrwt>0</asrwt>
<pdfrwt beam="1">  1        1 0.36668072E-01 0.13074678E+03</pdfrwt>
<pdfrwt beam="2">  1       -1 0.89183020E-02 0.13074678E+03</pdfrwt>
<totfact> 0.80759391E+03</totfact>
</mgrwt>
</event>
<event>
 8    1  0.8504141E-006  0.1469043E+03  0.7546771E-02  0.1214058E+00
          2   -1    0    0  501    0  0.00000000000E+00  0.00000000000E+00  0.66850244828E+03  0.66850244828E+03  0.00000000000E+00 0. -1.
         -2   -1    0    0    0  501 -0.00000000000E+00 -0.00000000000E+00 -0.27910485481E+02  0.27910485481E+02  0.00000000000E+00 0.  1.
         23    2    1    2    0    0  0.11624044306E+02 -0.76286516923E+02  0.27405062395E+03  0.31094149136E+03  0.12500446188E+03 0.  0.
         23    2    1    2    0    0 -0.11624044306E+02  0.76286516923E+02  0.36654133885E+03  0.38547144241E+03  0.90999608540E+02 0.  0.
          5    1    3    3  502    0 -0.55804978518E+02 -0.22601229663E+02  0.10499952110E+03  0.12112803408E+03  0.47000000000E+01 0. -1.
         -5    1    3    3    0  502  0.67429022824E+02 -0.53685287260E+02  0.16905110286E+03  0.18981345728E+03  0.47000000000E+01 0. -1.
        -11    1    4    4    0    0  0.92527428178E+01 -0.19187312832E+02  0.55983676801E+02  0.59899401428E+02  0.00000000000E+00 0.  1.
         11    1    4    4    0    0 -0.20876787124E+02  0.95473829755E+02  0.31055766205E+03  0.32557204098E+03  0.00000000000E+00 0. -1.
<mgrwt>
<rscale>  0 0.13945950E+03</rscale>
<asrwt>0</asrwt>
<pdfrwt beam="1">  1        2 0.10284652E+00 0.14690428E+03</pdfrwt>
<pdfrwt beam="2">  1       -2 0.42939213E-02 0.14690428E+03</pdfrwt>
<totfact> 0.10522877E+04</totfact>
</mgrwt>
</event>
<event>
 8    1  0.8504141E-006  0.2140914E+03  0.7546771E-02  0.1142014E+00
         -1   -1    0    0    0  501 -0.00000000000E+00  0.00000000000E+00  0.27889620157E+03  0.27889620157E+03  0.00000000000E+00 0.  1.
          1   -1    0    0  501    0  0.00000000000E+00 -0.00000000000E+00 -0.15214348667E+03  0.15214348667E+03  0.00000000000E+00 0. -1.
         23    2    1    2    0    0 -0.34662261502E+02 -0.17031818708E+03  0.45891911240E+02  0.21895473221E+03  0.12500140006E+03 0.  0.
         23    2    1    2    0    0  0.34662261502E+02  0.17031818708E+03  0.80860803661E+02  0.21208495602E+03  0.90729277410E+02 0.  0.
          5    1    3    3  502    0 -0.39927904147E+02 -0.17445349832E+03  0.69479507390E+01  0.17916089034E+03  0.47000000000E+01 0.  1.
         -5    1    3    3    0  502  0.52656426450E+01  0.41353112420E+01  0.38943960501E+02  0.39793841873E+02  0.47000000000E+01 0.  1.
        -11    1    4    4    0    0  0.38923297381E+02  0.14557619812E+03  0.99708809191E+02  0.18069117070E+03  0.00000000000E+00 0.  1.
         11    1    4    4    0    0 -0.42610358789E+01  0.24741988964E+02 -0.18848005530E+02  0.31393785327E+02  0.00000000000E+00 0. -1.
<mgrwt>
<rscale>  0 0.20943510E+03</rscale>
<asrwt>0</asrwt>
<pdfrwt beam="2">  1        1 0.23406690E-01 0.21409135E+03</pdfrwt>
<pdfrwt beam="1">  1       -1 0.42907108E-01 0.21409135E+03</pdfrwt>
<totfact> 0.11289696E+03</totfact>
</mgrwt>
</event>
<event>
 8    1  0.8504141E-006  0.1371093E+03  0.7546771E-02  0.1229251E+00
          2   -1    0    0  501    0  0.00000000000E+00  0.00000000000E+00  0.14014750509E+03  0.14014750509E+03  0.00000000000E+00 0. -1.
         -2   -1    0    0    0  501 -0.00000000000E+00 -0.00000000000E+00 -0.16359301834E+03  0.16359301834E+03  0.00000000000E+00 0.  1.
         23    2    1    2    0    0  0.38435065227E+02  0.41196666540E+02 -0.10225318641E+03  0.17103995125E+03  0.12499812487E+03 0.  0.
         23    2    1    2    0    0 -0.38435065227E+02 -0.41196666540E+02  0.78807673151E+02  0.13270057218E+03  0.90688328552E+02 0.  0.
          5    1    3    3  502    0  0.23010815540E+02  0.75938438688E+02 -0.22569960194E+02  0.82629517761E+02  0.47000000000E+01 0.  1.
         -5    1    3    3    0  502  0.15424249687E+02 -0.34741772148E+02 -0.79683226213E+02  0.88410433491E+02  0.47000000000E+01 0.  1.
        -11    1    4    4    0    0 -0.62058111144E+02 -0.33321632033E+02  0.27400428217E+02  0.75579916556E+02  0.00000000000E+00 0.  1.
         11    1    4    4    0    0  0.23623045917E+02 -0.78750345064E+01  0.51407244934E+02  0.57120655621E+02  0.00000000000E+00 0. -1.
<mgrwt>
<rscale>  0 0.12879751E+03</rscale>
<asrwt>0</asrwt>
<pdfrwt beam="1">  1        2 0.21561155E-01 0.13710927E+03</pdfrwt>
<pdfrwt beam="2">  1       -2 0.25168157E-01 0.13710927E+03</pdfrwt>
<totfact> 0.34405286E+03</totfact>
</mgrwt>
</event>
<event>
 8    1  0.8504141E-006  0.1366147E+03  0.7546771E-02  0.1230624E+00
         -1   -1    0    0    0  501 -0.00000000000E+00  0.00000000000E+00  0.48067815733E+03  0.48067815733E+03  0.00000000000E+00 0.  1.
          1   -1    0    0  501    0  0.00000000000E+00 -0.00000000000E+00 -0.30363953505E+02  0.30363953505E+02  0.00000000000E+00 0. -1.
         23    2    1    2    0    0  0.16669384392E+02  0.52539451038E+02  0.26185278139E+03  0.29534802267E+03  0.12500125231E+03 0.  0.
         23    2    1    2    0    0 -0.16669384392E+02 -0.52539451038E+02  0.18846142243E+03  0.21569408816E+03  0.89263484322E+02 0.  0.
          5    1    3    3  502    0 -0.31744757943E+00 -0.38700920780E+02  0.11629611550E+03  0.12265699541E+03  0.47000000000E+01 0.  1.
         -5    1    3    3    0  502  0.16986831971E+02  0.91240371819E+02  0.14555666589E+03  0.17269102726E+03  0.47000000000E+01 0.  1.
        -11    1    4    4    0    0 -0.27634335302E+02 -0.34052969770E+02  0.18917178076E+03  0.19418862962E+03  0.00000000000E+00 0.  1.
         11    1    4    4    0    0  0.10964950910E+02 -0.18486481269E+02 -0.71035833225E+00  0.21505458542E+02  0.00000000000E+00 0. -1.
<mgrwt>
<rscale>  0 0.12788744E+03</rscale>
<asrwt>0</asrwt>
<pdfrwt beam="2">  1        1 0.46713778E-02 0.13661470E+03</pdfrwt>
<pdfrwt beam="1">  1       -1 0.73950480E-01 0.13661470E+03</pdfrwt>
<totfact> 0.33775453E+03</totfact>
</mgrwt>
</event>
<event>
 8    1  0.8504141E-006  0.1430814E+03  0.7546771E-02  0.1220066E+00
         -2   -1    0    0    0  501 -0.00000000000E+00  0.00000000000E+00  0.60976650061E+02  0.60976650061E+02  0.00000000000E+00 0.  1.
          2   -1    0    0  501    0  0.00000000000E+00 -0.00000000000E+00 -0.27172975559E+03  0.27172975559E+03  0.00000000000E+00 0. -1.
         23    2    1    2    0    0  0.69528595868E+02  0.37933605475E+01 -0.10606585943E+03  0.17810745239E+03  0.12499473122E+03 0.  0.
         23    2    1    2    0    0 -0.69528595868E+02 -0.37933605475E+01 -0.10468724609E+03  0.15459895326E+03  0.89960000146E+02 0.  0.
          5    1    3    3  502    0 -0.15185671658E+02  0.13627127511E+02  0.17913075859E+02  0.27554881866E+02  0.47000000000E+01 0. -1.
         -5    1    3    3    0  502  0.84714267526E+02 -0.98337669640E+01 -0.12397893529E+03  0.15055257053E+03  0.47000000000E+01 0. -1.
        -11    1    4    4    0    0 -0.74245511620E+01 -0.20532228841E+02 -0.84365206158E+02  0.87144617684E+02  0.00000000000E+00 0. -1.
         11    1    4    4    0    0 -0.62104044706E+02  0.16738868294E+02 -0.20322039935E+02  0.67454335574E+02  0.00000000000E+00 0.  1.
<mgrwt>
<rscale>  0 0.13510929E+03</rscale>
<asrwt>0</asrwt>
<pdfrwt beam="2">  1        2 0.41804578E-01 0.14308144E+03</pdfrwt>
<pdfrwt beam="1">  1       -2 0.93810230E-02 0.14308144E+03</pdfrwt>
<totfact> 0.85176949E+03</totfact>
</mgrwt>
</event>
<event>
 8    1  0.8504141E-006  0.1260325E+03  0.7546771E-02  0.1248083E+00
          1   -1    0    0  501    0  0.00000000000E+00  0.00000000000E+00  0.30667606210E+03  0.30667606210E+03  0.00000000000E+00 0. -1.
         -1   -1    0    0    0  501 -0.00000000000E+00 -0.00000000000E+00 -0.41381398978E+02  0.41381398978E+02  0.00000000000E+00 0.  1.
         23    2    1    2    0    0  0.39902098025E+01  0.15592618963E+02  0.11311702271E+03  0.16935064234E+03  0.12500051078E+03 0.  0.
         23    2    1    2    0    0 -0.39902098025E+01 -0.15592618963E+02  0.15217764042E+03  0.17870681874E+03  0.92298652648E+02 0.  0.
          5    1    3    3  502    0  0.61509504287E+02  0.15537941478E+01  0.34109070296E+02  0.70507815669E+02  0.47000000000E+01 0. -1.
         -5    1    3    3    0  502 -0.57519294485E+02  0.14038824816E+02  0.79007952409E+02  0.98842826670E+02  0.47000000000E+01 0. -1.
        -11    1    4    4    0    0 -0.48242159858E+01  0.36602088257E+02  0.37081995850E+02  0.52326478391E+02  0.00000000000E+00 0.  1.
         11    1    4    4    0    0  0.83400618330E+00 -0.52194707220E+02  0.11509564457E+03  0.12638034035E+03  0.00000000000E+00 0. -1.
<mgrwt>
<rscale>  0 0.11702720E+03</rscale>
<asrwt>0</asrwt>
<pdfrwt beam="1">  1        1 0.47180931E-01 0.12603245E+03</pdfrwt>
<pdfrwt beam="2">  1       -1 0.63663692E-02 0.12603245E+03</pdfrwt>
<totfact> 0.97900977E+03</totfact>
</mgrwt>
</event>
<event>
 8    1  0.8504141E-006  0.1567413E+03  0.7546771E-02  0.1200436E+00
          1   -1    0    0  501    0  0.00000000000E+00  0.00000000000E+00  0.33935860614E+03  0.33935860614E+03  0.00000000000E+00 0. -1.
         -1   -1    0    0    0  501 -0.00000000000E+00 -0.00000000000E+00 -0.71342575525E+02  0.71342575525E+02  0.00000000000E+00 0.  1.
         23    2    1    2    0    0  0.94556503055E+02 -0.27621676612E-01  0.67015424204E+02  0.17046667313E+03  0.12500754591E+03 0.  0.
         23    2    1    2    0    0 -0.94556503055E+02  0.27621676612E-01  0.20100060641E+03  0.24023450853E+03  0.91490121214E+02 0.  0.
          5    1    3    3  502    0  0.22342070151E+02  0.48154435738E+02  0.64259969725E+02  0.83483240767E+02  0.47000000000E+01 0. -1.
         -5    1    3    3    0  502  0.72214432904E+02 -0.48182057415E+02  0.27554544794E+01  0.86983432364E+02  0.47000000000E+01 0. -1.
        -11    1    4    4    0    0 -0.11796660506E+02 -0.38509792478E+02  0.62403901554E+02  0.74272553779E+02  0.00000000000E+00 0.  1.
         11    1    4    4    0    0 -0.82759842549E+02  0.38537414155E+02  0.13859670485E+03  0.16596195475E+03  0.00000000000E+00 0. -1.
<mgrwt>
<rscale>  0 0.15003028E+03</rscale>
<asrwt>0</asrwt>
<pdfrwt beam="1">  1        1 0.52209015E-01 0.15674125E+03</pdfrwt>
<pdfrwt beam="2">  1       -1 0.10975781E-01 0.15674125E+03</pdfrwt>
<totfact> 0.38358619E+03</totfact>
</mgrwt>
</event>
<event>
 8    1  0.8504141E-006  0.1276725E+03  0.7546771E-02  0.1246243E+00
         -2   -1    0    0    0  501 -0.00000000000E+00  0.00000000000E+00  0.11344543628E+03  0.11344543628E+03  0.00000000000E+00 0.  1.
          2   -1    0    0  501    0  0.00000000000E+00 -0.00000000000E+00 -0.13992101778E+03  0.13992101778E+03  0.00000000000E+00 0. -1.
         23    2    1    2    0    0 -0.23685377024E+02  0.10690122343E+02  0.45308322175E+02  0.13547366976E+03  0.12499998136E+03 0.  0.
         23    2    1    2    0    0  0.23685377024E+02 -0.10690122343E+02 -0.71783903680E+02  0.11789278430E+03  0.89835983668E+02 0.  0.
          5    1    3    3  502    0 -0.14403565375E+02  0.49408696486E+02  0.71029229906E+02  0.87840329490E+02  0.47000000000E+01 0. -1.
         -5    1    3    3    0  502 -0.92818116486E+01 -0.38718574142E+02 -0.25720907730E+02  0.47633340273E+02  0.47000000000E+01 0. -1.
        -11    1    4    4    0    0  0.36290200348E+01 -0.99478558308E+01  0.20702668426E+02  0.23253604065E+02  0.00000000000E+00 0.  1.
         11    1    4    4    0    0  0.20056356989E+02 -0.74226651265E+00 -0.92486572107E+02  0.94639180234E+02  0.00000000000E+00 0. -1.
<mgrwt>
<rscale>  0 0.11811305E+03</rscale>
<asrwt>0</asrwt>
<pdfrwt beam="2">  1        2 0.21526310E-01 0.12767252E+03</pdfrwt>
<pdfrwt beam="1">  1       -2 0.17453144E-01 0.12767252E+03</pdfrwt>
<totfact> 0.63994240E+03</totfact>
</mgrwt>
</event>
<event>
 8    1  0.8504141E-006  0.1573647E+03  0.7546771E-02  0.1199695E+00
         -2   -1    0    0    0  501 -0.00000000000E+00  0.00000000000E+00  0.57875890956E+02  0.57875890956E+02  0.00000000000E+00 0.  1.
          2   -1    0    0  501    0  0.00000000000E+00 -0.00000000000E+00 -0.41162125434E+03  0.41162125434E+03  0.00000000000E+00 0. -1.
         23    2    1    2    0    0 -0.44063197584E+02  0.84832539631E+02 -0.10919988900E+03  0.19154177199E+03  0.12500203797E+03 0.  0.
         23    2    1    2    0    0  0.44063197584E+02 -0.84832539631E+02 -0.24454547439E+03  0.27795537331E+03  0.91206224279E+02 0.  0.
          5    1    3    3  502    0 -0.42858504709E+02  0.42374498421E+02  0.13216521707E+02  0.61880659243E+02  0.47000000000E+01 0. -1.
         -5    1    3    3    0  502 -0.12046928752E+01  0.42458041211E+02 -0.12241641071E+03  0.12966111275E+03  0.47000000000E+01 0. -1.
        -11    1    4    4    0    0  0.10532323959E+02 -0.62546375051E+02 -0.54297035170E+02  0.83493394399E+02  0.00000000000E+00 0.  1.
         11    1    4    4    0    0  0.33530873625E+02 -0.22286164581E+02 -0.19024843922E+03  0.19446197891E+03  0.00000000000E+00 0. -1.
<mgrwt>
<rscale>  0 0.15063492E+03</rscale>
<asrwt>0</asrwt>
<pdfrwt beam="2">  1        2 0.63326345E-01 0.15736466E+03</pdfrwt>
<pdfrwt beam="1">  1       -2 0.89039835E-02 0.15736466E+03</pdfrwt>
<totfact> 0.59718564E+03</totfact>
</mgrwt>
</event>
<event>
 8    1  0.8504141E-006  0.1257269E+03  0.7546771E-02  0.1248547E+00
         -1   -1    0    0    0  501 -0.00000000000E+00  0.00000000000E+00  0.86440004080E+02  0.86440004080E+02  0.00000000000E+00 0.  1.
          1   -1    0    0  501    0  0.00000000000E+00 -0.00000000000E+00 -0.15209740657E+03  0.15209740657E+03  0.00000000000E+00 0. -1.
         23    2    1    2    0    0 -0.89858614343E+01 -0.99593141289E+01 -0.25907293827E+01  0.12575360596E+03  0.12500929521E+03 0.  0.
         23    2    1    2    0    0  0.89858614343E+01  0.99593141289E+01 -0.63066673110E+02  0.11278380469E+03  0.92535656369E+02 0.  0.
          5    1    3    3  502    0 -0.19464924203E+01  0.73391952172E+01 -0.62340532509E+02  0.62976857755E+02  0.47000000000E+01 0.  1.
         -5    1    3    3    0  502 -0.70393690140E+01 -0.17298509346E+02  0.59749803126E+02  0.62776748206E+02  0.47000000000E+01 0.  1.
        -11    1    4    4    0    0  0.70145639180E+01 -0.10105614589E+02  0.22083866185E+02  0.25278937851E+02  0.00000000000E+00 0.  1.
         11    1    4    4    0    0  0.19712975163E+01  0.20064928718E+02 -0.85150539295E+02  0.87504866839E+02  0.00000000000E+00 0. -1.
<mgrwt>
<rscale>  0 0.11675551E+03</rscale>
<asrwt>0</asrwt>
<pdfrwt beam="2">  1        1 0.23399601E-01 0.12572692E+03</pdfrwt>
<pdfrwt beam="1">  1       -1 0.13298462E-01 0.12572692E+03</pdfrwt>
<totfact> 0.76350293E+03</totfact>
</mgrwt>
</event>
<event>
 8    1  0.8504141E-006  0.1384164E+03  0.7546771E-02  0.1227252E+00
          1   -1    0    0  501    0  0.00000000000E+00  0.00000000000E+00  0.95963628480E+02  0.95963628480E+02  0.00000000000E+00 0.  1.
         -1   -1    0    0    0  501 -0.00000000000E+00 -0.00000000000E+00 -0.16172452426E+03  0.16172452426E+03  0.00000000000E+00 0. -1.
         23    2    1    2    0    0 -0.39443634758E+02  0.44474045348E+02 -0.55204059570E+02  0.14901875855E+03  0.12500144469E+03 0.  0.
         23    2    1    2    0    0  0.39443634758E+02 -0.44474045348E+02 -0.10556836211E+02  0.10866939419E+03  0.90354022659E+02 0.  0.
          5    1    3    3  502    0  0.33318980887E+02  0.37937434890E+02  0.91722404550E+01  0.51532741518E+02  0.47000000000E+01 0. -1.
         -5    1    3    3    0  502 -0.72762615644E+02  0.65366104572E+01 -0.64376300025E+02  0.97486017031E+02  0.47000000000E+01 0. -1.
        -11    1    4    4    0    0  0.85293815808E+01  0.26059813506E+02  0.96204299632E+01  0.29058852399E+02  0.00000000000E+00 0.  1.
         11    1    4    4    0    0  0.30914253177E+02 -0.70533858853E+02 -0.20177266174E+02  0.79610541792E+02  0.00000000000E+00 0. -1.
<mgrwt>
<rscale>  0 0.13013758E+03</rscale>
<asrwt>0</asrwt>
<pdfrwt beam="1">  1        1 0.14763635E-01 0.13841641E+03</pdfrwt>
<pdfrwt beam="2">  1       -1 0.24880696E-01 0.13841641E+03</pdfrwt>
<totfact> 0.51012903E+03</totfact>
</mgrwt>
</event>
<event>
 8    1  0.8504141E-006  0.2572937E+03  0.7546771E-02  0.1110892E+00
          2   -1    0    0  501    0  0.00000000000E+00  0.00000000000E+00  0.18904694793E+03  0.18904694793E+03  0.00000000000E+00 0.  1.
         -2   -1    0    0    0  501 -0.00000000000E+00 -0.00000000000E+00 -0.40149657601E+03  0.40149657601E+03  0.00000000000E+00 0. -1.
         23    2    1    2    0    0 -0.44524919277E+02 -0.22054779226E+03 -0.23132818237E+03  0.34599531653E+03  0.12480478355E+03 0.  0.
         23    2    1    2    0    0  0.44524919277E+02  0.22054779226E+03  0.18878554290E+02  0.24454820741E+03  0.93934172863E+02 0.  0.
          5    1    3    3  502    0 -0.72670335855E+01  0.98479832643E+01  0.47964389386E+01  0.13960242763E+02  0.47000000000E+01 0.  1.
         -5    1    3    3    0  502 -0.37257885692E+02 -0.23039577552E+03 -0.23612462131E+03  0.33203507377E+03  0.47000000000E+01 0.  1.
        -11    1    4    4    0    0  0.43485788417E+02  0.80145068989E+02  0.45080487466E+02  0.10171772819E+03  0.00000000000E+00 0.  1.
         11    1    4    4    0    0  0.10391308598E+01  0.14040272327E+03 -0.26201933176E+02  0.14283047923E+03  0.00000000000E+00 0. -1.
<mgrwt>
<rscale>  0 0.25385660E+03</rscale>
<asrwt>0</asrwt>
<pdfrwt beam="1">  1        2 0.29084146E-01 0.25729367E+03</pdfrwt>
<pdfrwt beam="2">  1       -2 0.61768704E-01 0.25729367E+03</pdfrwt>
<totfact> 0.45327261E+02</totfact>
</mgrwt>
</event>
<event>
 8    1  0.2995457E-005  0.2646606E+03  0.7546771E-02  0.1106488E+00
          1   -1    0    0  501    0  0.00000000000E+00  0.00000000000E+00  0.54349971301E+03  0.54349971301E+03  0.00000000000E+00 0. -1.
         -1   -1    0    0    0  501 -0.00000000000E+00 -0.00000000000E+00 -0.12415710823E+03  0.12415710823E+03  0.00000000000E+00 0.  1.
         23    2    1    2    0    0 -0.23325799988E+03  0.33370471747E+01  0.17292476102E+03  0.31614588926E+03  0.12499927972E+03 0.  0.
         23    2    1    2    0    0  0.23325799988E+03 -0.33370471747E+01  0.24641784376E+03  0.35151093198E+03  0.91748303441E+02 0.  0.
          5    1    3    3  502    0 -0.81852002815E+02 -0.13061450988E+02 -0.34260842156E+01  0.83091394980E+02  0.47000000000E+01 0.  1.
         -5    1    3    3    0  502 -0.15140599707E+03  0.16398498163E+02  0.17635084524E+03  0.23305449428E+03  0.47000000000E+01 0.  1.
        -11    1    4    4    0    0  0.51308541497E+02  0.11609450865E+02  0.11532659115E+03  0.12675791260E+03  0.00000000000E+00 0. -1.
         11    1    4    4    0    0  0.18194945838E+03 -0.14946498040E+02  0.13109125261E+03  0.22475301938E+03  0.00000000000E+00 0.  1.
<mgrwt>
<rscale>  0 0.26109284E+03</rscale>
<asrwt>0</asrwt>
<pdfrwt beam="1">  1        1 0.83615339E-01 0.26466063E+03</pdfrwt>
<pdfrwt beam="2">  1       -1 0.19101094E-01 0.26466063E+03</pdfrwt>
<totfact> 0.87906936E+02</totfact>
</mgrwt>
</event>
<event>
 8    1  0.8504141E-006  0.1306813E+03  0.7546771E-02  0.1239203E+00
         -1   -1    0    0    0  501 -0.00000000000E+00  0.00000000000E+00  0.54267676517E+02  0.54267676517E+02  0.00000000000E+00 0.  1.
          1   -1    0    0  501    0  0.00000000000E+00 -0.00000000000E+00 -0.28767625183E+03  0.28767625183E+03  0.00000000000E+00 0. -1.
         23    2    1    2    0    0  0.16895172872E+02 -0.34155226485E+02 -0.65364955380E+02  0.14611702060E+03  0.12500231980E+03 0.  0.
         23    2    1    2    0    0 -0.16895172872E+02  0.34155226485E+02 -0.16804361993E+03  0.19582690774E+03  0.93045651342E+02 0.  0.
          5    1    3    3  502    0 -0.64771449020E+01 -0.40721715911E+02 -0.97268742158E+02  0.10575211465E+03  0.47000000000E+01 0. -1.
         -5    1    3    3    0  502  0.23372317774E+02  0.65664894254E+01  0.31903786778E+02  0.40364905949E+02  0.47000000000E+01 0. -1.
        -11    1    4    4    0    0 -0.42838502347E+01 -0.19683501905E+02 -0.13367833377E+01  0.20188576219E+02  0.00000000000E+00 0.  1.
         11    1    4    4    0    0 -0.12611322637E+02  0.53838728390E+02 -0.16670683659E+03  0.17563833152E+03  0.00000000000E+00 0. -1.
<mgrwt>
<rscale>  0 0.12239155E+03</rscale>
<asrwt>0</asrwt>
<pdfrwt beam="2">  1        1 0.44257885E-01 0.13068132E+03</pdfrwt>
<pdfrwt beam="1">  1       -1 0.83488733E-02 0.13068132E+03</pdfrwt>
<totfact> 0.70737447E+03</totfact>
</mgrwt>
</event>
<event>
 8    1  0.8504141E-006  0.1332331E+03  0.7546771E-02  0.1235559E+00
          2   -1    0    0  501    0  0.00000000000E+00  0.00000000000E+00  0.29223387488E+02  0.29223387488E+02  0.00000000000E+00 0. -1.
         -2   -1    0    0    0  501 -0.00000000000E+00 -0.00000000000E+00 -0.57789691551E+03  0.57789691551E+03  0.00000000000E+00 0.  1.
         23    2    1    2    0    0 -0.44940680270E+02  0.10294650735E+02 -0.43168815657E+03  0.45178061565E+03  0.12500166230E+03 0.  0.
         23    2    1    2    0    0  0.44940680270E+02 -0.10294650735E+02 -0.11698537145E+03  0.15533968735E+03  0.91209630824E+02 0.  0.
          5    1    3    3  502    0 -0.71962834630E+02  0.39758035773E+01 -0.12945882765E+03  0.14824349779E+03  0.47000000000E+01 0.  1.
         -5    1    3    3    0  502  0.27022154360E+02  0.63188471579E+01 -0.30222932892E+03  0.30353711785E+03  0.47000000000E+01 0.  1.
        -11    1    4    4    0    0  0.18616307912E+02 -0.50135950254E+02 -0.51098467410E+02  0.73967788934E+02  0.00000000000E+00 0. -1.
         11    1    4    4    0    0  0.26324372357E+02  0.39841299519E+02 -0.65886904040E+02  0.81371898413E+02  0.00000000000E+00 0.  1.
<mgrwt>
<rscale>  0 0.12468719E+03</rscale>
<asrwt>0</asrwt>
<pdfrwt beam="1">  1        2 0.44959057E-02 0.13323310E+03</pdfrwt>
<pdfrwt beam="2">  1       -2 0.88907219E-01 0.13323310E+03</pdfrwt>
<totfact> 0.19544794E+03</totfact>
</mgrwt>
</event>
<event>
 8    1  0.8504141E-006  0.1127349E+03  0.7546771E-02  0.1263161E+00
          1   -1    0    0  501    0  0.00000000000E+00  0.00000000000E+00  0.27276464544E+02  0.27276464544E+02  0.00000000000E+00 0. -1.
         -1   -1    0    0    0  501 -0.00000000000E+00 -0.00000000000E+00 -0.77108895434E+03  0.77108895434E+03  0.00000000000E+00 0.  1.
         23    2    1    2    0    0 -0.85951029950E+01  0.15562068800E+02 -0.66153804288E+03  0.67107506140E+03  0.11132431036E+03 0.  0.
         23    2    1    2    0    0  0.85951029950E+01 -0.15562068800E+02 -0.82274446918E+02  0.12729035748E+03  0.95486631064E+02 0.  0.
          5    1    3    3  502    0  0.17079722538E+02  0.45919755450E+01 -0.14317173750E+02  0.23235202293E+02  0.47000000000E+01 0. -1.
         -5    1    3    3    0  502 -0.25674825533E+02  0.10970093255E+02 -0.64722086913E+03  0.64783985910E+03  0.47000000000E+01 0.  1.
        -11    1    4    4    0    0  0.20945314920E+01 -0.55604889075E+02 -0.38847607215E+02  0.67863298899E+02  0.00000000000E+00 0. -1.
         11    1    4    4    0    0  0.65005715030E+01  0.40042820275E+02 -0.43426839704E+02  0.59427058585E+02  0.00000000000E+00 0.  1.
<mgrwt>
<rscale>  0 0.10861238E+03</rscale>
<asrwt>0</asrwt>
<pdfrwt beam="1">  1        1 0.41963796E-02 0.11273489E+03</pdfrwt>
<pdfrwt beam="2">  1       -1 0.11862906E+00 0.11273489E+03</pdfrwt>
<totfact> 0.14008726E+03</totfact>
</mgrwt>
</event>
<event>
 8    1  0.8504141E-006  0.1379756E+03  0.7546771E-02  0.1227445E+00
          2   -1    0    0  501    0  0.00000000000E+00  0.00000000000E+00  0.14613975895E+03  0.14613975895E+03  0.00000000000E+00 0.  1.
         -2   -1    0    0    0  501 -0.00000000000E+00 -0.00000000000E+00 -0.10548488970E+03  0.10548488970E+03  0.00000000000E+00 0. -1.
         23    2    1    2    0    0 -0.56959756052E+02 -0.12934198461E+02  0.86144817878E+01  0.13824428480E+03  0.12500226272E+03 0.  0.
         23    2    1    2    0    0  0.56959756052E+02  0.12934198461E+02  0.32040387470E+02  0.11338036385E+03  0.91743191450E+02 0.  0.
          5    1    3    3  502    0  0.20599765061E+02 -0.46636452856E+02  0.14876645269E+02  0.53317104479E+02  0.47000000000E+01 0.  1.
         -5    1    3    3    0  502 -0.77559521114E+02  0.33702254394E+02 -0.62621634811E+01  0.84927180326E+02  0.47000000000E+01 0.  1.
        -11    1    4    4    0    0  0.28979757806E+02 -0.17119412411E+02  0.56368118474E+02  0.65652611708E+02  0.00000000000E+00 0.  1.
         11    1    4    4    0    0  0.27979998246E+02  0.30053610873E+02 -0.24327731004E+02  0.47727752138E+02  0.00000000000E+00 0. -1.
<mgrwt>
<rscale>  0 0.13000740E+03</rscale>
<asrwt>0</asrwt>
<pdfrwt beam="1">  1        2 0.22483040E-01 0.13797562E+03</pdfrwt>
<pdfrwt beam="2">  1       -2 0.16228444E-01 0.13797562E+03</pdfrwt>
<totfact> 0.69134616E+03</totfact>
</mgrwt>
</event>
<event>
 8    1  0.9485996E-006  0.1282458E+03  0.7546771E-02  0.1264139E+00
          2   -1    0    0  501    0  0.00000000000E+00  0.00000000000E+00  0.52384672694E+03  0.52384672694E+03  0.00000000000E+00 0. -1.
         -2   -1    0    0    0  501 -0.00000000000E+00 -0.00000000000E+00 -0.17866927365E+02  0.17866927365E+02  0.00000000000E+00 0.  1.
         23    2    1    2    0    0 -0.25328257172E+02 -0.13423112858E+02  0.31714524740E+03  0.34209369597E+03  0.12500115322E+03 0.  0.
         23    2    1    2    0    0  0.25328257172E+02  0.13423112858E+02  0.18883455218E+03  0.19961995834E+03  0.58033947811E+02 0.  0.
          5    1    3    3  502    0  0.49351729848E+02 -0.11093826841E+02  0.95883314565E+02  0.10850975184E+03  0.47000000000E+01 0.  1.
         -5    1    3    3    0  502 -0.74679987020E+02 -0.23292860168E+01  0.22126193283E+03  0.23358394413E+03  0.47000000000E+01 0.  1.
        -11    1    4    4    0    0 -0.76886287993E+01 -0.68931611200E+01  0.45191647929E+01  0.11271802583E+02  0.00000000000E+00 0.  1.
         11    1    4    4    0    0  0.33016885972E+02  0.20316273978E+02  0.18431538739E+03  0.18834815575E+03  0.00000000000E+00 0. -1.
<mgrwt>
<rscale>  0 0.10809472E+03</rscale>
<asrwt>0</asrwt>
<pdfrwt beam="1">  1        2 0.80591792E-01 0.12824581E+03</pdfrwt>
<pdfrwt beam="2">  1       -2 0.27487585E-02 0.12824581E+03</pdfrwt>
<totfact> 0.26550037E+04</totfact>
</mgrwt>
</event>
<event>
 8    1  0.8504141E-006  0.1416790E+03  0.7546771E-02  0.1221555E+00
          1   -1    0    0  501    0  0.00000000000E+00  0.00000000000E+00  0.11997933544E+03  0.11997933544E+03  0.00000000000E+00 0. -1.
         -1   -1    0    0    0  501 -0.00000000000E+00 -0.00000000000E+00 -0.14444903764E+03  0.14444903764E+03  0.00000000000E+00 0.  1.
         23    2    1    2    0    0 -0.66604639332E+02  0.33026008185E+01 -0.45752747291E+02  0.14888337077E+03  0.12500343617E+03 0.  0.
         23    2    1    2    0    0  0.66604639332E+02 -0.33026008185E+01  0.21283045085E+02  0.11554500231E+03  0.91927114597E+02 0.  0.
          5    1    3    3  502    0 -0.60425679999E+02  0.99578180355E+01 -0.86939012333E+02  0.10644671347E+03  0.47000000000E+01 0.  1.
         -5    1    3    3    0  502 -0.61789593329E+01 -0.66552172169E+01  0.41186265042E+02  0.42436657300E+02  0.47000000000E+01 0.  1.
        -11    1    4    4    0    0  0.31897115733E+02 -0.17469337669E+02 -0.33312255212E+02  0.49318455957E+02  0.00000000000E+00 0.  1.
         11    1    4    4    0    0  0.34707523599E+02  0.14166736851E+02  0.54595300297E+02  0.66226546353E+02  0.00000000000E+00 0. -1.
<mgrwt>
<rscale>  0 0.13405811E+03</rscale>
<asrwt>0</asrwt>
<pdfrwt beam="1">  1        1 0.18458359E-01 0.14167902E+03</pdfrwt>
<pdfrwt beam="2">  1       -1 0.22222929E-01 0.14167902E+03</pdfrwt>
<totfact> 0.46078622E+03</totfact>
</mgrwt>
</event>
<event>
 8    1  0.8504141E-006  0.1254969E+03  0.7546771E-02  0.1236370E+00
          1   -1    0    0  501    0  0.00000000000E+00  0.00000000000E+00  0.46237263772E+03  0.46237263772E+03  0.00000000000E+00 0. -1.
         -1   -1    0    0    0  501 -0.00000000000E+00 -0.00000000000E+00 -0.35813033815E+02  0.35813033815E+02  0.00000000000E+00 0.  1.
         23    2    1    2    0    0 -0.11215171661E+02 -0.12410587344E+01  0.14352075529E+03  0.19065066307E+03  0.12498859079E+03 0.  0.
         23    2    1    2    0    0  0.11215171661E+02  0.12410587344E+01  0.28303884861E+03  0.30753500847E+03  0.11974753152E+03 0.  0.
          5    1    3    3  502    0 -0.68143352677E+02 -0.16326241448E+00  0.75225257981E+02  0.10160941200E+03  0.47000000000E+01 0.  1.
         -5    1    3    3    0  502  0.56928181017E+02 -0.10777963199E+01  0.68295497307E+02  0.89041251065E+02  0.47000000000E+01 0.  1.
        -11    1    4    4    0    0  0.52236486420E+02 -0.33432921168E+02  0.19269946917E+03  0.20243393033E+03  0.00000000000E+00 0.  1.
         11    1    4    4    0    0 -0.41021314759E+02  0.34673979902E+02  0.90339379443E+02  0.10510107813E+03  0.00000000000E+00 0. -1.
<mgrwt>
<rscale>  0 0.12417130E+03</rscale>
<asrwt>0</asrwt>
<pdfrwt beam="1">  1        1 0.71134248E-01 0.12549688E+03</pdfrwt>
<pdfrwt beam="2">  1       -1 0.55096978E-02 0.12549688E+03</pdfrwt>
<totfact> 0.72513992E+03</totfact>
</mgrwt>
</event>
<event>
 8    1  0.8504141E-006  0.1269202E+03  0.7546771E-02  0.1241349E+00
         -2   -1    0    0    0  501 -0.00000000000E+00  0.00000000000E+00  0.40843392717E+02  0.40843392717E+02  0.00000000000E+00 0.  1.
          2   -1    0    0  501    0  0.00000000000E+00 -0.00000000000E+00 -0.34135860493E+03  0.34135860493E+03  0.00000000000E+00 0. -1.
         23    2    1    2    0    0  0.96270982327E+01  0.38324873500E+02 -0.12835367290E+03  0.18050875418E+03  0.12061205595E+03 0.  0.
         23    2    1    2    0    0 -0.96270982327E+01 -0.38324873500E+02 -0.17216153931E+03  0.20169324346E+03  0.97360628042E+02 0.  0.
          5    1    3    3  502    0 -0.49727915347E+02 -0.44826329265E+01 -0.73285872698E+02  0.88802413817E+02  0.47000000000E+01 0. -1.
         -5    1    3    3    0  502  0.59355013580E+02  0.42807506426E+02 -0.55067800205E+02  0.91706340364E+02  0.47000000000E+01 0.  1.
        -11    1    4    4    0    0 -0.25687997765E+02  0.27219131572E+02 -0.66898621766E+02  0.76656245322E+02  0.00000000000E+00 0. -1.
         11    1    4    4    0    0  0.16060899533E+02 -0.65544005072E+02 -0.10526291754E+03  0.12503699814E+03  0.00000000000E+00 0.  1.
<mgrwt>
<rscale>  0 0.12106597E+03</rscale>
<asrwt>0</asrwt>
<pdfrwt beam="2">  1        2 0.52516710E-01 0.12692023E+03</pdfrwt>
<pdfrwt beam="1">  1       -2 0.62835987E-02 0.12692023E+03</pdfrwt>
<totfact> 0.12288361E+04</totfact>
</mgrwt>
</event>
<event>
 8    1  0.8504141E-006  0.1581940E+03  0.7546771E-02  0.1196902E+00
          2   -1    0    0  501    0  0.00000000000E+00  0.00000000000E+00  0.13139430726E+03  0.13139430726E+03  0.00000000000E+00 0. -1.
         -2   -1    0    0    0  501 -0.00000000000E+00 -0.00000000000E+00 -0.49475513689E+03  0.49475513689E+03  0.00000000000E+00 0.  1.
         23    2    1    2    0    0  0.18997744488E+02  0.95281372264E+02 -0.44037410883E+03  0.46792595394E+03  0.12484345577E+03 0.  0.
         23    2    1    2    0    0 -0.18997744488E+02 -0.95281372264E+02  0.77013279198E+02  0.15822349020E+03  0.98306528181E+02 0.  0.
          5    1    3    3  502    0  0.17709912689E+02 -0.67693768177E+01 -0.25916344287E+03  0.25989852941E+03  0.47000000000E+01 0. -1.
         -5    1    3    3    0  502  0.12878317995E+01  0.10205074908E+03 -0.18121066596E+03  0.20802742453E+03  0.47000000000E+01 0. -1.
        -11    1    4    4    0    0 -0.32444391194E+01  0.20707512797E+02  0.14847072134E+02  0.25685852573E+02  0.00000000000E+00 0. -1.
         11    1    4    4    0    0 -0.15753305369E+02 -0.11598888506E+03  0.62166207063E+02  0.13253763763E+03  0.00000000000E+00 0.  1.
<mgrwt>
<rscale>  0 0.15294384E+03</rscale>
<asrwt>0</asrwt>
<pdfrwt beam="1">  1        2 0.20214509E-01 0.15819400E+03</pdfrwt>
<pdfrwt beam="2">  1       -2 0.76116175E-01 0.15819400E+03</pdfrwt>
<totfact> 0.43497568E+02</totfact>
</mgrwt>
</event>
<event>
 8    1  0.8504141E-006  0.1333300E+03  0.7546771E-02  0.1230867E+00
          2   -1    0    0  501    0  0.00000000000E+00  0.00000000000E+00  0.45561484551E+02  0.45561484551E+02  0.00000000000E+00 0. -1.
         -2   -1    0    0    0  501 -0.00000000000E+00 -0.00000000000E+00 -0.39334634082E+03  0.39334634082E+03  0.00000000000E+00 0.  1.
         23    2    1    2    0    0 -0.64817453728E+02  0.15166165615E+02 -0.27349694413E+03  0.30426545755E+03  0.11552305103E+03 0.  0.
         23    2    1    2    0    0  0.64817453728E+02 -0.15166165615E+02 -0.74287912133E+02  0.13464236782E+03  0.90435382654E+02 0.  0.
          5    1    3    3  502    0 -0.27655643739E+02  0.54762470798E+02 -0.68189666052E+02  0.91845976475E+02  0.47000000000E+01 0. -1.
         -5    1    3    3    0  502 -0.37161809989E+02 -0.39596305183E+02 -0.20530727808E+03  0.21241948107E+03  0.47000000000E+01 0.  1.
        -11    1    4    4    0    0 -0.18247810519E+02  0.19332801561E+01 -0.38390994041E+02  0.42551011555E+02  0.00000000000E+00 0.  1.
         11    1    4    4    0    0  0.83065264247E+02 -0.17099445771E+02 -0.35896918092E+02  0.92091356264E+02  0.00000000000E+00 0. -1.
<mgrwt>
<rscale>  0 0.12772760E+03</rscale>
<asrwt>0</asrwt>
<pdfrwt beam="1">  1        2 0.70094593E-02 0.13333000E+03</pdfrwt>
<pdfrwt beam="2">  1       -2 0.60514821E-01 0.13333000E+03</pdfrwt>
<totfact> 0.25128535E+03</totfact>
</mgrwt>
</event>
<event>
 8    1  0.8504141E-006  0.1291161E+03  0.7546771E-02  0.1243768E+00
          4   -1    0    0  501    0  0.00000000000E+00  0.00000000000E+00  0.40927401075E+03  0.40927401075E+03  0.00000000000E+00 0. -1.
         -4   -1    0    0    0  501 -0.00000000000E+00 -0.00000000000E+00 -0.30704991788E+02  0.30704991788E+02  0.00000000000E+00 0.  1.
         23    2    1    2    0    0 -0.32237903390E+02  0.27088205093E+01  0.22253776641E+03  0.25728197164E+03  0.12499734130E+03 0.  0.
         23    2    1    2    0    0  0.32237903390E+02 -0.27088205093E+01  0.15603125255E+03  0.18269703089E+03  0.89363489185E+02 0.  0.
          5    1    3    3  502    0 -0.33713757630E+02  0.16639621270E+02  0.23494929810E+03  0.23798478339E+03  0.47000000000E+01 0.  1.
         -5    1    3    3    0  502  0.14758542407E+01 -0.13930800761E+02 -0.12411531691E+02  0.19297188254E+02  0.47000000000E+01 0.  1.
        -11    1    4    4    0    0 -0.17229733425E+02 -0.22602123267E+02  0.15458604949E+02  0.32352560286E+02  0.00000000000E+00 0.  1.
         11    1    4    4    0    0  0.49467636815E+02  0.19893302758E+02  0.14057264761E+03  0.15034447060E+03  0.00000000000E+00 0. -1.
<mgrwt>
<rscale>  0 0.11959442E+03</rscale>
<asrwt>0</asrwt>
<pdfrwt beam="1">  1        4 0.62965228E-01 0.12911605E+03</pdfrwt>
<pdfrwt beam="2">  1       -4 0.47238452E-02 0.12911605E+03</pdfrwt>
<totfact> 0.10251617E+03</totfact>
</mgrwt>
</event>
<event>
 8    1  0.8504141E-006  0.1323008E+03  0.7546771E-02  0.1239099E+00
         -2   -1    0    0    0  501 -0.00000000000E+00  0.00000000000E+00  0.55829484609E+02  0.55829484609E+02  0.00000000000E+00 0.  1.
          2   -1    0    0  501    0  0.00000000000E+00 -0.00000000000E+00 -0.23565999431E+03  0.23565999431E+03  0.00000000000E+00 0. -1.
         23    2    1    2    0    0  0.43296500646E+02  0.19673107038E+01 -0.10417812640E+03  0.16839414094E+03  0.12500018961E+03 0.  0.
         23    2    1    2    0    0 -0.43296500646E+02 -0.19673107038E+01 -0.75652383305E+02  0.12309533798E+03  0.86894889688E+02 0.  0.
          5    1    3    3  502    0  0.61704702209E+02  0.48605104305E+02 -0.44845021996E+02  0.90570924899E+02  0.47000000000E+01 0. -1.
         -5    1    3    3    0  502 -0.18408201563E+02 -0.46637793601E+02 -0.59333104402E+02  0.77823216040E+02  0.47000000000E+01 0. -1.
        -11    1    4    4    0    0  0.25815326855E+02  0.65123965028E+01 -0.13935682380E+02  0.30050717999E+02  0.00000000000E+00 0.  1.
         11    1    4    4    0    0 -0.69111827502E+02 -0.84797072066E+01 -0.61716700925E+02  0.93044619985E+02  0.00000000000E+00 0. -1.
<mgrwt>
<rscale>  0 0.12245630E+03</rscale>
<asrwt>0</asrwt>
<pdfrwt beam="2">  1        2 0.36255384E-01 0.13230081E+03</pdfrwt>
<pdfrwt beam="1">  1       -2 0.85891514E-02 0.13230081E+03</pdfrwt>
<totfact> 0.11307320E+04</totfact>
</mgrwt>
</event>
<event>
 8    1  0.8504141E-006  0.1536445E+03  0.7546771E-02  0.1204612E+00
          1   -1    0    0  501    0  0.00000000000E+00  0.00000000000E+00  0.28621465865E+03  0.28621465865E+03  0.00000000000E+00 0. -1.
         -1   -1    0    0    0  501 -0.00000000000E+00 -0.00000000000E+00 -0.75964818847E+02  0.75964818847E+02  0.00000000000E+00 0.  1.
         23    2    1    2    0    0  0.52150694345E+02 -0.72539778006E+02  0.59758727707E+02  0.16485669985E+03  0.12499964654E+03 0.  0.
         23    2    1    2    0    0 -0.52150694345E+02  0.72539778006E+02  0.15049111209E+03  0.19732277764E+03  0.91142687272E+02 0.  0.
          5    1    3    3  502    0  0.63357572175E+02 -0.13374895097E+02 -0.17067689190E+02  0.67130215143E+02  0.47000000000E+01 0.  1.
         -5    1    3    3    0  502 -0.11206877830E+02 -0.59164882909E+02  0.76826416897E+02  0.97726484709E+02  0.47000000000E+01 0.  1.
        -11    1    4    4    0    0 -0.16446609759E+02 -0.48681095964E+00 -0.86751836204E+01  0.18600719564E+02  0.00000000000E+00 0.  1.
         11    1    4    4    0    0 -0.35704084587E+02  0.73026588966E+02  0.15916629571E+03  0.17872205808E+03  0.00000000000E+00 0. -1.
<mgrwt>
<rscale>  0 0.14668089E+03</rscale>
<asrwt>0</asrwt>
<pdfrwt beam="1">  1        1 0.44033024E-01 0.15364448E+03</pdfrwt>
<pdfrwt beam="2">  1       -1 0.11686895E-01 0.15364448E+03</pdfrwt>
<totfact> 0.43001261E+03</totfact>
</mgrwt>
</event>
<event>
 8    1  0.8504141E-006  0.1395760E+03  0.7546771E-02  0.1225739E+00
          1   -1    0    0  501    0  0.00000000000E+00  0.00000000000E+00  0.11306117116E+03  0.11306117116E+03  0.00000000000E+00 0. -1.
         -1   -1    0    0    0  501 -0.00000000000E+00 -0.00000000000E+00 -0.13646475113E+03  0.13646475113E+03  0.00000000000E+00 0.  1.
         23    2    1    2    0    0 -0.26007223604E+02  0.56397355347E+02 -0.13388002360E+02  0.14021664917E+03  0.12499773089E+03 0.  0.
         23    2    1    2    0    0  0.26007223604E+02 -0.56397355347E+02 -0.10015577608E+02  0.10930927312E+03  0.89393333232E+02 0.  0.
          5    1    3    3  502    0 -0.21380214415E+02  0.96120212836E+02 -0.29793215658E+01  0.98626442910E+02  0.47000000000E+01 0. -1.
         -5    1    3    3    0  502 -0.46270091890E+01 -0.39722857489E+02 -0.10408680794E+02  0.41590206263E+02  0.47000000000E+01 0. -1.
        -11    1    4    4    0    0 -0.30036123100E+02 -0.14074980063E+02 -0.19446332196E+02  0.38450404296E+02  0.00000000000E+00 0.  1.
         11    1    4    4    0    0  0.56043346704E+02 -0.42322375285E+02  0.94307545878E+01  0.70858868828E+02  0.00000000000E+00 0. -1.
<mgrwt>
<rscale>  0 0.13116402E+03</rscale>
<asrwt>0</asrwt>
<pdfrwt beam="1">  1        1 0.17394026E-01 0.13957604E+03</pdfrwt>
<pdfrwt beam="2">  1       -1 0.20994577E-01 0.13957604E+03</pdfrwt>
<totfact> 0.54467049E+03</totfact>
</mgrwt>
</event>
<event>
 7    1  0.8504141E-006  0.2010863E+03  0.7546771E-02  0.1157353E+00
          3   -1    0    0  501    0  0.00000000000E+00  0.00000000000E+00  0.59978566074E+02  0.59978566074E+02  0.00000000000E+00 0. -1.
         -3   -1    0    0    0  501 -0.00000000000E+00 -0.00000000000E+00 -0.56309641722E+03  0.56309641722E+03  0.00000000000E+00 0.  1.
         23    2    1    2    0    0 -0.11993723072E+03 -0.63193552926E+02 -0.25883100476E+03  0.30667052795E+03  0.93139461287E+02 0.  0.
          5    1    1    2  502    0  0.11584414378E+03  0.84227385877E+02 -0.25460278411E+03  0.29216225947E+03  0.47000000000E+01 0. -1.
         -5    1    1    2    0  502  0.40930869436E+01 -0.21033832951E+02  0.10315937727E+02  0.24242195869E+02  0.47000000000E+01 0.  1.
        -11    1    3    3    0    0 -0.43704890723E+02 -0.49606977024E+02 -0.19632121856E+03  0.20715450876E+03  0.00000000000E+00 0.  1.
         11    1    3    3    0    0 -0.76232339997E+02 -0.13586575903E+02 -0.62509786195E+02  0.99516019194E+02  0.00000000000E+00 0. -1.
<mgrwt>
<rscale>  0 0.19123373E+03</rscale>
<asrwt>0</asrwt>
<pdfrwt beam="1">  1        3 0.92274719E-02 0.20108634E+03</pdfrwt>
<pdfrwt beam="2">  1       -3 0.86630217E-01 0.20108634E+03</pdfrwt>
<totfact> 0.25772618E+02</totfact>
</mgrwt>
</event>
<event>
 8    1  0.8504141E-006  0.1891948E+03  0.7546771E-02  0.1164200E+00
         -2   -1    0    0    0  501 -0.00000000000E+00  0.00000000000E+00  0.25444802864E+02  0.25444802864E+02  0.00000000000E+00 0.  1.
          2   -1    0    0  501    0  0.00000000000E+00 -0.00000000000E+00 -0.14494522771E+04  0.14494522771E+04  0.00000000000E+00 0. -1.
         23    2    1    2    0    0 -0.55571794225E+02  0.13033053208E+03 -0.47922148826E+03  0.51521636256E+03  0.12538099354E+03 0.  0.
         23    2    1    2    0    0  0.55571794225E+02 -0.13033053208E+03 -0.94478598596E+03  0.95968071739E+03  0.91061782019E+02 0.  0.
          5    1    3    3  502    0 -0.16872963122E+02  0.69130974228E+01 -0.25969179465E+03  0.26037358930E+03  0.47000000000E+01 0.  1.
         -5    1    3    3    0  502 -0.38698831103E+02  0.12341743466E+03 -0.21952969361E+03  0.25484277326E+03  0.47000000000E+01 0.  1.
        -11    1    4    4    0    0  0.25218690644E+02  0.64166906130E+01 -0.98439090653E+02  0.10182048342E+03  0.00000000000E+00 0.  1.
         11    1    4    4    0    0  0.30353103581E+02 -0.13674722269E+03 -0.84634689531E+03  0.85786023396E+03  0.00000000000E+00 0. -1.
<mgrwt>
<rscale>  0 0.18377339E+03</rscale>
<asrwt>0</asrwt>
<pdfrwt beam="2">  1        2 0.22299263E+00 0.18919478E+03</pdfrwt>
<pdfrwt beam="1">  1       -2 0.39145856E-02 0.18919478E+03</pdfrwt>
<totfact> 0.41039098E+03</totfact>
</mgrwt>
</event>
<event>
 8    1  0.8504141E-006  0.1690224E+03  0.7546771E-02  0.1184156E+00
         -1   -1    0    0    0  501 -0.00000000000E+00  0.00000000000E+00  0.27665796156E+03  0.27665796156E+03  0.00000000000E+00 0.  1.
          1   -1    0    0  501    0  0.00000000000E+00 -0.00000000000E+00 -0.10623387391E+03  0.10623387391E+03  0.00000000000E+00 0. -1.
         23    2    1    2    0    0 -0.91665038704E+02 -0.67388774198E+02  0.15943414822E+03  0.23235282034E+03  0.12499943717E+03 0.  0.
         23    2    1    2    0    0  0.91665038704E+02  0.67388774198E+02  0.10989939427E+02  0.15053901513E+03  0.97966780596E+02 0.  0.
          5    1    3    3  502    0  0.19686880324E+02 -0.50039785133E+02  0.70063280707E+02  0.88444935730E+02  0.47000000000E+01 0. -1.
         -5    1    3    3    0  502 -0.11135191903E+03 -0.17348989065E+02  0.89370867513E+02  0.14390788461E+03  0.47000000000E+01 0. -1.
        -11    1    4    4    0    0  0.81820421607E+01  0.65404936603E+02 -0.24376233151E+01  0.65959787396E+02  0.00000000000E+00 0.  1.
         11    1    4    4    0    0  0.83482996544E+02  0.19838375951E+01  0.13427562742E+02  0.84579227738E+02  0.00000000000E+00 0. -1.
<mgrwt>
<rscale>  0 0.16408937E+03</rscale>
<asrwt>0</asrwt>
<pdfrwt beam="2">  1        1 0.16343673E-01 0.16902244E+03</pdfrwt>
<pdfrwt beam="1">  1       -1 0.42562763E-01 0.16902244E+03</pdfrwt>
<totfact> 0.18065887E+03</totfact>
</mgrwt>
</event>
<event>
 8    1  0.8504141E-006  0.1668801E+03  0.7546771E-02  0.1188067E+00
          1   -1    0    0  501    0  0.00000000000E+00  0.00000000000E+00  0.63232722977E+02  0.63232722977E+02  0.00000000000E+00 0. -1.
         -1   -1    0    0    0  501 -0.00000000000E+00 -0.00000000000E+00 -0.44092879259E+03  0.44092879259E+03  0.00000000000E+00 0.  1.
         23    2    1    2    0    0  0.41509870641E+02 -0.10246389857E+03 -0.29512020370E+03  0.33903527000E+03  0.12500823893E+03 0.  0.
         23    2    1    2    0    0 -0.41509870641E+02  0.10246389857E+03 -0.82575865907E+02  0.16512624556E+03  0.90697207628E+02 0.  0.
          5    1    3    3  502    0 -0.15126265392E+02 -0.83453725354E+02 -0.83569633991E+02  0.11916082370E+03  0.47000000000E+01 0. -1.
         -5    1    3    3    0  502  0.56636136033E+02 -0.19010173218E+02 -0.21155056971E+03  0.21987444630E+03  0.47000000000E+01 0. -1.
        -11    1    4    4    0    0  0.25024827672E+02  0.16760435692E+02 -0.36307665194E+02  0.47174153479E+02  0.00000000000E+00 0.  1.
         11    1    4    4    0    0 -0.66534698313E+02  0.85703462880E+02 -0.46268200713E+02  0.11795209208E+03  0.00000000000E+00 0. -1.
<mgrwt>
<rscale>  0 0.16055897E+03</rscale>
<asrwt>0</asrwt>
<pdfrwt beam="1">  1        1 0.97281106E-02 0.16688014E+03</pdfrwt>
<pdfrwt beam="2">  1       -1 0.67835203E-01 0.16688014E+03</pdfrwt>
<totfact> 0.14975286E+03</totfact>
</mgrwt>
</event>
<event>
 8    1  0.8504141E-006  0.1318166E+03  0.7546771E-02  0.1237473E+00
         -1   -1    0    0    0  501 -0.00000000000E+00  0.00000000000E+00  0.14244494329E+02  0.14244494329E+02  0.00000000000E+00 0.  1.
          1   -1    0    0  501    0  0.00000000000E+00 -0.00000000000E+00 -0.95533276237E+03  0.95533276237E+03  0.00000000000E+00 0. -1.
         23    2    1    2    0    0 -0.41288023932E+02 -0.67988304192E+01 -0.53588151995E+03  0.55185560609E+03  0.12499872615E+03 0.  0.
         23    2    1    2    0    0  0.41288023932E+02  0.67988304192E+01 -0.40520674809E+03  0.41772165061E+03  0.92455090016E+02 0.  0.
          5    1    3    3  502    0 -0.18186814636E+02 -0.65171039215E+02 -0.24320363438E+03  0.25248390514E+03  0.47000000000E+01 0.  1.
         -5    1    3    3    0  502 -0.23101209296E+02  0.58372208796E+02 -0.29267788557E+03  0.29937170096E+03  0.47000000000E+01 0.  1.
        -11    1    4    4    0    0 -0.18655737774E+02 -0.25219227502E+02 -0.91173334618E+02  0.96418996743E+02  0.00000000000E+00 0.  1.
         11    1    4    4    0    0  0.59943761706E+02  0.32018057921E+02 -0.31403341348E+03  0.32130265386E+03  0.00000000000E+00 0. -1.
<mgrwt>
<rscale>  0 0.12347419E+03</rscale>
<asrwt>0</asrwt>
<pdfrwt beam="2">  1        1 0.14697432E+00 0.13181656E+03</pdfrwt>
<pdfrwt beam="1">  1       -1 0.21914600E-02 0.13181656E+03</pdfrwt>
<totfact> 0.99736660E+03</totfact>
</mgrwt>
</event>
<event>
 8    1  0.8504141E-006  0.1441980E+03  0.7546771E-02  0.1217815E+00
         -2   -1    0    0    0  501 -0.00000000000E+00  0.00000000000E+00  0.35216180512E+03  0.35216180512E+03  0.00000000000E+00 0.  1.
          2   -1    0    0  501    0  0.00000000000E+00 -0.00000000000E+00 -0.11299378043E+03  0.11299378043E+03  0.00000000000E+00 0. -1.
         23    2    1    2    0    0 -0.69957686775E+02 -0.16577647228E+02  0.30062319418E+03  0.33341771500E+03  0.12499668584E+03 0.  0.
         23    2    1    2    0    0  0.69957686775E+02  0.16577647228E+02 -0.61455169485E+02  0.13173787055E+03  0.91701866683E+02 0.  0.
          5    1    3    3  502    0 -0.66974903185E+02 -0.83442151859E+01  0.31145417502E+03  0.31871783245E+03  0.47000000000E+01 0. -1.
         -5    1    3    3    0  502 -0.29827835897E+01 -0.82334320416E+01 -0.10830980839E+02  0.14699882552E+02  0.47000000000E+01 0. -1.
        -11    1    4    4    0    0  0.17063649660E+02  0.31451264096E+02 -0.67563664346E+02  0.76453900442E+02  0.00000000000E+00 0. -1.
         11    1    4    4    0    0  0.52894037115E+02 -0.14873616868E+02  0.61084948610E+01  0.55283970104E+02  0.00000000000E+00 0.  1.
<mgrwt>
<rscale>  0 0.13671761E+03</rscale>
<asrwt>0</asrwt>
<pdfrwt beam="2">  1        2 0.17383659E-01 0.14419802E+03</pdfrwt>
<pdfrwt beam="1">  1       -2 0.54178739E-01 0.14419802E+03</pdfrwt>
<totfact> 0.10493177E+03</totfact>
</mgrwt>
</event>
<event>
 8    1  0.8504141E-006  0.2115595E+03  0.7546771E-02  0.1142209E+00
          3   -1    0    0  501    0  0.00000000000E+00  0.00000000000E+00  0.39142790519E+02  0.39142790519E+02  0.00000000000E+00 0. -1.
         -3   -1    0    0    0  501 -0.00000000000E+00 -0.00000000000E+00 -0.23823254788E+04  0.23823254788E+04  0.00000000000E+00 0.  1.
         23    2    1    2    0    0 -0.15341388746E+02  0.17993480304E+03 -0.20740800955E+04  0.20848418829E+04  0.11020681738E+03 0.  0.
         23    2    1    2    0    0  0.15341388746E+02 -0.17993480304E+03 -0.26910259274E+03  0.33662638638E+03  0.91045192248E+02 0.  0.
          5    1    3    3  502    0  0.19442966533E+02 -0.61559653989E+01 -0.14756929629E+03  0.14904600654E+03  0.47000000000E+01 0. -1.
         -5    1    3    3    0  502 -0.34784355279E+02  0.18609076844E+03 -0.19265107993E+04  0.19357958764E+04  0.47000000000E+01 0.  1.
        -11    1    4    4    0    0  0.35566862192E+02 -0.90591632782E+02 -0.19813978270E+03  0.22075148721E+03  0.00000000000E+00 0.  1.
         11    1    4    4    0    0 -0.20225473446E+02 -0.89343170259E+02 -0.70962810034E+02  0.11587489916E+03  0.00000000000E+00 0. -1.
<mgrwt>
<rscale>  0 0.20919020E+03</rscale>
<asrwt>0</asrwt>
<pdfrwt beam="1">  1        3 0.60219671E-02 0.21155953E+03</pdfrwt>
<pdfrwt beam="2">  1       -3 0.36651165E+00 0.21155953E+03</pdfrwt>
<totfact> 0.81764037E+00</totfact>
</mgrwt>
</event>
<event>
 7    1  0.8504141E-006  0.1415794E+03  0.7546771E-02  0.1229893E+00
          2   -1    0    0  501    0  0.00000000000E+00  0.00000000000E+00  0.41259810502E+03  0.41259810502E+03  0.00000000000E+00 0. -1.
         -2   -1    0    0    0  501 -0.00000000000E+00 -0.00000000000E+00 -0.22139828379E+03  0.22139828379E+03  0.00000000000E+00 0.  1.
         23    2    1    2    0    0 -0.57825664250E+02  0.62066824742E+02 -0.19226712022E+03  0.23877057186E+03  0.11335185174E+03 0.  0.
          5    1    3    3  502    0  0.22562418334E+02 -0.61153729064E+01 -0.58302546621E+01  0.24546738608E+02  0.47000000000E+01 0. -1.
         -5    1    3    3    0  502 -0.80388082585E+02  0.68182197648E+02 -0.18643686555E+03  0.21422383326E+03  0.47000000000E+01 0.  1.
        -11    1    1    2    0    0 -0.70323119116E+01 -0.11368452046E+02  0.53194650567E+02  0.54848573014E+02  0.00000000000E+00 0. -1.
         11    1    1    2    0    0  0.64857976162E+02 -0.50698372696E+02  0.33027229087E+03  0.34037724393E+03  0.00000000000E+00 0.  1.
<mgrwt>
<rscale>  0 0.12837092E+03</rscale>
<asrwt>0</asrwt>
<pdfrwt beam="1">  1        2 0.63476632E-01 0.14157945E+03</pdfrwt>
<pdfrwt beam="2">  1       -2 0.34061274E-01 0.14157945E+03</pdfrwt>
<totfact> 0.62526410E+02</totfact>
</mgrwt>
</event>
<event>
 8    1  0.8504141E-006  0.1364135E+03  0.7546771E-02  0.1229243E+00
         -2   -1    0    0    0  501 -0.00000000000E+00  0.00000000000E+00  0.36464653453E+02  0.36464653453E+02  0.00000000000E+00 0.  1.
          2   -1    0    0  501    0  0.00000000000E+00 -0.00000000000E+00 -0.41112164648E+03  0.41112164648E+03  0.00000000000E+00 0. -1.
         23    2    1    2    0    0  0.70451549737E+01  0.54134860612E+02 -0.20467063349E+03  0.24596483172E+03  0.12501365080E+03 0.  0.
         23    2    1    2    0    0 -0.70451549737E+01 -0.54134860612E+02 -0.16998635954E+03  0.20162146822E+03  0.93678368234E+02 0.  0.
          5    1    3    3  502    0  0.54267511035E+02  0.66858256536E+02 -0.14456753359E+03  0.16833553098E+03  0.47000000000E+01 0. -1.
         -5    1    3    3    0  502 -0.47222356061E+02 -0.12723395925E+02 -0.60103099900E+02  0.77629300740E+02  0.47000000000E+01 0. -1.
        -11    1    4    4    0    0  0.43068021886E+02 -0.23222691263E+02 -0.66568688518E+02  0.82616815417E+02  0.00000000000E+00 0. -1.
         11    1    4    4    0    0 -0.50113176860E+02 -0.30912169349E+02 -0.10341767102E+03  0.11900465280E+03  0.00000000000E+00 0.  1.
<mgrwt>
<rscale>  0 0.12880261E+03</rscale>
<asrwt>0</asrwt>
<pdfrwt beam="2">  1        2 0.63249485E-01 0.13641345E+03</pdfrwt>
<pdfrwt beam="1">  1       -2 0.56099466E-02 0.13641345E+03</pdfrwt>
<totfact> 0.12038553E+04</totfact>
</mgrwt>
</event>
<event>
 8    1  0.8504141E-006  0.2561218E+03  0.7546771E-02  0.1111900E+00
         -2   -1    0    0    0  501 -0.00000000000E+00  0.00000000000E+00  0.22448308176E+03  0.22448308176E+03  0.00000000000E+00 0.  1.
          2   -1    0    0  501    0  0.00000000000E+00 -0.00000000000E+00 -0.33974259890E+03  0.33974259890E+03  0.00000000000E+00 0. -1.
         23    2    1    2    0    0 -0.21894916353E+03 -0.45103988386E+02  0.63915896874E+02  0.26397654503E+03  0.12500107389E+03 0.  0.
         23    2    1    2    0    0  0.21894916353E+03  0.45103988386E+02 -0.17917541402E+03  0.30024913563E+03  0.89847696015E+02 0.  0.
          5    1    3    3  502    0 -0.64324247414E+02  0.42510784087E+02  0.30663833309E+02  0.83109182659E+02  0.47000000000E+01 0.  1.
         -5    1    3    3    0  502 -0.15462491612E+03 -0.87614772473E+02  0.33252063565E+02  0.18086736237E+03  0.47000000000E+01 0.  1.
        -11    1    4    4    0    0  0.76339956205E+02  0.60492080720E+02 -0.68490880659E+02  0.11907174928E+03  0.00000000000E+00 0.  1.
         11    1    4    4    0    0  0.14260920733E+03 -0.15388092334E+02 -0.11068453336E+03  0.18117738635E+03  0.00000000000E+00 0. -1.
<mgrwt>
<rscale>  0 0.25223548E+03</rscale>
<asrwt>0</asrwt>
<pdfrwt beam="2">  1        2 0.52268092E-01 0.25612180E+03</pdfrwt>
<pdfrwt beam="1">  1       -2 0.34535859E-01 0.25612180E+03</pdfrwt>
<totfact> 0.75382379E+02</totfact>
</mgrwt>
</event>
<event>
 8    1  0.8504141E-006  0.1290326E+03  0.7546771E-02  0.1241561E+00
         -3   -1    0    0    0  501 -0.00000000000E+00  0.00000000000E+00  0.21053399598E+03  0.21053399598E+03  0.00000000000E+00 0.  1.
          3   -1    0    0  501    0  0.00000000000E+00 -0.00000000000E+00 -0.62098364444E+02  0.62098364444E+02  0.00000000000E+00 0. -1.
         23    2    1    2    0    0 -0.30529683574E+02 -0.95698964599E+01  0.87344752611E+02  0.15581563348E+03  0.12500304529E+03 0.  0.
         23    2    1    2    0    0  0.30529683574E+02  0.95698964599E+01  0.61090878924E+02  0.11681672694E+03  0.94288958573E+02 0.  0.
          5    1    3    3  502    0  0.13465018121E+02 -0.57483556466E+02  0.21147220343E+02  0.62888479909E+02  0.47000000000E+01 0. -1.
         -5    1    3    3    0  502 -0.43994701695E+02  0.47913660007E+02  0.66197532267E+02  0.92927153571E+02  0.47000000000E+01 0. -1.
        -11    1    4    4    0    0  0.37924288010E+02  0.17809773322E+02  0.82603860832E+02  0.92622013966E+02  0.00000000000E+00 0.  1.
         11    1    4    4    0    0 -0.73946044356E+01 -0.82398768624E+01 -0.21512981908E+02  0.24194712977E+02  0.00000000000E+00 0. -1.
<mgrwt>
<rscale>  0 0.12093609E+03</rscale>
<asrwt>0</asrwt>
<pdfrwt beam="2">  1        3 0.95535947E-02 0.12903258E+03</pdfrwt>
<pdfrwt beam="1">  1       -3 0.32389845E-01 0.12903258E+03</pdfrwt>
<totfact> 0.16847050E+03</totfact>
</mgrwt>
</event>
<event>
 8    1  0.8504141E-006  0.1329476E+03  0.7546771E-02  0.1235922E+00
          1   -1    0    0  501    0  0.00000000000E+00  0.00000000000E+00  0.10140903165E+03  0.10140903165E+03  0.00000000000E+00 0. -1.
         -1   -1    0    0    0  501 -0.00000000000E+00 -0.00000000000E+00 -0.13638118642E+03  0.13638118642E+03  0.00000000000E+00 0.  1.
         23    2    1    2    0    0 -0.43279734564E+02  0.13258074495E+02 -0.24084385860E+02  0.13511151238E+03  0.12500460460E+03 0.  0.
         23    2    1    2    0    0  0.43279734564E+02 -0.13258074495E+02 -0.10887768905E+02  0.10267870569E+03  0.91517545459E+02 0.  0.
          5    1    3    3  502    0  0.30031235908E+02 -0.31737583831E+02 -0.21507522710E+02  0.48926607185E+02  0.47000000000E+01 0.  1.
         -5    1    3    3    0  502 -0.73310970472E+02  0.44995658325E+02 -0.25768631497E+01  0.86184905195E+02  0.47000000000E+01 0.  1.
        -11    1    4    4    0    0  0.68902419744E+01 -0.49907730935E+02 -0.73026218544E+01  0.50907615614E+02  0.00000000000E+00 0.  1.
         11    1    4    4    0    0  0.36389492590E+02  0.36649656440E+02 -0.35851470506E+01  0.51771090075E+02  0.00000000000E+00 0. -1.
<mgrwt>
<rscale>  0 0.12445622E+03</rscale>
<asrwt>0</asrwt>
<pdfrwt beam="1">  1        1 0.15601390E-01 0.13294760E+03</pdfrwt>
<pdfrwt beam="2">  1       -1 0.20981721E-01 0.13294760E+03</pdfrwt>
<totfact> 0.62512068E+03</totfact>
</mgrwt>
</event>
<event>
 8    1  0.8504141E-006  0.1246490E+03  0.7546771E-02  0.1245128E+00
          1   -1    0    0  501    0  0.00000000000E+00  0.00000000000E+00  0.60564695559E+02  0.60564695559E+02  0.00000000000E+00 0. -1.
         -1   -1    0    0    0  501 -0.00000000000E+00 -0.00000000000E+00 -0.23973709334E+03  0.23973709334E+03  0.00000000000E+00 0.  1.
         23    2    1    2    0    0 -0.51154389256E+02  0.14321037714E+01 -0.14673793438E+03  0.19253411803E+03  0.11365976754E+03 0.  0.
         23    2    1    2    0    0  0.51154389256E+02 -0.14321037714E+01 -0.32434463398E+02  0.10776767087E+03  0.89123812791E+02 0.  0.
          5    1    3    3  502    0 -0.68456637140E+02  0.22647428456E+02 -0.40729426230E+02  0.82946930897E+02  0.47000000000E+01 0. -1.
         -5    1    3    3    0  502  0.17302247885E+02 -0.21215324684E+02 -0.10600850815E+03  0.10958718713E+03  0.47000000000E+01 0.  1.
        -11    1    4    4    0    0  0.38190287564E+02 -0.43107936440E+02 -0.27573705561E+02  0.63852184667E+02  0.00000000000E+00 0.  1.
         11    1    4    4    0    0  0.12964101692E+02  0.41675832669E+02 -0.48607578366E+01  0.43915486199E+02  0.00000000000E+00 0. -1.
<mgrwt>
<rscale>  0 0.11877749E+03</rscale>
<asrwt>0</asrwt>
<pdfrwt beam="1">  1        1 0.93176453E-02 0.12464897E+03</pdfrwt>
<pdfrwt beam="2">  1       -1 0.36882630E-01 0.12464897E+03</pdfrwt>
<totfact> 0.47809450E+03</totfact>
</mgrwt>
</event>
<event>
 8    1  0.8504141E-006  0.1367826E+03  0.7546771E-02  0.1232901E+00
         -1   -1    0    0    0  501 -0.00000000000E+00  0.00000000000E+00  0.26293893834E+03  0.26293893834E+03  0.00000000000E+00 0.  1.
          1   -1    0    0  501    0  0.00000000000E+00 -0.00000000000E+00 -0.67376794581E+02  0.67376794581E+02  0.00000000000E+00 0. -1.
         23    2    1    2    0    0  0.15073229113E+02  0.53458184960E+02  0.18492031276E+03  0.23001085205E+03  0.12499796085E+03 0.  0.
         23    2    1    2    0    0 -0.15073229113E+02 -0.53458184960E+02  0.10641831002E+02  0.10030488087E+03  0.82842264481E+02 0.  0.
          5    1    3    3  502    0  0.51890694756E+01 -0.23855884870E+02  0.13513963179E+03  0.13740756808E+03  0.47000000000E+01 0.  1.
         -5    1    3    3    0  502  0.98841596373E+01  0.77314069830E+02  0.49780680972E+02  0.92603283977E+02  0.47000000000E+01 0.  1.
        -11    1    4    4    0    0 -0.34211860080E+02  0.77155292958E+01 -0.13412354390E+01  0.35096718863E+02  0.00000000000E+00 0.  1.
         11    1    4    4    0    0  0.19138630967E+02 -0.61173714256E+02  0.11983066441E+02  0.65208162008E+02  0.00000000000E+00 0. -1.
<mgrwt>
<rscale>  0 0.12639766E+03</rscale>
<asrwt>0</asrwt>
<pdfrwt beam="2">  1        1 0.10365661E-01 0.13678256E+03</pdfrwt>
<pdfrwt beam="1">  1       -1 0.40452144E-01 0.13678256E+03</pdfrwt>
<totfact> 0.35549041E+03</totfact>
</mgrwt>
</event>
<event>
 8    1  0.8504141E-006  0.1448867E+03  0.7546771E-02  0.1216687E+00
          1   -1    0    0  501    0  0.00000000000E+00  0.00000000000E+00  0.77045376666E+02  0.77045376666E+02  0.00000000000E+00 0. -1.
         -1   -1    0    0    0  501 -0.00000000000E+00 -0.00000000000E+00 -0.41155781034E+03  0.41155781034E+03  0.00000000000E+00 0.  1.
         23    2    1    2    0    0  0.57991312880E+01  0.73029316567E+02 -0.34128839087E+03  0.37076938373E+03  0.12500103667E+03 0.  0.
         23    2    1    2    0    0 -0.57991312880E+01 -0.73029316567E+02  0.67759571936E+01  0.11783380328E+03  0.92043362591E+02 0.  0.
          5    1    3    3  502    0 -0.57590428202E+01  0.57673477286E+02 -0.44248657172E+02  0.73071404927E+02  0.47000000000E+01 0.  1.
         -5    1    3    3    0  502  0.11558174108E+02  0.15355839280E+02 -0.29703973369E+03  0.29769797880E+03  0.47000000000E+01 0.  1.
        -11    1    4    4    0    0  0.30969134733E+02  0.42305272519E+01 -0.43225486878E+01  0.31554224663E+02  0.00000000000E+00 0.  1.
         11    1    4    4    0    0 -0.36768266021E+02 -0.77259843819E+02  0.11098505881E+02  0.86279578615E+02  0.00000000000E+00 0. -1.
<mgrwt>
<rscale>  0 0.13753371E+03</rscale>
<asrwt>0</asrwt>
<pdfrwt beam="1">  1        1 0.11853135E-01 0.14488675E+03</pdfrwt>
<pdfrwt beam="2">  1       -1 0.63316585E-01 0.14488675E+03</pdfrwt>
<totfact> 0.13122146E+03</totfact>
</mgrwt>
</event>
<event>
 8    1  0.8504141E-006  0.1779118E+03  0.7546771E-02  0.1175673E+00
         -1   -1    0    0    0  501 -0.00000000000E+00  0.00000000000E+00  0.55457904376E+03  0.55457904376E+03  0.00000000000E+00 0.  1.
          1   -1    0    0  501    0  0.00000000000E+00 -0.00000000000E+00 -0.79262453179E+02  0.79262453179E+02  0.00000000000E+00 0. -1.
         23    2    1    2    0    0  0.12574862266E+03  0.14702083185E+02  0.43928061556E+03  0.47394098752E+03  0.12499493228E+03 0.  0.
         23    2    1    2    0    0 -0.12574862266E+03 -0.14702083185E+02  0.36035975018E+02  0.15990050942E+03  0.90778378847E+02 0.  0.
          5    1    3    3  502    0  0.22442212561E+02  0.49649058963E+02  0.69797825156E+02  0.88670786378E+02  0.47000000000E+01 0. -1.
         -5    1    3    3    0  502  0.10330641010E+03 -0.34946975777E+02  0.36948279041E+03  0.38527020114E+03  0.47000000000E+01 0. -1.
        -11    1    4    4    0    0 -0.90878781435E+02 -0.15482840386E+02  0.66436208505E+02  0.11363292244E+03  0.00000000000E+00 0.  1.
         11    1    4    4    0    0 -0.34869841222E+02  0.78075720083E+00 -0.30400233487E+02  0.46267586978E+02  0.00000000000E+00 0. -1.
<mgrwt>
<rscale>  0 0.17210216E+03</rscale>
<asrwt>0</asrwt>
<pdfrwt beam="2">  1        1 0.12194224E-01 0.17791178E+03</pdfrwt>
<pdfrwt beam="1">  1       -1 0.85319851E-01 0.17791178E+03</pdfrwt>
<totfact> 0.69726313E+02</totfact>
</mgrwt>
</event>
<event>
 8    1  0.8504141E-006  0.1329727E+03  0.7546771E-02  0.1236008E+00
         -1   -1    0    0    0  501 -0.00000000000E+00  0.00000000000E+00  0.50377207960E+02  0.50377207960E+02  0.00000000000E+00 0.  1.
          1   -1    0    0  501    0  0.00000000000E+00 -0.00000000000E+00 -0.27445445607E+03  0.27445445607E+03  0.00000000000E+00 0. -1.
         23    2    1    2    0    0  0.34725723592E+02 -0.29355693189E+02 -0.11824632449E+03  0.17794363129E+03  0.12495643264E+03 0.  0.
         23    2    1    2    0    0 -0.34725723592E+02  0.29355693189E+02 -0.10583092362E+03  0.14688803275E+03  0.91149751335E+02 0.  0.
          5    1    3    3  502    0  0.67951005838E+02 -0.42852707025E+02 -0.36122330985E+02  0.88207746199E+02  0.47000000000E+01 0.  1.
         -5    1    3    3    0  502 -0.33225282245E+02  0.13497013836E+02 -0.82123993509E+02  0.89735885088E+02  0.47000000000E+01 0.  1.
        -11    1    4    4    0    0  0.20787953449E+02 -0.13026373046E+02 -0.63550190602E+01  0.25341895560E+02  0.00000000000E+00 0.  1.
         11    1    4    4    0    0 -0.55513677042E+02  0.42382066234E+02 -0.99475904557E+02  0.12154613718E+03  0.00000000000E+00 0. -1.
<mgrwt>
<rscale>  0 0.12440137E+03</rscale>
<asrwt>0</asrwt>
<pdfrwt beam="2">  1        1 0.42223763E-01 0.13297271E+03</pdfrwt>
<pdfrwt beam="1">  1       -1 0.77503396E-02 0.13297271E+03</pdfrwt>
<totfact> 0.83970606E+03</totfact>
</mgrwt>
</event>
<event>
 8    1  0.8504141E-006  0.1511654E+03  0.7546771E-02  0.1207988E+00
          1   -1    0    0  501    0  0.00000000000E+00  0.00000000000E+00  0.10132943573E+03  0.10132943573E+03  0.00000000000E+00 0. -1.
         -1   -1    0    0    0  501 -0.00000000000E+00 -0.00000000000E+00 -0.19151264833E+03  0.19151264833E+03  0.00000000000E+00 0.  1.
         23    2    1    2    0    0 -0.69202518792E+02  0.49367422330E+02 -0.70003083468E+02  0.16658754070E+03  0.12499938410E+03 0.  0.
         23    2    1    2    0    0  0.69202518792E+02 -0.49367422330E+02 -0.20180129127E+02  0.12625454336E+03  0.91141873549E+02 0.  0.
          5    1    3    3  502    0 -0.10318159402E+02 -0.40665999728E+02 -0.10273795043E+02  0.43449152027E+02  0.47000000000E+01 0.  1.
         -5    1    3    3    0  502 -0.58884359390E+02  0.90033422058E+02 -0.59729288425E+02  0.12313838867E+03  0.47000000000E+01 0.  1.
        -11    1    4    4    0    0  0.23808676915E+02  0.23809302861E+02 -0.21825507090E+02  0.40125911315E+02  0.00000000000E+00 0.  1.
         11    1    4    4    0    0  0.45393841877E+02 -0.73176725191E+02  0.16453779632E+01  0.86128632049E+02  0.00000000000E+00 0. -1.
<mgrwt>
<rscale>  0 0.14404431E+03</rscale>
<asrwt>0</asrwt>
<pdfrwt beam="1">  1        1 0.15589144E-01 0.15116540E+03</pdfrwt>
<pdfrwt beam="2">  1       -1 0.29463484E-01 0.15116540E+03</pdfrwt>
<totfact> 0.36085749E+03</totfact>
</mgrwt>
</event>
<event>
 8    1  0.8504141E-006  0.1297774E+03  0.7546771E-02  0.1242242E+00
          3   -1    0    0  501    0  0.00000000000E+00  0.00000000000E+00  0.21257486259E+03  0.21257486259E+03  0.00000000000E+00 0. -1.
         -3   -1    0    0    0  501 -0.00000000000E+00 -0.00000000000E+00 -0.72888666516E+02  0.72888666516E+02  0.00000000000E+00 0.  1.
         23    2    1    2    0    0 -0.17218182454E+02 -0.30336517094E+02  0.19370612687E+02  0.13121504833E+03  0.12500159277E+03 0.  0.
         23    2    1    2    0    0  0.17218182454E+02  0.30336517094E+02  0.12031558338E+03  0.15424848078E+03  0.89999911890E+02 0.  0.
          5    1    3    3  502    0  0.20890712726E+02  0.36708049918E+02 -0.17062306602E+02  0.45794269440E+02  0.47000000000E+01 0. -1.
         -5    1    3    3    0  502 -0.38108895180E+02 -0.67044567012E+02  0.36432919290E+02  0.85420778887E+02  0.47000000000E+01 0. -1.
        -11    1    4    4    0    0  0.37845503916E+02  0.50230367158E+02  0.10324460896E+03  0.12089177487E+03  0.00000000000E+00 0. -1.
         11    1    4    4    0    0 -0.20627321462E+02 -0.19893850064E+02  0.17070974419E+02  0.33356705903E+02  0.00000000000E+00 0.  1.
<mgrwt>
<rscale>  0 0.12051950E+03</rscale>
<asrwt>0</asrwt>
<pdfrwt beam="1">  1        3 0.32703825E-01 0.12977738E+03</pdfrwt>
<pdfrwt beam="2">  1       -3 0.11213641E-01 0.12977738E+03</pdfrwt>
<totfact> 0.12706852E+03</totfact>
</mgrwt>
</event>
<event>
 8    1  0.8504141E-006  0.1738063E+03  0.7546771E-02  0.1180569E+00
         -2   -1    0    0    0  501 -0.00000000000E+00  0.00000000000E+00  0.10951171759E+03  0.10951171759E+03  0.00000000000E+00 0.  1.
          2   -1    0    0  501    0  0.00000000000E+00 -0.00000000000E+00 -0.23915137790E+03  0.23915137790E+03  0.00000000000E+00 0. -1.
         23    2    1    2    0    0  0.12033323106E+03 -0.10178742812E+02 -0.63028158921E+02  0.18488155722E+03  0.12499979232E+03 0.  0.
         23    2    1    2    0    0 -0.12033323106E+03  0.10178742812E+02 -0.66611501382E+02  0.16378153827E+03  0.88338026129E+02 0.  0.
          5    1    3    3  502    0  0.96187612342E+02  0.39862589609E+02 -0.49132908286E+01  0.10434228886E+03  0.47000000000E+01 0. -1.
         -5    1    3    3    0  502  0.24145618718E+02 -0.50041332420E+02 -0.58114868093E+02  0.80539268354E+02  0.47000000000E+01 0. -1.
        -11    1    4    4    0    0 -0.53497235369E+02 -0.39173550014E+02 -0.34137317680E+02  0.74577997233E+02  0.00000000000E+00 0. -1.
         11    1    4    4    0    0 -0.66835995690E+02  0.49352292826E+02 -0.32474183702E+02  0.89203541040E+02  0.00000000000E+00 0.  1.
<mgrwt>
<rscale>  0 0.16741695E+03</rscale>
<asrwt>0</asrwt>
<pdfrwt beam="2">  1        2 0.36792519E-01 0.17380633E+03</pdfrwt>
<pdfrwt beam="1">  1       -2 0.16847957E-01 0.17380633E+03</pdfrwt>
<totfact> 0.38442459E+03</totfact>
</mgrwt>
</event>
<event>
 8    1  0.8504141E-006  0.1308987E+03  0.7546771E-02  0.1237155E+00
          2   -1    0    0  501    0  0.00000000000E+00  0.00000000000E+00  0.12419660439E+03  0.12419660439E+03  0.00000000000E+00 0. -1.
         -2   -1    0    0    0  501 -0.00000000000E+00 -0.00000000000E+00 -0.12794990054E+03  0.12794990054E+03  0.00000000000E+00 0.  1.
         23    2    1    2    0    0  0.13992896350E+01 -0.38836000698E+02 -0.47205214764E+02  0.13915032833E+03  0.12499715441E+03 0.  0.
         23    2    1    2    0    0 -0.13992896350E+01  0.38836000698E+02  0.43451918614E+02  0.11299617659E+03  0.96798108097E+02 0.  0.
          5    1    3    3  502    0 -0.43396281859E+02  0.26470887520E+02 -0.12494602084E+02  0.52556162783E+02  0.47000000000E+01 0. -1.
         -5    1    3    3    0  502  0.44795571494E+02 -0.65306888218E+02 -0.34710612680E+02  0.86594165547E+02  0.47000000000E+01 0. -1.
        -11    1    4    4    0    0  0.28730283609E+02  0.32037228426E+02 -0.16071679028E+02  0.45935956158E+02  0.00000000000E+00 0.  1.
         11    1    4    4    0    0 -0.30129573244E+02  0.67987722725E+01  0.59523597641E+02  0.67060220432E+02  0.00000000000E+00 0. -1.
<mgrwt>
<rscale>  0 0.12367461E+03</rscale>
<asrwt>0</asrwt>
<pdfrwt beam="1">  1        2 0.19107170E-01 0.13089875E+03</pdfrwt>
<pdfrwt beam="2">  1       -2 0.19684600E-01 0.13089875E+03</pdfrwt>
<totfact> 0.59955653E+03</totfact>
</mgrwt>
</event>
<event>
 8    1  0.8504141E-006  0.1303177E+03  0.7546771E-02  0.1234066E+00
         -1   -1    0    0    0  501 -0.00000000000E+00  0.00000000000E+00  0.22973394718E+03  0.22973394718E+03  0.00000000000E+00 0.  1.
          1   -1    0    0  501    0  0.00000000000E+00 -0.00000000000E+00 -0.64218476738E+02  0.64218476738E+02  0.00000000000E+00 0. -1.
         23    2    1    2    0    0  0.81365472827E+01  0.35967354792E+02  0.88159863897E+02  0.15733674834E+03  0.12499134675E+03 0.  0.
         23    2    1    2    0    0 -0.81365472827E+01 -0.35967354792E+02  0.77355606547E+02  0.13661567558E+03  0.10639595358E+03 0.  0.
          5    1    3    3  502    0  0.26680201778E+02  0.42200282066E+02  0.11402645884E+03  0.12456652957E+03  0.47000000000E+01 0. -1.
         -5    1    3    3    0  502 -0.18543654495E+02 -0.62329272737E+01 -0.25866594940E+02  0.32770218770E+02  0.47000000000E+01 0. -1.
        -11    1    4    4    0    0 -0.35875888703E+02 -0.63065434845E+02  0.40385655068E+02  0.83038121353E+02  0.00000000000E+00 0.  1.
         11    1    4    4    0    0  0.27739341421E+02  0.27098080054E+02  0.36969951479E+02  0.53577554231E+02  0.00000000000E+00 0. -1.
<mgrwt>
<rscale>  0 0.12564411E+03</rscale>
<asrwt>0</asrwt>
<pdfrwt beam="2">  1        1 0.98797657E-02 0.13031765E+03</pdfrwt>
<pdfrwt beam="1">  1       -1 0.35343684E-01 0.13031765E+03</pdfrwt>
<totfact> 0.47745927E+03</totfact>
</mgrwt>
</event>
<event>
 8    1  0.8504141E-006  0.1770443E+03  0.7546771E-02  0.1176749E+00
          2   -1    0    0  501    0  0.00000000000E+00  0.00000000000E+00  0.64635892235E+03  0.64635892235E+03  0.00000000000E+00 0. -1.
         -2   -1    0    0    0  501 -0.00000000000E+00 -0.00000000000E+00 -0.43432286973E+02  0.43432286973E+02  0.00000000000E+00 0.  1.
         23    2    1    2    0    0  0.86048663688E+02  0.91199586598E+02  0.27024289732E+03  0.32307262664E+03  0.12499184540E+03 0.  0.
         23    2    1    2    0    0 -0.86048663688E+02 -0.91199586598E+02  0.33268373806E+03  0.36671858268E+03  0.89901680729E+02 0.  0.
          5    1    3    3  502    0  0.40388182894E+00 -0.18440125493E+02  0.10635229020E+03  0.10804212595E+03  0.47000000000E+01 0. -1.
         -5    1    3    3    0  502  0.85644781859E+02  0.10963971209E+03  0.16389060712E+03  0.21503050070E+03  0.47000000000E+01 0. -1.
        -11    1    4    4    0    0 -0.35690441588E+02  0.74711070472E+01  0.41881927186E+02  0.55531260441E+02  0.00000000000E+00 0.  1.
         11    1    4    4    0    0 -0.50358222100E+02 -0.98670693645E+02  0.29080181087E+03  0.31118732224E+03  0.00000000000E+00 0. -1.
<mgrwt>
<rscale>  0 0.17105780E+03</rscale>
<asrwt>0</asrwt>
<pdfrwt beam="1">  1        2 0.99439827E-01 0.17704434E+03</pdfrwt>
<pdfrwt beam="2">  1       -2 0.66818908E-02 0.17704434E+03</pdfrwt>
<totfact> 0.56619730E+03</totfact>
</mgrwt>
</event>
<event>
 8    1  0.8504141E-006  0.1434706E+03  0.7546771E-02  0.1219383E+00
         -1   -1    0    0    0  501 -0.00000000000E+00  0.00000000000E+00  0.23388710277E+03  0.23388710277E+03  0.00000000000E+00 0.  1.
          1   -1    0    0  501    0  0.00000000000E+00 -0.00000000000E+00 -0.73305713996E+02  0.73305713996E+02  0.00000000000E+00 0. -1.
         23    2    1    2    0    0 -0.43474580979E+02  0.55371224799E+02  0.11544077913E+03  0.18414772405E+03  0.12501119573E+03 0.  0.
         23    2    1    2    0    0  0.43474580979E+02 -0.55371224799E+02  0.45140609647E+02  0.12304509272E+03  0.90257456625E+02 0.  0.
          5    1    3    3  502    0  0.40409830833E+02 -0.35689166681E+01  0.33445093746E+02  0.52785944055E+02  0.47000000000E+01 0.  1.
         -5    1    3    3    0  502 -0.83884411812E+02  0.58940141468E+02  0.81995685386E+02  0.13136177999E+03  0.47000000000E+01 0.  1.
        -11    1    4    4    0    0  0.23761878910E+02 -0.24676476055E+01 -0.23945605040E+02  0.33824668139E+02  0.00000000000E+00 0. -1.
         11    1    4    4    0    0  0.19712702069E+02 -0.52903577194E+02  0.69086214687E+02  0.89220424582E+02  0.00000000000E+00 0.  1.
<mgrwt>
<rscale>  0 0.13559420E+03</rscale>
<asrwt>0</asrwt>
<pdfrwt beam="2">  1        1 0.11277802E-01 0.14347059E+03</pdfrwt>
<pdfrwt beam="1">  1       -1 0.35982631E-01 0.14347059E+03</pdfrwt>
<totfact> 0.39093487E+03</totfact>
</mgrwt>
</event>
<event>
 8    1  0.8504141E-006  0.1495432E+03  0.7546771E-02  0.1206244E+00
         -2   -1    0    0    0  501 -0.00000000000E+00  0.00000000000E+00  0.12414163385E+03  0.12414163385E+03  0.00000000000E+00 0.  1.
          2   -1    0    0  501    0  0.00000000000E+00 -0.00000000000E+00 -0.20993111283E+03  0.20993111283E+03  0.00000000000E+00 0. -1.
         23    2    1    2    0    0  0.96541106093E+02  0.16564888104E+02  0.35389083486E+02  0.15367353177E+03  0.11299817013E+03 0.  0.
         23    2    1    2    0    0 -0.96541106093E+02 -0.16564888104E+02 -0.12117856246E+03  0.18039921491E+03  0.90912331704E+02 0.  0.
          5    1    3    3  502    0  0.63121739226E+02  0.43404978564E+02 -0.23880089459E+02  0.80378447358E+02  0.47000000000E+01 0. -1.
         -5    1    3    3    0  502  0.33419366867E+02 -0.26840090460E+02  0.59269172945E+02  0.73295084414E+02  0.47000000000E+01 0.  1.
        -11    1    4    4    0    0 -0.20847065477E+02 -0.47496201855E+02 -0.47053217288E+02  0.70032096833E+02  0.00000000000E+00 0. -1.
         11    1    4    4    0    0 -0.75694040616E+02  0.30931313751E+02 -0.74125345176E+02  0.11036711808E+03  0.00000000000E+00 0.  1.
<mgrwt>
<rscale>  0 0.14539821E+03</rscale>
<asrwt>0</asrwt>
<pdfrwt beam="2">  1        2 0.32297094E-01 0.14954319E+03</pdfrwt>
<pdfrwt beam="1">  1       -2 0.19098713E-01 0.14954319E+03</pdfrwt>
<totfact> 0.35594457E+03</totfact>
</mgrwt>
</event>
<event>
 8    1  0.8504141E-006  0.1313367E+03  0.7546771E-02  0.1239431E+00
          1   -1    0    0  501    0  0.00000000000E+00  0.00000000000E+00  0.12213586394E+03  0.12213586394E+03  0.00000000000E+00 0.  1.
         -1   -1    0    0    0  501 -0.00000000000E+00 -0.00000000000E+00 -0.11118745368E+03  0.11118745368E+03  0.00000000000E+00 0. -1.
         23    2    1    2    0    0 -0.34481744258E+01  0.40031895524E+02 -0.12659572484E+02  0.13194540105E+03  0.12503951982E+03 0.  0.
         23    2    1    2    0    0  0.34481744258E+01 -0.40031895524E+02  0.23607982746E+02  0.10137791656E+03  0.90031675264E+02 0.  0.
          5    1    3    3  502    0  0.22958318812E+02 -0.24558286293E+02  0.33862864861E+02  0.47947653175E+02  0.47000000000E+01 0.  1.
         -5    1    3    3    0  502 -0.26406493238E+02  0.64590181818E+02 -0.46522437345E+02  0.83997747880E+02  0.47000000000E+01 0.  1.
        -11    1    4    4    0    0  0.35337042172E+02 -0.87659856648E+01  0.39738045409E+02  0.53894909844E+02  0.00000000000E+00 0.  1.
         11    1    4    4    0    0 -0.31888867746E+02 -0.31265909860E+02 -0.16130062663E+02  0.47483006718E+02  0.00000000000E+00 0. -1.
<mgrwt>
<rscale>  0 0.12224993E+03</rscale>
<asrwt>0</asrwt>
<pdfrwt beam="1">  1        1 0.18790133E-01 0.13133668E+03</pdfrwt>
<pdfrwt beam="2">  1       -1 0.17105762E-01 0.13133668E+03</pdfrwt>
<totfact> 0.68170662E+03</totfact>
</mgrwt>
</event>
<event>
 7    1  0.8504141E-006  0.2449559E+03  0.7546771E-02  0.1141090E+00
         -4   -1    0    0    0  501 -0.00000000000E+00  0.00000000000E+00  0.82803118467E+02  0.82803118467E+02  0.00000000000E+00 0.  1.
          4   -1    0    0  501    0  0.00000000000E+00 -0.00000000000E+00 -0.43526622697E+03  0.43526622697E+03  0.00000000000E+00 0. -1.
         23    2    1    2    0    0  0.96821081493E+02  0.21886082726E+02 -0.14177127999E+03  0.19496808146E+03  0.89778251920E+02 0.  0.
          5    1    1    2  502    0 -0.96508630884E+02 -0.25399891458E+02 -0.25735652187E+03  0.27606799827E+03  0.47000000000E+01 0. -1.
         -5    1    1    2    0  502 -0.31245060900E+00  0.35138087327E+01  0.46664693357E+02  0.47033265710E+02  0.47000000000E+01 0.  1.
        -11    1    3    3    0    0  0.53914305357E+02  0.41510040721E+02 -0.12938810559E+03  0.14618863728E+03  0.00000000000E+00 0.  1.
         11    1    3    3    0    0  0.42906776135E+02 -0.19623957996E+02 -0.12383174406E+02  0.48779444176E+02  0.00000000000E+00 0. -1.
<mgrwt>
<rscale>  0 0.21060240E+03</rscale>
<asrwt>0</asrwt>
<pdfrwt beam="2">  1        4 0.66964036E-01 0.24495587E+03</pdfrwt>
<pdfrwt beam="1">  1       -4 0.12738941E-01 0.24495587E+03</pdfrwt>
<totfact> 0.19246581E+02</totfact>
</mgrwt>
</event>
<event>
 7    1  0.8504141E-006  0.1473864E+03  0.7546771E-02  0.1222948E+00
         -3   -1    0    0    0  501 -0.00000000000E+00  0.00000000000E+00  0.16308598143E+03  0.16308598143E+03  0.00000000000E+00 0.  1.
          3   -1    0    0  501    0  0.00000000000E+00 -0.00000000000E+00 -0.96700296366E+02  0.96700296366E+02  0.00000000000E+00 0. -1.
         23    2    1    2    0    0  0.34933991540E+00  0.18283292857E+02 -0.37629332632E+00  0.97984181525E+02  0.96261920802E+02 0.  0.
          5    1    1    2  502    0  0.58712196358E+02 -0.16403467643E+01 -0.13708425376E+02  0.60496476467E+02  0.47000000000E+01 0. -1.
         -5    1    1    2    0  502 -0.59061536273E+02 -0.16642946093E+02  0.80470403768E+02  0.10130561981E+03  0.47000000000E+01 0.  1.
        -11    1    3    3    0    0 -0.31201601700E+02  0.43687348748E+02  0.13160570727E+02  0.55274994447E+02  0.00000000000E+00 0.  1.
         11    1    3    3    0    0  0.31550941615E+02 -0.25404055891E+02 -0.13536864053E+02  0.42709187078E+02  0.00000000000E+00 0. -1.
<mgrwt>
<rscale>  0 0.13308567E+03</rscale>
<asrwt>0</asrwt>
<pdfrwt beam="2">  1        3 0.14876969E-01 0.14738642E+03</pdfrwt>
<pdfrwt beam="1">  1       -3 0.25090151E-01 0.14738642E+03</pdfrwt>
<totfact> 0.13101040E+03</totfact>
</mgrwt>
</event>
<event>
 8    1  0.8504141E-006  0.1278935E+03  0.7546771E-02  0.1246932E+00
         -1   -1    0    0    0  501 -0.00000000000E+00  0.00000000000E+00  0.86652079176E+02  0.86652079176E+02  0.00000000000E+00 0.  1.
          1   -1    0    0  501    0  0.00000000000E+00 -0.00000000000E+00 -0.14019008645E+03  0.14019008645E+03  0.00000000000E+00 0. -1.
         23    2    1    2    0    0  0.26668776370E+02 -0.48502586797E+01 -0.40571680095E+02  0.13417451971E+03  0.12498796691E+03 0.  0.
         23    2    1    2    0    0 -0.26668776370E+02  0.48502586797E+01 -0.12966327183E+02  0.92667645918E+02  0.87660814033E+02 0.  0.
          5    1    3    3  502    0 -0.19105144157E+02  0.46830372225E+01 -0.73865168624E+02  0.76583878896E+02  0.47000000000E+01 0. -1.
         -5    1    3    3    0  502  0.45773920527E+02 -0.95332959022E+01  0.33293488529E+02  0.57590640816E+02  0.47000000000E+01 0. -1.
        -11    1    4    4    0    0 -0.72745753037E+01 -0.37103505019E+02  0.12592662553E+02  0.39851783908E+02  0.00000000000E+00 0.  1.
         11    1    4    4    0    0 -0.19394201066E+02  0.41953763698E+02 -0.25558989736E+02  0.52815862009E+02  0.00000000000E+00 0. -1.
<mgrwt>
<rscale>  0 0.11770500E+03</rscale>
<asrwt>0</asrwt>
<pdfrwt beam="2">  1        1 0.21567705E-01 0.12789347E+03</pdfrwt>
<pdfrwt beam="1">  1       -1 0.13331089E-01 0.12789347E+03</pdfrwt>
<totfact> 0.84398816E+03</totfact>
</mgrwt>
</event>
<event>
 8    1  0.8504141E-006  0.1719513E+03  0.7546771E-02  0.1181778E+00
          2   -1    0    0  501    0  0.00000000000E+00  0.00000000000E+00  0.42507441992E+03  0.42507441992E+03  0.00000000000E+00 0. -1.
         -2   -1    0    0    0  501 -0.00000000000E+00 -0.00000000000E+00 -0.61273498219E+02  0.61273498219E+02  0.00000000000E+00 0.  1.
         23    2    1    2    0    0 -0.11701371367E+03  0.15807051936E+02  0.20670715366E+03  0.26887745837E+03  0.12500067266E+03 0.  0.
         23    2    1    2    0    0  0.11701371367E+03 -0.15807051936E+02  0.15709376804E+03  0.21747045977E+03  0.93128281628E+02 0.  0.
          5    1    3    3  502    0 -0.40838094497E+02  0.47710668601E+02  0.16422457417E+03  0.17588592503E+03  0.47000000000E+01 0. -1.
         -5    1    3    3    0  502 -0.76175619173E+02 -0.31903616665E+02  0.42482579490E+02  0.92991533340E+02  0.47000000000E+01 0. -1.
        -11    1    4    4    0    0  0.13327172437E+03 -0.14678225765E+02  0.13936796169E+03  0.19339139478E+03  0.00000000000E+00 0.  1.
         11    1    4    4    0    0 -0.16258010698E+02 -0.11288261708E+01  0.17725806347E+02  0.24079064995E+02  0.00000000000E+00 0. -1.
<mgrwt>
<rscale>  0 0.16628516E+03</rscale>
<asrwt>0</asrwt>
<pdfrwt beam="1">  1        2 0.65396063E-01 0.17195127E+03</pdfrwt>
<pdfrwt beam="2">  1       -2 0.94266923E-02 0.17195127E+03</pdfrwt>
<totfact> 0.52989367E+03</totfact>
</mgrwt>
</event>
<event>
 8    1  0.8504141E-006  0.1288632E+03  0.7546771E-02  0.1237807E+00
          2   -1    0    0  501    0  0.00000000000E+00  0.00000000000E+00  0.34622226126E+02  0.34622226126E+02  0.00000000000E+00 0. -1.
         -2   -1    0    0    0  501 -0.00000000000E+00 -0.00000000000E+00 -0.47868371339E+03  0.47868371339E+03  0.00000000000E+00 0.  1.
         23    2    1    2    0    0  0.23134720472E+02 -0.21026473925E+02 -0.33921469534E+03  0.36286682573E+03  0.12501358238E+03 0.  0.
         23    2    1    2    0    0 -0.23134720472E+02  0.21026473925E+02 -0.10484679192E+03  0.15043911379E+03  0.10325574698E+03 0.  0.
          5    1    3    3  502    0 -0.49381662060E+02 -0.14394008319E+02 -0.96939930288E+02  0.10984159553E+03  0.47000000000E+01 0. -1.
         -5    1    3    3    0  502  0.72516382532E+02 -0.66324656061E+01 -0.24227476506E+03  0.25302523020E+03  0.47000000000E+01 0. -1.
        -11    1    4    4    0    0  0.35170505912E+02 -0.39494658272E+01 -0.69085205670E+02  0.77622988920E+02  0.00000000000E+00 0.  1.
         11    1    4    4    0    0 -0.58305226384E+02  0.24975939752E+02 -0.35761586253E+02  0.72816124873E+02  0.00000000000E+00 0. -1.
<mgrwt>
<rscale>  0 0.12326407E+03</rscale>
<asrwt>0</asrwt>
<pdfrwt beam="1">  1        2 0.53264963E-02 0.12886320E+03</pdfrwt>
<pdfrwt beam="2">  1       -2 0.73643648E-01 0.12886320E+03</pdfrwt>
<totfact> 0.23616075E+03</totfact>
</mgrwt>
</event>
<event>
 8    1  0.8504141E-006  0.1907846E+03  0.7546771E-02  0.1162176E+00
         -2   -1    0    0    0  501 -0.00000000000E+00  0.00000000000E+00  0.16294128719E+03  0.16294128719E+03  0.00000000000E+00 0.  1.
          2   -1    0    0  501    0  0.00000000000E+00 -0.00000000000E+00 -0.20720473141E+03  0.20720473141E+03  0.00000000000E+00 0. -1.
         23    2    1    2    0    0  0.12158408747E+03 -0.77403389892E+02  0.58347680045E+01  0.19087379105E+03  0.12499913800E+03 0.  0.
         23    2    1    2    0    0 -0.12158408747E+03  0.77403389892E+02 -0.50098212225E+02  0.17927222754E+03  0.94099551583E+02 0.  0.
          5    1    3    3  502    0  0.73815792427E+01  0.26668270502E+02  0.21704681494E+02  0.35480523706E+02  0.47000000000E+01 0.  1.
         -5    1    3    3    0  502  0.11420250822E+03 -0.10407166039E+03 -0.15869913490E+02  0.15539326734E+03  0.47000000000E+01 0.  1.
        -11    1    4    4    0    0 -0.64827271033E+02  0.92734964334E+02 -0.36959439570E+02  0.11903087353E+03  0.00000000000E+00 0.  1.
         11    1    4    4    0    0 -0.56756816433E+02 -0.15331574443E+02 -0.13138772655E+02  0.60241354013E+02  0.00000000000E+00 0. -1.
<mgrwt>
<rscale>  0 0.18593945E+03</rscale>
<asrwt>0</asrwt>
<pdfrwt beam="2">  1        2 0.31877651E-01 0.19078459E+03</pdfrwt>
<pdfrwt beam="1">  1       -2 0.25067890E-01 0.19078459E+03</pdfrwt>
<totfact> 0.22845081E+03</totfact>
</mgrwt>
</event>
<event>
 8    1  0.8504141E-006  0.1490668E+03  0.7546771E-02  0.1209342E+00
          1   -1    0    0  501    0  0.00000000000E+00  0.00000000000E+00  0.42208895429E+02  0.42208895429E+02  0.00000000000E+00 0. -1.
         -1   -1    0    0    0  501 -0.00000000000E+00 -0.00000000000E+00 -0.45304291119E+03  0.45304291119E+03  0.00000000000E+00 0.  1.
         23    2    1    2    0    0  0.50615344177E+02 -0.63526626018E+02 -0.19891857610E+03  0.24857496184E+03  0.12499346565E+03 0.  0.
         23    2    1    2    0    0 -0.50615344177E+02  0.63526626018E+02 -0.21191543967E+03  0.24667684479E+03  0.96663162089E+02 0.  0.
          5    1    3    3  502    0  0.82917811476E+02 -0.55286901242E+02 -0.18859831125E+03  0.21336217546E+03  0.47000000000E+01 0. -1.
         -5    1    3    3    0  502 -0.32302467300E+02 -0.82397247759E+01 -0.10320264845E+02  0.35212786378E+02  0.47000000000E+01 0. -1.
        -11    1    4    4    0    0  0.17122454236E+02  0.37501419712E+02 -0.13402442902E+03  0.14022154789E+03  0.00000000000E+00 0.  1.
         11    1    4    4    0    0 -0.67737798413E+02  0.26025206306E+02 -0.77891010652E+02  0.10645529690E+03  0.00000000000E+00 0. -1.
<mgrwt>
<rscale>  0 0.14300500E+03</rscale>
<asrwt>0</asrwt>
<pdfrwt beam="1">  1        1 0.64936765E-02 0.14906680E+03</pdfrwt>
<pdfrwt beam="2">  1       -1 0.69698907E-01 0.14906680E+03</pdfrwt>
<totfact> 0.24358334E+03</totfact>
</mgrwt>
</event>
<event>
 8    1  0.8504141E-006  0.1316710E+03  0.7546771E-02  0.1237377E+00
          4   -1    0    0  501    0  0.00000000000E+00  0.00000000000E+00  0.13125994234E+03  0.13125994234E+03  0.00000000000E+00 0. -1.
         -4   -1    0    0    0  501 -0.00000000000E+00 -0.00000000000E+00 -0.15167363341E+03  0.15167363341E+03  0.00000000000E+00 0.  1.
         23    2    1    2    0    0 -0.29342632989E+02  0.29172800364E+02 -0.89955422876E+02  0.15946541373E+03  0.12500079071E+03 0.  0.
         23    2    1    2    0    0  0.29342632989E+02 -0.29172800364E+02  0.69541731810E+02  0.12346816203E+03  0.93253912408E+02 0.  0.
          5    1    3    3  502    0 -0.67188756390E+02  0.28155210915E+02 -0.13807511255E+02  0.74295237088E+02  0.47000000000E+01 0. -1.
         -5    1    3    3    0  502  0.37846123401E+02  0.10175894486E+01 -0.76147911621E+02  0.85170176641E+02  0.47000000000E+01 0. -1.
        -11    1    4    4    0    0 -0.14831697174E+02  0.22899267445E+02  0.18948737497E+01  0.27348605762E+02  0.00000000000E+00 0.  1.
         11    1    4    4    0    0  0.44174330164E+02 -0.52072067809E+02  0.67646858060E+02  0.96119556265E+02  0.00000000000E+00 0. -1.
<mgrwt>
<rscale>  0 0.12353503E+03</rscale>
<asrwt>0</asrwt>
<pdfrwt beam="1">  1        4 0.20193837E-01 0.13167095E+03</pdfrwt>
<pdfrwt beam="2">  1       -4 0.23334405E-01 0.13167095E+03</pdfrwt>
<totfact> 0.62127084E+02</totfact>
</mgrwt>
</event>
<event>
 8    1  0.8504141E-006  0.1499287E+03  0.7546771E-02  0.1209138E+00
          1   -1    0    0  501    0  0.00000000000E+00  0.00000000000E+00  0.48276415991E+02  0.48276415991E+02  0.00000000000E+00 0. -1.
         -1   -1    0    0    0  501 -0.00000000000E+00 -0.00000000000E+00 -0.42866395604E+03  0.42866395604E+03  0.00000000000E+00 0.  1.
         23    2    1    2    0    0  0.79911209546E+02 -0.21617764752E+02 -0.27713685846E+03  0.31509277990E+03  0.12500196985E+03 0.  0.
         23    2    1    2    0    0 -0.79911209546E+02  0.21617764752E+02 -0.10325068160E+03  0.16184759214E+03  0.93170868118E+02 0.  0.
          5    1    3    3  502    0  0.99026635346E+02  0.10942203281E+02 -0.13436516244E+03  0.16733825981E+03  0.47000000000E+01 0.  1.
         -5    1    3    3    0  502 -0.19115425800E+02 -0.32559968033E+02 -0.14277169602E+03  0.14775452009E+03  0.47000000000E+01 0.  1.
        -11    1    4    4    0    0 -0.35646762122E+02 -0.30514067026E+02 -0.73649230568E+02  0.87327023879E+02  0.00000000000E+00 0.  1.
         11    1    4    4    0    0 -0.44264447423E+02  0.52131831779E+02 -0.29601451030E+02  0.74520568257E+02  0.00000000000E+00 0. -1.
<mgrwt>
<rscale>  0 0.14316071E+03</rscale>
<asrwt>0</asrwt>
<pdfrwt beam="1">  1        1 0.74271408E-02 0.14992872E+03</pdfrwt>
<pdfrwt beam="2">  1       -1 0.65948302E-01 0.14992872E+03</pdfrwt>
<totfact> 0.22643272E+03</totfact>
</mgrwt>
</event>
<event>
 8    1  0.8504141E-006  0.1627849E+03  0.7546771E-02  0.1192804E+00
          2   -1    0    0  501    0  0.00000000000E+00  0.00000000000E+00  0.16647639828E+03  0.16647639828E+03  0.00000000000E+00 0. -1.
         -2   -1    0    0    0  501 -0.00000000000E+00 -0.00000000000E+00 -0.14769622710E+03  0.14769622710E+03  0.00000000000E+00 0.  1.
         23    2    1    2    0    0  0.50744078079E+02 -0.91145428547E+02 -0.32937933376E+02  0.16608382228E+03  0.12496590721E+03 0.  0.
         23    2    1    2    0    0 -0.50744078079E+02  0.91145428547E+02  0.51718104560E+02  0.14808880310E+03  0.91504539005E+02 0.  0.
          5    1    3    3  502    0  0.67107621130E+02 -0.23704384968E+01 -0.34579422794E+02  0.75676140713E+02  0.47000000000E+01 0.  1.
         -5    1    3    3    0  502 -0.16363543051E+02 -0.88774990050E+02  0.16414894180E+01  0.90407681572E+02  0.47000000000E+01 0.  1.
        -11    1    4    4    0    0 -0.77557496980E+02  0.67139803943E+02  0.41682713101E+02  0.11072654236E+03  0.00000000000E+00 0.  1.
         11    1    4    4    0    0  0.26813418901E+02  0.24005624604E+02  0.10035391459E+02  0.37362260739E+02  0.00000000000E+00 0. -1.
<mgrwt>
<rscale>  0 0.15641560E+03</rscale>
<asrwt>0</asrwt>
<pdfrwt beam="1">  1        2 0.25611754E-01 0.16278492E+03</pdfrwt>
<pdfrwt beam="2">  1       -2 0.22722496E-01 0.16278492E+03</pdfrwt>
<totfact> 0.34234800E+03</totfact>
</mgrwt>
</event>
<event>
 8    1  0.8504141E-006  0.1643623E+03  0.7546771E-02  0.1190500E+00
          2   -1    0    0  501    0  0.00000000000E+00  0.00000000000E+00  0.18609032756E+03  0.18609032756E+03  0.00000000000E+00 0. -1.
         -2   -1    0    0    0  501 -0.00000000000E+00 -0.00000000000E+00 -0.16144816746E+03  0.16144816746E+03  0.00000000000E+00 0.  1.
         23    2    1    2    0    0  0.10123276390E+03  0.33802340254E+02 -0.68282201848E+02  0.17798154378E+03  0.12499720054E+03 0.  0.
         23    2    1    2    0    0 -0.10123276390E+03 -0.33802340254E+02  0.92924361954E+02  0.16955695124E+03  0.93402098357E+02 0.  0.
          5    1    3    3  502    0  0.10989544173E+03  0.62489007880E+02 -0.74787071847E+02  0.14695945132E+03  0.47000000000E+01 0. -1.
         -5    1    3    3    0  502 -0.86626778277E+01 -0.28686667626E+02  0.65048699984E+01  0.31022092456E+02  0.47000000000E+01 0. -1.
        -11    1    4    4    0    0 -0.19219183131E+02  0.16416677663E+02  0.64501469565E+02  0.69277152668E+02  0.00000000000E+00 0. -1.
         11    1    4    4    0    0 -0.82013580767E+02 -0.50219017917E+02  0.28422892389E+02  0.10027979858E+03  0.00000000000E+00 0.  1.
<mgrwt>
<rscale>  0 0.15841295E+03</rscale>
<asrwt>0</asrwt>
<pdfrwt beam="1">  1        2 0.28629281E-01 0.16436232E+03</pdfrwt>
<pdfrwt beam="2">  1       -2 0.24838180E-01 0.16436232E+03</pdfrwt>
<totfact> 0.25951765E+03</totfact>
</mgrwt>
</event>
<event>
 8    1  0.8504141E-006  0.1617748E+03  0.7546771E-02  0.1194638E+00
         -2   -1    0    0    0  501 -0.00000000000E+00  0.00000000000E+00  0.69619854995E+02  0.69619854995E+02  0.00000000000E+00 0.  1.
          2   -1    0    0  501    0  0.00000000000E+00 -0.00000000000E+00 -0.33000451130E+03  0.33000451130E+03  0.00000000000E+00 0. -1.
         23    2    1    2    0    0 -0.10245356486E+03  0.41814852331E+01 -0.17913692170E+03  0.24137340844E+03  0.12512740634E+03 0.  0.
         23    2    1    2    0    0  0.10245356486E+03 -0.41814852331E+01 -0.81247734607E+02  0.15825095785E+03  0.89039056097E+02 0.  0.
          5    1    3    3  502    0 -0.33625278573E+02 -0.59014667137E+02 -0.80289960606E+02  0.10527087950E+03  0.47000000000E+01 0.  1.
         -5    1    3    3    0  502 -0.68828286288E+02  0.63196152370E+02 -0.98846961091E+02  0.13610252894E+03  0.47000000000E+01 0.  1.
        -11    1    4    4    0    0  0.38821095702E+02 -0.20323405688E+02  0.10857917693E+02  0.45144353655E+02  0.00000000000E+00 0.  1.
         11    1    4    4    0    0  0.63632469159E+02  0.16141920455E+02 -0.92105652300E+02  0.11310660420E+03  0.00000000000E+00 0. -1.
<mgrwt>
<rscale>  0 0.15484945E+03</rscale>
<asrwt>0</asrwt>
<pdfrwt beam="2">  1        2 0.50769925E-01 0.16177480E+03</pdfrwt>
<pdfrwt beam="1">  1       -2 0.10710747E-01 0.16177480E+03</pdfrwt>
<totfact> 0.56651142E+03</totfact>
</mgrwt>
</event>
<event>
 8    1  0.8504141E-006  0.1819531E+03  0.7546771E-02  0.1171296E+00
         -1   -1    0    0    0  501 -0.00000000000E+00  0.00000000000E+00  0.78121593499E+02  0.78121593499E+02  0.00000000000E+00 0.  1.
          1   -1    0    0  501    0  0.00000000000E+00 -0.00000000000E+00 -0.40152727651E+03  0.40152727651E+03  0.00000000000E+00 0. -1.
         23    2    1    2    0    0  0.30070445755E+02 -0.12875697324E+03 -0.11078471444E+03  0.21302626022E+03  0.12499737888E+03 0.  0.
         23    2    1    2    0    0 -0.30070445755E+02  0.12875697324E+03 -0.21262096857E+03  0.26662260978E+03  0.91637055299E+02 0.  0.
          5    1    3    3  502    0  0.39779645778E+02 -0.12632153047E+03 -0.35855368354E+02  0.13728527495E+03  0.47000000000E+01 0.  1.
         -5    1    3    3    0  502 -0.97092000236E+01 -0.24354427769E+01 -0.74929346082E+02  0.75740985278E+02  0.47000000000E+01 0.  1.
        -11    1    4    4    0    0 -0.36208768743E+02  0.39032396167E+02 -0.25545401403E+02  0.59052268519E+02  0.00000000000E+00 0.  1.
         11    1    4    4    0    0  0.61383229880E+01  0.89724577076E+02 -0.18707556717E+03  0.20757034126E+03  0.00000000000E+00 0. -1.
<mgrwt>
<rscale>  0 0.17643715E+03</rscale>
<asrwt>0</asrwt>
<pdfrwt beam="2">  1        1 0.61773427E-01 0.18195311E+03</pdfrwt>
<pdfrwt beam="1">  1       -1 0.12018707E-01 0.18195311E+03</pdfrwt>
<totfact> 0.27120877E+03</totfact>
</mgrwt>
</event>
<event>
 8    1  0.8504141E-006  0.1595340E+03  0.7546771E-02  0.1197866E+00
         -1   -1    0    0    0  501 -0.00000000000E+00  0.00000000000E+00  0.38705059760E+02  0.38705059760E+02  0.00000000000E+00 0.  1.
          1   -1    0    0  501    0  0.00000000000E+00 -0.00000000000E+00 -0.55432661524E+03  0.55432661524E+03  0.00000000000E+00 0. -1.
         23    2    1    2    0    0  0.42874372746E+02 -0.89356540210E+02 -0.25250283747E+03  0.29867836933E+03  0.12501312834E+03 0.  0.
         23    2    1    2    0    0 -0.42874372746E+02  0.89356540210E+02 -0.26311871801E+03  0.29435330567E+03  0.87118342931E+02 0.  0.
          5    1    3    3  502    0  0.75657663166E+02 -0.61059030415E+02 -0.22978167305E+03  0.24954757955E+03  0.47000000000E+01 0. -1.
         -5    1    3    3    0  502 -0.32783290420E+02 -0.28297509795E+02 -0.22721164417E+02  0.49130789774E+02  0.47000000000E+01 0. -1.
        -11    1    4    4    0    0 -0.66594772037E+01  0.32429708170E+02 -0.13459321350E+02  0.35737766296E+02  0.00000000000E+00 0.  1.
         11    1    4    4    0    0 -0.36214895542E+02  0.56926832040E+02 -0.24965939666E+03  0.25861553938E+03  0.00000000000E+00 0. -1.
<mgrwt>
<rscale>  0 0.15214133E+03</rscale>
<asrwt>0</asrwt>
<pdfrwt beam="2">  1        1 0.85281016E-01 0.15953396E+03</pdfrwt>
<pdfrwt beam="1">  1       -1 0.59546247E-02 0.15953396E+03</pdfrwt>
<totfact> 0.51629745E+03</totfact>
</mgrwt>
</event>
<event>
 8    1  0.8504141E-006  0.1355215E+03  0.7546771E-02  0.1236952E+00
          3   -1    0    0  501    0  0.00000000000E+00  0.00000000000E+00  0.40275237456E+02  0.40275237456E+02  0.00000000000E+00 0. -1.
         -3   -1    0    0    0  501 -0.00000000000E+00 -0.00000000000E+00 -0.39574878586E+03  0.39574878586E+03  0.00000000000E+00 0.  1.
         23    2    1    2    0    0  0.29738344114E+02 -0.43327091782E+02 -0.29303952540E+03  0.32285948571E+03  0.12491788532E+03 0.  0.
         23    2    1    2    0    0 -0.29738344114E+02  0.43327091782E+02 -0.62434022999E+02  0.11316453760E+03  0.78400250953E+02 0.  0.
          5    1    3    3  502    0  0.10821239323E+02 -0.77436684407E+02 -0.25994888839E+03  0.27149411391E+03  0.47000000000E+01 0.  1.
         -5    1    3    3    0  502  0.18917104791E+02  0.34109592625E+02 -0.33090637016E+02  0.51365371807E+02  0.47000000000E+01 0.  1.
        -11    1    4    4    0    0  0.13420098682E+02  0.44419019256E+02 -0.14410426433E+02  0.48588154012E+02  0.00000000000E+00 0.  1.
         11    1    4    4    0    0 -0.43158442796E+02 -0.10919274741E+01 -0.48023596566E+02  0.64576383589E+02  0.00000000000E+00 0. -1.
<mgrwt>
<rscale>  0 0.12380266E+03</rscale>
<asrwt>0</asrwt>
<pdfrwt beam="1">  1        3 0.61961906E-02 0.13552153E+03</pdfrwt>
<pdfrwt beam="2">  1       -3 0.60884427E-01 0.13552153E+03</pdfrwt>
<totfact> 0.99525339E+02</totfact>
</mgrwt>
</event>
<event>
 8    1  0.8504141E-006  0.1255330E+03  0.7546771E-02  0.1252009E+00
          2   -1    0    0  501    0  0.00000000000E+00  0.00000000000E+00  0.24542956129E+03  0.24542956129E+03  0.00000000000E+00 0. -1.
         -2   -1    0    0    0  501 -0.00000000000E+00 -0.00000000000E+00 -0.62535992468E+02  0.62535992468E+02  0.00000000000E+00 0.  1.
         23    2    1    2    0    0  0.11353788117E+02 -0.23678563692E+01  0.25932815819E+02  0.12818363395E+03  0.12499607125E+03 0.  0.
         23    2    1    2    0    0 -0.11353788117E+02  0.23678563692E+01  0.15696075300E+03  0.17978191981E+03  0.86892723856E+02 0.  0.
          5    1    3    3  502    0  0.27024920229E+02  0.36646104037E+02 -0.32431189273E+02  0.56099512405E+02  0.47000000000E+01 0.  1.
         -5    1    3    3    0  502 -0.15671132112E+02 -0.39013960406E+02  0.58364005092E+02  0.72084121543E+02  0.47000000000E+01 0.  1.
        -11    1    4    4    0    0 -0.46910528629E+02 -0.13368726216E+02  0.87881361435E+02  0.10051096569E+03  0.00000000000E+00 0.  1.
         11    1    4    4    0    0  0.35556740512E+02  0.15736582585E+02  0.69079391566E+02  0.79270954116E+02  0.00000000000E+00 0. -1.
<mgrwt>
<rscale>  0 0.11475534E+03</rscale>
<asrwt>0</asrwt>
<pdfrwt beam="1">  1        2 0.37758394E-01 0.12553300E+03</pdfrwt>
<pdfrwt beam="2">  1       -2 0.96209220E-02 0.12553300E+03</pdfrwt>
<totfact> 0.90369825E+03</totfact>
</mgrwt>
</event>
<event>
 8    1  0.8504141E-006  0.3012585E+03  0.7546771E-02  0.1086356E+00
          2   -1    0    0  501    0  0.00000000000E+00  0.00000000000E+00  0.17269401001E+04  0.17269401001E+04  0.00000000000E+00 0. -1.
         -2   -1    0    0    0  501 -0.00000000000E+00 -0.00000000000E+00 -0.59603507708E+02  0.59603507708E+02  0.00000000000E+00 0.  1.
         23    2    1    2    0    0  0.21673388275E+03  0.16781361462E+03  0.49515332826E+03  0.57959770447E+03  0.12498678072E+03 0.  0.
         23    2    1    2    0    0 -0.21673388275E+03 -0.16781361462E+03  0.11721832642E+04  0.12069459034E+04  0.87004733722E+02 0.  0.
          5    1    3    3  502    0  0.16223710057E+03  0.17896895417E+03  0.36205563220E+03  0.43526673910E+03  0.47000000000E+01 0.  1.
         -5    1    3    3    0  502  0.54496782177E+02 -0.11155339550E+02  0.13309769605E+03  0.14433096536E+03  0.47000000000E+01 0.  1.
        -11    1    4    4    0    0 -0.73269019265E+02 -0.11085221173E+03  0.51280321915E+03  0.52973927889E+03  0.00000000000E+00 0.  1.
         11    1    4    4    0    0 -0.14346486349E+03 -0.56961402887E+02  0.65938004500E+03  0.67720662446E+03  0.00000000000E+00 0. -1.
<mgrwt>
<rscale>  0 0.29778020E+03</rscale>
<asrwt>0</asrwt>
<pdfrwt beam="1">  1        2 0.26568305E+00 0.30125849E+03</pdfrwt>
<pdfrwt beam="2">  1       -2 0.91697717E-02 0.30125849E+03</pdfrwt>
<totfact> 0.78641520E+02</totfact>
</mgrwt>
</event>
<event>
 8    1  0.8504141E-006  0.1298407E+03  0.7546771E-02  0.1240228E+00
          1   -1    0    0  501    0  0.00000000000E+00  0.00000000000E+00  0.59843817785E+03  0.59843817785E+03  0.00000000000E+00 0. -1.
         -1   -1    0    0    0  501 -0.00000000000E+00 -0.00000000000E+00 -0.22277418223E+02  0.22277418223E+02  0.00000000000E+00 0.  1.
         23    2    1    2    0    0 -0.30945488634E+02  0.16606269419E+02  0.30097804560E+03  0.32779018153E+03  0.12500091090E+03 0.  0.
         23    2    1    2    0    0  0.30945488634E+02 -0.16606269419E+02  0.27518271402E+03  0.29292541454E+03  0.94055201515E+02 0.  0.
          5    1    3    3  502    0  0.32905196840E+02  0.23603516543E+02  0.33792403843E+02  0.52951813281E+02  0.47000000000E+01 0.  1.
         -5    1    3    3    0  502 -0.63850685474E+02 -0.69972471232E+01  0.26718564176E+03  0.27483836825E+03  0.47000000000E+01 0.  1.
        -11    1    4    4    0    0 -0.26292201238E+02 -0.15928519829E+02  0.37715451537E+02  0.48656478238E+02  0.00000000000E+00 0.  1.
         11    1    4    4    0    0  0.57237689873E+02 -0.67774959032E+00  0.23746726249E+03  0.24426893630E+03  0.00000000000E+00 0. -1.
<mgrwt>
<rscale>  0 0.12175578E+03</rscale>
<asrwt>0</asrwt>
<pdfrwt beam="1">  1        1 0.92067400E-01 0.12984075E+03</pdfrwt>
<pdfrwt beam="2">  1       -1 0.34272956E-02 0.12984075E+03</pdfrwt>
<totfact> 0.10399988E+04</totfact>
</mgrwt>
</event>
<event>
 8    1  0.8504141E-006  0.1494463E+03  0.7546771E-02  0.1210340E+00
          1   -1    0    0  501    0  0.00000000000E+00  0.00000000000E+00  0.59590686630E+03  0.59590686630E+03  0.00000000000E+00 0. -1.
         -1   -1    0    0    0  501 -0.00000000000E+00 -0.00000000000E+00 -0.32182461118E+02  0.32182461118E+02  0.00000000000E+00 0.  1.
         23    2    1    2    0    0  0.21603768965E+02 -0.79010687314E+02  0.36697821234E+03  0.39624134730E+03  0.12499914172E+03 0.  0.
         23    2    1    2    0    0 -0.21603768965E+02  0.79010687314E+02  0.19674619284E+03  0.23184798012E+03  0.91296275634E+02 0.  0.
          5    1    3    3  502    0  0.37510476007E+02 -0.20221269706E+02  0.30920716296E+03  0.31216517292E+03  0.47000000000E+01 0. -1.
         -5    1    3    3    0  502 -0.15906707042E+02 -0.58789417608E+02  0.57771049388E+02  0.84076174384E+02  0.47000000000E+01 0. -1.
        -11    1    4    4    0    0 -0.44420936349E+02  0.55970564211E+02  0.18331617791E+03  0.19675046310E+03  0.00000000000E+00 0.  1.
         11    1    4    4    0    0  0.22817167384E+02  0.23040123103E+02  0.13430014925E+02  0.35097517019E+02  0.00000000000E+00 0. -1.
<mgrwt>
<rscale>  0 0.14224461E+03</rscale>
<asrwt>0</asrwt>
<pdfrwt beam="1">  1        1 0.91677971E-01 0.14944630E+03</pdfrwt>
<pdfrwt beam="2">  1       -1 0.49511483E-02 0.14944630E+03</pdfrwt>
<totfact> 0.61417376E+03</totfact>
</mgrwt>
</event>
<event>
 8    1  0.2452468E-005  0.2291990E+03  0.7546771E-02  0.1130143E+00
          3   -1    0    0  501    0  0.00000000000E+00  0.00000000000E+00  0.50613779874E+03  0.50613779874E+03  0.00000000000E+00 0. -1.
         -3   -1    0    0    0  501 -0.00000000000E+00 -0.00000000000E+00 -0.10488436602E+03  0.10488436602E+03  0.00000000000E+00 0.  1.
         23    2    1    2    0    0 -0.14526491735E+03 -0.12571815929E+03  0.12189029098E+03  0.25959476217E+03  0.12500098289E+03 0.  0.
         23    2    1    2    0    0  0.14526491735E+03  0.12571815929E+03  0.27936314174E+03  0.35142740259E+03  0.92468927447E+02 0.  0.
          5    1    3    3  502    0 -0.18043634540E+02  0.25384589849E+02  0.13928710904E+02  0.34439064109E+02  0.47000000000E+01 0.  1.
         -5    1    3    3    0  502 -0.12722128281E+03 -0.15110274913E+03  0.10796158007E+03  0.22515569806E+03  0.47000000000E+01 0.  1.
        -11    1    4    4    0    0  0.49791450910E+02  0.28443036137E+02  0.24398907818E+02  0.62317746999E+02  0.00000000000E+00 0.  1.
         11    1    4    4    0    0  0.95473466442E+02  0.97275123148E+02  0.25496423392E+03  0.28910965559E+03  0.00000000000E+00 0. -1.
<mgrwt>
<rscale>  0 0.22509209E+03</rscale>
<asrwt>0</asrwt>
<pdfrwt beam="1">  1        3 0.77867352E-01 0.22919903E+03</pdfrwt>
<pdfrwt beam="2">  1       -3 0.16136057E-01 0.22919903E+03</pdfrwt>
<totfact> 0.12810088E+02</totfact>
</mgrwt>
</event>
<event>
 8    1  0.8504141E-006  0.1296823E+03  0.7546771E-02  0.1243275E+00
         -2   -1    0    0    0  501 -0.00000000000E+00  0.00000000000E+00  0.15517689346E+03  0.15517689346E+03  0.00000000000E+00 0.  1.
          2   -1    0    0  501    0  0.00000000000E+00 -0.00000000000E+00 -0.88548029138E+02  0.88548029138E+02  0.00000000000E+00 0. -1.
         23    2    1    2    0    0 -0.26307248843E+02 -0.22361307402E+02  0.72921490416E+02  0.14877853862E+03  0.12500164150E+03 0.  0.
         23    2    1    2    0    0  0.26307248843E+02  0.22361307402E+02 -0.62926260972E+01  0.94946383976E+02  0.88221988622E+02 0.  0.
          5    1    3    3  502    0 -0.76496935131E+02 -0.80400199470E+01  0.47599608936E+02  0.90577236523E+02  0.47000000000E+01 0. -1.
         -5    1    3    3    0  502  0.50189686288E+02 -0.14321287455E+02  0.25321881480E+02  0.58201302096E+02  0.47000000000E+01 0. -1.
        -11    1    4    4    0    0 -0.82053747394E+01 -0.11300688762E+02  0.30996823716E+02  0.33997600233E+02  0.00000000000E+00 0.  1.
         11    1    4    4    0    0  0.34512623583E+02  0.33661996164E+02 -0.37289449813E+02  0.60948783743E+02  0.00000000000E+00 0. -1.
<mgrwt>
<rscale>  0 0.11989229E+03</rscale>
<asrwt>0</asrwt>
<pdfrwt beam="2">  1        2 0.13622774E-01 0.12968234E+03</pdfrwt>
<pdfrwt beam="1">  1       -2 0.23873368E-01 0.12968234E+03</pdfrwt>
<totfact> 0.63769753E+03</totfact>
</mgrwt>
</event>
<event>
 8    1  0.8504141E-006  0.1552955E+03  0.7546771E-02  0.1202310E+00
          4   -1    0    0  501    0  0.00000000000E+00  0.00000000000E+00  0.61164414141E+02  0.61164414141E+02  0.00000000000E+00 0. -1.
         -4   -1    0    0    0  501 -0.00000000000E+00 -0.00000000000E+00 -0.33545003083E+03  0.33545003083E+03  0.00000000000E+00 0.  1.
         23    2    1    2    0    0 -0.91640433523E+02  0.96640831148E+01 -0.16793202674E+03  0.22873094604E+03  0.12500126604E+03 0.  0.
         23    2    1    2    0    0  0.91640433523E+02 -0.96640831148E+01 -0.10635358995E+03  0.16788349894E+03  0.91555554504E+02 0.  0.
          5    1    3    3  502    0 -0.10687819718E+03 -0.10744782748E+02 -0.72088865191E+02  0.12944996668E+03  0.47000000000E+01 0. -1.
         -5    1    3    3    0  502  0.15237763654E+02  0.20408865863E+02 -0.95843161551E+02  0.99280979362E+02  0.47000000000E+01 0. -1.
        -11    1    4    4    0    0  0.54821644981E+02  0.64926065033E+01 -0.11426779646E+03  0.12690427891E+03  0.00000000000E+00 0. -1.
         11    1    4    4    0    0  0.36818788542E+02 -0.16156689618E+02  0.79142065113E+01  0.40979220025E+02  0.00000000000E+00 0.  1.
<mgrwt>
<rscale>  0 0.14851511E+03</rscale>
<asrwt>0</asrwt>
<pdfrwt beam="1">  1        4 0.94099098E-02 0.15529546E+03</pdfrwt>
<pdfrwt beam="2">  1       -4 0.51607697E-01 0.15529546E+03</pdfrwt>
<totfact> 0.52036704E+02</totfact>
</mgrwt>
</event>
<event>
 8    1  0.8504141E-006  0.1254681E+03  0.7546771E-02  0.1248614E+00
          2   -1    0    0  501    0  0.00000000000E+00  0.00000000000E+00  0.18482548770E+03  0.18482548770E+03  0.00000000000E+00 0. -1.
         -2   -1    0    0    0  501 -0.00000000000E+00 -0.00000000000E+00 -0.68893250872E+02  0.68893250872E+02  0.00000000000E+00 0.  1.
         23    2    1    2    0    0  0.94294652559E+01 -0.53749334225E+01  0.36457741341E+02  0.13065759880E+03  0.12499774597E+03 0.  0.
         23    2    1    2    0    0 -0.94294652559E+01  0.53749334225E+01  0.79474495490E+02  0.12306113977E+03  0.93327616297E+02 0.  0.
          5    1    3    3  502    0 -0.99403669491E+01  0.42684562636E+02  0.59256716916E+02  0.73852767599E+02  0.47000000000E+01 0.  1.
         -5    1    3    3    0  502  0.19369832205E+02 -0.48059496058E+02 -0.22798975575E+02  0.56804831205E+02  0.47000000000E+01 0.  1.
        -11    1    4    4    0    0  0.20363445146E+02  0.78967159142E+01  0.89031572494E+02  0.91671418235E+02  0.00000000000E+00 0. -1.
         11    1    4    4    0    0 -0.29792910402E+02 -0.25217824917E+01 -0.95570770045E+01  0.31389721534E+02  0.00000000000E+00 0.  1.
<mgrwt>
<rscale>  0 0.11671638E+03</rscale>
<asrwt>0</asrwt>
<pdfrwt beam="1">  1        2 0.28434690E-01 0.12546809E+03</pdfrwt>
<pdfrwt beam="2">  1       -2 0.10598962E-01 0.12546809E+03</pdfrwt>
<totfact> 0.10525633E+04</totfact>
</mgrwt>
</event>
<event>
 8    1  0.8504141E-006  0.2016854E+03  0.7546771E-02  0.1152486E+00
          1   -1    0    0  501    0  0.00000000000E+00  0.00000000000E+00  0.70130000418E+03  0.70130000418E+03  0.00000000000E+00 0. -1.
         -1   -1    0    0    0  501 -0.00000000000E+00 -0.00000000000E+00 -0.53376152487E+02  0.53376152487E+02  0.00000000000E+00 0.  1.
         23    2    1    2    0    0 -0.10942090985E+03  0.11436614379E+03  0.29689998611E+03  0.35892424663E+03  0.12499785080E+03 0.  0.
         23    2    1    2    0    0  0.10942090985E+03 -0.11436614379E+03  0.35102386558E+03  0.39575191004E+03  0.91374338489E+02 0.  0.
          5    1    3    3  502    0 -0.95238432361E+02  0.10257161816E+03  0.30695671604E+03  0.33739563034E+03  0.47000000000E+01 0.  1.
         -5    1    3    3    0  502 -0.14182477492E+02  0.11794525630E+02 -0.10056729924E+02  0.21528616291E+02  0.47000000000E+01 0.  1.
        -11    1    4    4    0    0  0.10030763600E+03 -0.83053831309E+02  0.18309012156E+03  0.22468100353E+03  0.00000000000E+00 0.  1.
         11    1    4    4    0    0  0.91132738548E+01 -0.31312312482E+02  0.16793374402E+03  0.17107090651E+03  0.00000000000E+00 0. -1.
<mgrwt>
<rscale>  0 0.19677828E+03</rscale>
<asrwt>0</asrwt>
<pdfrwt beam="1">  1        1 0.10789230E+00 0.20168543E+03</pdfrwt>
<pdfrwt beam="2">  1       -1 0.82117163E-02 0.20168543E+03</pdfrwt>
<totfact> 0.23087258E+03</totfact>
</mgrwt>
</event>
<event>
 8    1  0.8504141E-006  0.1565010E+03  0.7546771E-02  0.1201705E+00
         -1   -1    0    0    0  501 -0.00000000000E+00  0.00000000000E+00  0.97185350777E+03  0.97185350777E+03  0.00000000000E+00 0.  1.
          1   -1    0    0  501    0  0.00000000000E+00 -0.00000000000E+00 -0.24401956377E+02  0.24401956377E+02  0.00000000000E+00 0. -1.
         23    2    1    2    0    0  0.21751812964E+02  0.91616393755E+02  0.70117587875E+03  0.71842895664E+03  0.12500339122E+03 0.  0.
         23    2    1    2    0    0 -0.21751812964E+02 -0.91616393755E+02  0.24627567264E+03  0.27782650751E+03  0.87573719625E+02 0.  0.
          5    1    3    3  502    0  0.37404147009E+02  0.85996105540E+02  0.25206368401E+03  0.26898436977E+03  0.47000000000E+01 0. -1.
         -5    1    3    3    0  502 -0.15652334045E+02  0.56202882148E+01  0.44911219474E+03  0.44944458687E+03  0.47000000000E+01 0. -1.
        -11    1    4    4    0    0 -0.21735229368E+02  0.12094421933E+02  0.46468369042E+02  0.52706779062E+02  0.00000000000E+00 0.  1.
         11    1    4    4    0    0 -0.16583595539E-01 -0.10371081569E+03  0.19980730359E+03  0.22511972844E+03  0.00000000000E+00 0. -1.
<mgrwt>
<rscale>  0 0.14900167E+03</rscale>
<asrwt>0</asrwt>
<pdfrwt beam="2">  1        1 0.37541479E-02 0.15650097E+03</pdfrwt>
<pdfrwt beam="1">  1       -1 0.14951589E+00 0.15650097E+03</pdfrwt>
<totfact> 0.93568681E+02</totfact>
</mgrwt>
</event>
<event>
 8    1  0.8504141E-006  0.2309203E+03  0.7546771E-02  0.1128846E+00
          2   -1    0    0  501    0  0.00000000000E+00  0.00000000000E+00  0.31899187359E+03  0.31899187359E+03  0.00000000000E+00 0.  1.
         -2   -1    0    0    0  501 -0.00000000000E+00 -0.00000000000E+00 -0.16650483809E+03  0.16650483809E+03  0.00000000000E+00 0. -1.
         23    2    1    2    0    0  0.18542603768E+03  0.57593327472E+02  0.17812234968E+02  0.23160630831E+03  0.12499759804E+03 0.  0.
         23    2    1    2    0    0 -0.18542603768E+03 -0.57593327472E+02  0.13467480053E+03  0.25389040338E+03  0.92861338635E+02 0.  0.
          5    1    3    3  502    0 -0.51174348362E+01 -0.15867518833E+02  0.21115614191E+02  0.27311635906E+02  0.47000000000E+01 0.  1.
         -5    1    3    3    0  502  0.19054347251E+03  0.73460846305E+02 -0.33033792227E+01  0.20429467240E+03  0.47000000000E+01 0.  1.
        -11    1    4    4    0    0 -0.56731312758E+02  0.20308165035E+02  0.16180211581E+02  0.62391206601E+02  0.00000000000E+00 0.  1.
         11    1    4    4    0    0 -0.12869472492E+03 -0.77901492508E+02  0.11849458895E+03  0.19149919678E+03  0.00000000000E+00 0. -1.
<mgrwt>
<rscale>  0 0.22689309E+03</rscale>
<asrwt>0</asrwt>
<pdfrwt beam="1">  1        2 0.49075673E-01 0.23092035E+03</pdfrwt>
<pdfrwt beam="2">  1       -2 0.25616129E-01 0.23092035E+03</pdfrwt>
<totfact> 0.13872878E+03</totfact>
</mgrwt>
</event>
<event>
 8    1  0.8504141E-006  0.1570463E+03  0.7546771E-02  0.1199891E+00
          1   -1    0    0  501    0  0.00000000000E+00  0.00000000000E+00  0.30481947839E+03  0.30481947839E+03  0.00000000000E+00 0. -1.
         -1   -1    0    0    0  501 -0.00000000000E+00 -0.00000000000E+00 -0.68706160002E+02  0.68706160002E+02  0.00000000000E+00 0.  1.
         23    2    1    2    0    0  0.52880596490E+02 -0.79025964698E+02  0.13055307525E+03  0.20422453619E+03  0.12498838002E+03 0.  0.
         23    2    1    2    0    0 -0.52880596490E+02  0.79025964698E+02  0.10556024313E+03  0.16930110220E+03  0.92078432300E+02 0.  0.
          5    1    3    3  502    0 -0.36970901271E+02 -0.10378034578E+02  0.58254175445E+02  0.69929894175E+02  0.47000000000E+01 0. -1.
         -5    1    3    3    0  502  0.89851497761E+02 -0.68647930120E+02  0.72298899808E+02  0.13429464201E+03  0.47000000000E+01 0. -1.
        -11    1    4    4    0    0 -0.79012015165E+02  0.55883821937E+02  0.84897697995E+02  0.12873818089E+03  0.00000000000E+00 0.  1.
         11    1    4    4    0    0  0.26131418675E+02  0.23142142761E+02  0.20662545137E+02  0.40562921309E+02  0.00000000000E+00 0. -1.
<mgrwt>
<rscale>  0 0.15047430E+03</rscale>
<asrwt>0</asrwt>
<pdfrwt beam="1">  1        1 0.46895304E-01 0.15704635E+03</pdfrwt>
<pdfrwt beam="2">  1       -1 0.10570179E-01 0.15704635E+03</pdfrwt>
<totfact> 0.46473217E+03</totfact>
</mgrwt>
</event>
<event>
 8    1  0.8504141E-006  0.1630179E+03  0.7546771E-02  0.1193343E+00
         -3   -1    0    0    0  501 -0.00000000000E+00  0.00000000000E+00  0.28548873005E+03  0.28548873005E+03  0.00000000000E+00 0.  1.
          3   -1    0    0  501    0  0.00000000000E+00 -0.00000000000E+00 -0.80015904102E+02  0.80015904102E+02  0.00000000000E+00 0. -1.
         23    2    1    2    0    0 -0.75500406670E+02  0.72459044240E+02  0.13602824846E+03  0.21231703555E+03  0.12499685879E+03 0.  0.
         23    2    1    2    0    0  0.75500406670E+02 -0.72459044240E+02  0.69444577494E+02  0.15318759860E+03  0.87711267938E+02 0.  0.
          5    1    3    3  502    0 -0.81648362941E+02  0.15941611376E+02  0.24177714004E+02  0.86759679568E+02  0.47000000000E+01 0. -1.
         -5    1    3    3    0  502  0.61479562714E+01  0.56517432865E+02  0.11185053445E+03  0.12555735598E+03  0.47000000000E+01 0. -1.
        -11    1    4    4    0    0  0.70208950313E+02 -0.23334831943E+02  0.72629485823E+02  0.10367667673E+03  0.00000000000E+00 0.  1.
         11    1    4    4    0    0  0.52914563568E+01 -0.49124212298E+02 -0.31849083293E+01  0.49510921879E+02  0.00000000000E+00 0. -1.
<mgrwt>
<rscale>  0 0.15595294E+03</rscale>
<asrwt>0</asrwt>
<pdfrwt beam="2">  1        3 0.12310139E-01 0.16301791E+03</pdfrwt>
<pdfrwt beam="1">  1       -3 0.43921342E-01 0.16301791E+03</pdfrwt>
<totfact> 0.63956052E+02</totfact>
</mgrwt>
</event>
<event>
 8    1  0.8504141E-006  0.1272694E+03  0.7546771E-02  0.1232660E+00
         -1   -1    0    0    0  501 -0.00000000000E+00  0.00000000000E+00  0.66213474457E+02  0.66213474457E+02  0.00000000000E+00 0.  1.
          1   -1    0    0  501    0  0.00000000000E+00 -0.00000000000E+00 -0.30516811173E+03  0.30516811173E+03  0.00000000000E+00 0. -1.
         23    2    1    2    0    0  0.34200019478E+02  0.14975881325E+02 -0.32094691425E+02  0.12850604546E+03  0.11870053137E+03 0.  0.
         23    2    1    2    0    0 -0.34200019478E+02 -0.14975881325E+02 -0.20685994585E+03  0.24287554073E+03  0.12166993357E+03 0.  0.
          5    1    3    3  502    0  0.39823497934E+02  0.34677537461E+01 -0.74108040709E+02  0.84332840587E+02  0.47000000000E+01 0. -1.
         -5    1    3    3    0  502 -0.56234784562E+01  0.11508127579E+02  0.42013349284E+02  0.44173204869E+02  0.47000000000E+01 0.  1.
        -11    1    4    4    0    0  0.40117508615E+02 -0.27552159742E+02 -0.10884688711E+03  0.11923162683E+03  0.00000000000E+00 0.  1.
         11    1    4    4    0    0 -0.74317528093E+02  0.12576278416E+02 -0.98013058741E+02  0.12364391390E+03  0.00000000000E+00 0. -1.
<mgrwt>
<rscale>  0 0.12655444E+03</rscale>
<asrwt>0</asrwt>
<pdfrwt beam="2">  1        1 0.46948940E-01 0.12726936E+03</pdfrwt>
<pdfrwt beam="1">  1       -1 0.10186688E-01 0.12726936E+03</pdfrwt>
<totfact> 0.48542446E+03</totfact>
</mgrwt>
</event>
<event>
 8    1  0.8504141E-006  0.1312369E+03  0.7546771E-02  0.1239163E+00
          2   -1    0    0  501    0  0.00000000000E+00  0.00000000000E+00  0.42352911986E+03  0.42352911986E+03  0.00000000000E+00 0. -1.
         -2   -1    0    0    0  501 -0.00000000000E+00 -0.00000000000E+00 -0.33159625475E+02  0.33159625475E+02  0.00000000000E+00 0.  1.
         23    2    1    2    0    0  0.36542362853E+02 -0.16234099618E+02  0.16840656171E+03  0.21350386296E+03  0.12499695674E+03 0.  0.
         23    2    1    2    0    0 -0.36542362853E+02  0.16234099618E+02  0.22196293267E+03  0.24318488238E+03  0.90953027794E+02 0.  0.
          5    1    3    3  502    0  0.76679212997E+01  0.52511766674E+02  0.94080161170E+02  0.10811775702E+03  0.47000000000E+01 0.  1.
         -5    1    3    3    0  502  0.28874441553E+02 -0.68745866292E+02  0.74326400544E+02  0.10538610594E+03  0.47000000000E+01 0.  1.
        -11    1    4    4    0    0 -0.56373371907E+02  0.28303355257E+02  0.20485548166E+03  0.21434739407E+03  0.00000000000E+00 0.  1.
         11    1    4    4    0    0  0.19831009054E+02 -0.12069255639E+02  0.17107451007E+02  0.28837488305E+02  0.00000000000E+00 0. -1.
<mgrwt>
<rscale>  0 0.12241625E+03</rscale>
<asrwt>0</asrwt>
<pdfrwt beam="1">  1        2 0.65158322E-01 0.13123692E+03</pdfrwt>
<pdfrwt beam="2">  1       -2 0.51014811E-02 0.13123692E+03</pdfrwt>
<totfact> 0.13414706E+04</totfact>
</mgrwt>
</event>
<event>
 6    1  0.8504141E-006  0.1899389E+03  0.7546771E-02  0.1225483E+00
         -2   -1    0    0    0  501 -0.00000000000E+00  0.00000000000E+00  0.19018553240E+03  0.19018553240E+03  0.00000000000E+00 0.  1.
          2   -1    0    0  501    0  0.00000000000E+00 -0.00000000000E+00 -0.92274475318E+02  0.92274475318E+02  0.00000000000E+00 0. -1.
          5    1    1    2  502    0 -0.20156401066E+02 -0.72463885018E+02 -0.27765715392E+01  0.75412827061E+02  0.47000000000E+01 0. -1.
         -5    1    1    2    0  502  0.49382710427E+02  0.63185030537E+02  0.13129545449E+03  0.15392071512E+03  0.47000000000E+01 0.  1.
        -11    1    1    2    0    0 -0.25703162081E+01 -0.99230511560E+01 -0.10148853778E+02  0.14424725393E+02  0.00000000000E+00 0.  1.
         11    1    1    2    0    0 -0.26655993153E+02  0.19201905638E+02 -0.20458972093E+02  0.38701740144E+02  0.00000000000E+00 0. -1.
<mgrwt>
<rscale>  0 0.13133820E+03</rscale>
<asrwt>0</asrwt>
<pdfrwt beam="2">  1        2 0.14196073E-01 0.18993886E+03</pdfrwt>
<pdfrwt beam="1">  1       -2 0.29259313E-01 0.18993886E+03</pdfrwt>
<totfact> 0.43451882E+03</totfact>
</mgrwt>
</event>
<event>
 8    1  0.8504141E-006  0.2010381E+03  0.7546771E-02  0.1152598E+00
         -1   -1    0    0    0  501 -0.00000000000E+00  0.00000000000E+00  0.15896999385E+03  0.15896999385E+03  0.00000000000E+00 0.  1.
          1   -1    0    0  501    0  0.00000000000E+00 -0.00000000000E+00 -0.29808199867E+03  0.29808199867E+03  0.00000000000E+00 0. -1.
         23    2    1    2    0    0 -0.75623559093E+00 -0.15742418258E+03  0.34574535389E+02  0.20398951570E+03  0.12503351097E+03 0.  0.
         23    2    1    2    0    0  0.75623559093E+00  0.15742418258E+03 -0.17368654021E+03  0.25306247681E+03  0.95344940972E+02 0.  0.
          5    1    3    3  502    0 -0.58562001517E+02 -0.10640614575E+03  0.35889408218E+02  0.12673561259E+03  0.47000000000E+01 0.  1.
         -5    1    3    3    0  502  0.57805765926E+02 -0.51018036827E+02 -0.13148728291E+01  0.77253903116E+02  0.47000000000E+01 0.  1.
        -11    1    4    4    0    0  0.39260048709E+02  0.68235012686E+02 -0.41423688493E+02  0.88956676811E+02  0.00000000000E+00 0.  1.
         11    1    4    4    0    0 -0.38503813118E+02  0.89189169892E+02 -0.13226285172E+03  0.16410580000E+03  0.00000000000E+00 0. -1.
<mgrwt>
<rscale>  0 0.19664888E+03</rscale>
<asrwt>0</asrwt>
<pdfrwt beam="2">  1        1 0.45858769E-01 0.20103812E+03</pdfrwt>
<pdfrwt beam="1">  1       -1 0.24456922E-01 0.20103812E+03</pdfrwt>
<totfact> 0.12705745E+03</totfact>
</mgrwt>
</event>
<event>
 8    1  0.8504141E-006  0.1538336E+03  0.7546771E-02  0.1204761E+00
         -1   -1    0    0    0  501 -0.00000000000E+00  0.00000000000E+00  0.41031214247E+02  0.41031214247E+02  0.00000000000E+00 0.  1.
          1   -1    0    0  501    0  0.00000000000E+00 -0.00000000000E+00 -0.63906998340E+03  0.63906998340E+03  0.00000000000E+00 0. -1.
         23    2    1    2    0    0  0.22668180339E+02 -0.86764061912E+02 -0.15145307025E+03  0.21587680546E+03  0.12499165495E+03 0.  0.
         23    2    1    2    0    0 -0.22668180339E+02  0.86764061912E+02 -0.44658569890E+03  0.46422439219E+03  0.89574834641E+02 0.  0.
          5    1    3    3  502    0 -0.69264225153E+01 -0.10096372752E+02 -0.13020388744E+03  0.13086273104E+03  0.47000000000E+01 0. -1.
         -5    1    3    3    0  502  0.29594602854E+02 -0.76667689160E+02 -0.21249182818E+02  0.85014074421E+02  0.47000000000E+01 0. -1.
        -11    1    4    4    0    0 -0.56952801827E+02  0.63512880567E+02 -0.30406993857E+03  0.31581012520E+03  0.00000000000E+00 0.  1.
         11    1    4    4    0    0  0.34284621489E+02  0.23251181345E+02 -0.14251576033E+03  0.14841426699E+03  0.00000000000E+00 0. -1.
<mgrwt>
<rscale>  0 0.14656325E+03</rscale>
<asrwt>0</asrwt>
<pdfrwt beam="2">  1        1 0.98318454E-01 0.15383356E+03</pdfrwt>
<pdfrwt beam="1">  1       -1 0.63124948E-02 0.15383356E+03</pdfrwt>
<totfact> 0.38892895E+03</totfact>
</mgrwt>
</event>
<event>
 8    1  0.8504141E-006  0.1653754E+03  0.7546771E-02  0.1191821E+00
         -2   -1    0    0    0  501 -0.00000000000E+00  0.00000000000E+00  0.33740944732E+02  0.33740944732E+02  0.00000000000E+00 0.  1.
          2   -1    0    0  501    0  0.00000000000E+00 -0.00000000000E+00 -0.69250751572E+03  0.69250751572E+03  0.00000000000E+00 0. -1.
         23    2    1    2    0    0 -0.39833654101E+02  0.10068780418E+03 -0.29555944953E+03  0.33868037883E+03  0.12499702751E+03 0.  0.
         23    2    1    2    0    0  0.39833654101E+02 -0.10068780418E+03 -0.36320712146E+03  0.38756808163E+03  0.81023767543E+02 0.  0.
          5    1    3    3  502    0 -0.16118499801E+01  0.11224435955E+03 -0.26606771637E+03  0.28881744062E+03  0.47000000000E+01 0. -1.
         -5    1    3    3    0  502 -0.38221804121E+02 -0.11556555367E+02 -0.29491733158E+02  0.49862938209E+02  0.47000000000E+01 0. -1.
        -11    1    4    4    0    0  0.62540841442E+02 -0.63200897552E+02 -0.20608248534E+03  0.22444531865E+03  0.00000000000E+00 0.  1.
         11    1    4    4    0    0 -0.22707187341E+02 -0.37486906628E+02 -0.15712463612E+03  0.16312276298E+03  0.00000000000E+00 0. -1.
<mgrwt>
<rscale>  0 0.15726376E+03</rscale>
<asrwt>0</asrwt>
<pdfrwt beam="2">  1        2 0.10653961E+00 0.16537536E+03</pdfrwt>
<pdfrwt beam="1">  1       -2 0.51909148E-02 0.16537536E+03</pdfrwt>
<totfact> 0.76416046E+03</totfact>
</mgrwt>
</event>
<event>
 8    1  0.8504141E-006  0.1272684E+03  0.7546771E-02  0.1245193E+00
         -2   -1    0    0    0  501 -0.00000000000E+00  0.00000000000E+00  0.48717011224E+02  0.48717011224E+02  0.00000000000E+00 0.  1.
          2   -1    0    0  501    0  0.00000000000E+00 -0.00000000000E+00 -0.27060859141E+03  0.27060859141E+03  0.00000000000E+00 0. -1.
         23    2    1    2    0    0  0.16825455209E+02  0.17023965004E+02 -0.89708538839E+02  0.15570766390E+03  0.12499737329E+03 0.  0.
         23    2    1    2    0    0 -0.16825455209E+02 -0.17023965004E+02 -0.13218304134E+03  0.16361793873E+03  0.93410717420E+02 0.  0.
          5    1    3    3  502    0 -0.10540152478E+02  0.65844396946E+02 -0.68389173068E+02  0.95633406383E+02  0.47000000000E+01 0. -1.
         -5    1    3    3    0  502  0.27365607687E+02 -0.48820431942E+02 -0.21319365771E+02  0.60074257515E+02  0.47000000000E+01 0. -1.
        -11    1    4    4    0    0  0.26245908154E+02 -0.49646417643E+01 -0.29621403427E+01  0.26875074662E+02  0.00000000000E+00 0.  1.
         11    1    4    4    0    0 -0.43071363363E+02 -0.12059323240E+02 -0.12922090100E+03  0.13674286407E+03  0.00000000000E+00 0. -1.
<mgrwt>
<rscale>  0 0.11873862E+03</rscale>
<asrwt>0</asrwt>
<pdfrwt beam="2">  1        2 0.41632091E-01 0.12726844E+03</pdfrwt>
<pdfrwt beam="1">  1       -2 0.74949249E-02 0.12726844E+03</pdfrwt>
<totfact> 0.12006819E+04</totfact>
</mgrwt>
</event>
<event>
 8    1  0.8504141E-006  0.1922999E+03  0.7546771E-02  0.1159138E+00
         -1   -1    0    0    0  501 -0.00000000000E+00  0.00000000000E+00  0.55225468316E+02  0.55225468316E+02  0.00000000000E+00 0.  1.
          1   -1    0    0  501    0  0.00000000000E+00 -0.00000000000E+00 -0.65140020359E+03  0.65140020359E+03  0.00000000000E+00 0. -1.
         23    2    1    2    0    0 -0.84312950745E+02  0.11935559854E+03 -0.24149312114E+03  0.30870405734E+03  0.12499933956E+03 0.  0.
         23    2    1    2    0    0  0.84312950745E+02 -0.11935559854E+03 -0.35468161413E+03  0.39792161457E+03  0.10577396358E+03 0.  0.
          5    1    3    3  502    0 -0.62320947379E+02  0.11883504156E+03 -0.10521322124E+03  0.17058012636E+03  0.47000000000E+01 0. -1.
         -5    1    3    3    0  502 -0.21992003366E+02  0.52055697908E+00 -0.13627989990E+03  0.13812393097E+03  0.47000000000E+01 0. -1.
        -11    1    4    4    0    0  0.99481503601E+01 -0.61114190951E+02 -0.24718094710E+03  0.25481823059E+03  0.00000000000E+00 0. -1.
         11    1    4    4    0    0  0.74364800385E+02 -0.58241407591E+02 -0.10750066704E+03  0.14310338398E+03  0.00000000000E+00 0.  1.
<mgrwt>
<rscale>  0 0.18925216E+03</rscale>
<asrwt>0</asrwt>
<pdfrwt beam="2">  1        1 0.10021542E+00 0.19229994E+03</pdfrwt>
<pdfrwt beam="1">  1       -1 0.84962253E-02 0.19229994E+03</pdfrwt>
<totfact> 0.24336834E+03</totfact>
</mgrwt>
</event>
<event>
 7    1  0.8504141E-006  0.4006850E+03  0.7546771E-02  0.1098340E+00
          1   -1    0    0  501    0  0.00000000000E+00  0.00000000000E+00  0.10316118217E+04  0.10316118217E+04  0.00000000000E+00 0. -1.
         -1   -1    0    0    0  501 -0.00000000000E+00 -0.00000000000E+00 -0.62379419128E+02  0.62379419128E+02  0.00000000000E+00 0.  1.
         23    2    1    2    0    0  0.78293873371E+00 -0.20335506761E+02  0.30974568370E+03  0.32232344663E+03  0.86809388030E+02 0.  0.
          5    1    1    2  502    0  0.14469472124E+03 -0.12203955327E+03  0.39360384905E+03  0.43677945797E+03  0.47000000000E+01 0. -1.
         -5    1    1    2    0  502 -0.14547765998E+03  0.14237506003E+03  0.26588286979E+03  0.33488833619E+03  0.47000000000E+01 0.  1.
        -11    1    3    3    0    0 -0.39225578255E+02 -0.17020023846E+02  0.21838151618E+03  0.22252823149E+03  0.00000000000E+00 0. -1.
         11    1    3    3    0    0  0.40008516989E+02 -0.33154829149E+01  0.91364167516E+02  0.99795215139E+02  0.00000000000E+00 0.  1.
<mgrwt>
<rscale>  0 0.27519991E+03</rscale>
<asrwt>0</asrwt>
<pdfrwt beam="1">  1        1 0.15870950E+00 0.40068498E+03</pdfrwt>
<pdfrwt beam="2">  1       -1 0.95968345E-02 0.40068498E+03</pdfrwt>
<totfact> 0.98094464E+02</totfact>
</mgrwt>
</event>
<event>
 8    1  0.8504141E-006  0.1318434E+03  0.7546771E-02  0.1238401E+00
         -2   -1    0    0    0  501 -0.00000000000E+00  0.00000000000E+00  0.55349346387E+02  0.55349346387E+02  0.00000000000E+00 0.  1.
          2   -1    0    0  501    0  0.00000000000E+00 -0.00000000000E+00 -0.24493426504E+03  0.24493426504E+03  0.00000000000E+00 0. -1.
         23    2    1    2    0    0 -0.41364739680E+02  0.67893118043E+01 -0.90998964243E+02  0.16019832554E+03  0.12500222225E+03 0.  0.
         23    2    1    2    0    0  0.41364739680E+02 -0.67893118043E+01 -0.98585954408E+02  0.14008528589E+03  0.90263838121E+02 0.  0.
          5    1    3    3  502    0 -0.27838071000E+02  0.65422235942E+02 -0.53999948550E+02  0.89404203458E+02  0.47000000000E+01 0.  1.
         -5    1    3    3    0  502 -0.13526668681E+02 -0.58632924138E+02 -0.36999015694E+02  0.70794122078E+02  0.47000000000E+01 0.  1.
        -11    1    4    4    0    0  0.64962226610E+01 -0.45532483511E+02 -0.58006978404E+02  0.74028491185E+02  0.00000000000E+00 0.  1.
         11    1    4    4    0    0  0.34868517019E+02  0.38743171707E+02 -0.40578976003E+02  0.66056794703E+02  0.00000000000E+00 0. -1.
<mgrwt>
<rscale>  0 0.12289212E+03</rscale>
<asrwt>0</asrwt>
<pdfrwt beam="2">  1        2 0.37682195E-01 0.13184344E+03</pdfrwt>
<pdfrwt beam="1">  1       -2 0.85152841E-02 0.13184344E+03</pdfrwt>
<totfact> 0.10994281E+04</totfact>
</mgrwt>
</event>
<event>
 8    1  0.8504141E-006  0.1429793E+03  0.7546771E-02  0.1219037E+00
         -1   -1    0    0    0  501 -0.00000000000E+00  0.00000000000E+00  0.44799188047E+02  0.44799188047E+02  0.00000000000E+00 0.  1.
          1   -1    0    0  501    0  0.00000000000E+00 -0.00000000000E+00 -0.39612180411E+03  0.39612180411E+03  0.00000000000E+00 0. -1.
         23    2    1    2    0    0  0.61334413021E+02 -0.32523220343E+02 -0.14287510316E+03  0.20212960950E+03  0.12499365524E+03 0.  0.
         23    2    1    2    0    0 -0.61334413021E+02  0.32523220343E+02 -0.20844751290E+03  0.23879138266E+03  0.93548322892E+02 0.  0.
          5    1    3    3  502    0 -0.20927487493E+02 -0.44203439586E+02 -0.92804697728E+02  0.10500812218E+03  0.47000000000E+01 0.  1.
         -5    1    3    3    0  502  0.82261900513E+02  0.11680219243E+02 -0.50070405435E+02  0.97121487314E+02  0.47000000000E+01 0.  1.
        -11    1    4    4    0    0  0.17357212412E+02 -0.11072184497E+02 -0.15074515366E+02  0.25516800461E+02  0.00000000000E+00 0.  1.
         11    1    4    4    0    0 -0.78691625432E+02  0.43595404840E+02 -0.19337299753E+03  0.21327458220E+03  0.00000000000E+00 0. -1.
<mgrwt>
<rscale>  0 0.13584111E+03</rscale>
<asrwt>0</asrwt>
<pdfrwt beam="2">  1        1 0.60941813E-01 0.14297931E+03</pdfrwt>
<pdfrwt beam="1">  1       -1 0.68921831E-02 0.14297931E+03</pdfrwt>
<totfact> 0.63733044E+03</totfact>
</mgrwt>
</event>
<event>
 8    1  0.8504141E-006  0.1461847E+03  0.7546771E-02  0.1215111E+00
          1   -1    0    0  501    0  0.00000000000E+00  0.00000000000E+00  0.38006459387E+02  0.38006459387E+02  0.00000000000E+00 0. -1.
         -1   -1    0    0    0  501 -0.00000000000E+00 -0.00000000000E+00 -0.46193962955E+03  0.46193962955E+03  0.00000000000E+00 0.  1.
         23    2    1    2    0    0  0.53588076375E+02 -0.53589063225E+02 -0.24790400212E+03  0.28779570241E+03  0.12500600957E+03 0.  0.
         23    2    1    2    0    0 -0.53588076375E+02  0.53589063225E+02 -0.17602916804E+03  0.21215038653E+03  0.90983783588E+02 0.  0.
          5    1    3    3  502    0  0.95424456701E+01 -0.87377762923E+02 -0.12530286802E+03  0.15313010957E+03  0.47000000000E+01 0.  1.
         -5    1    3    3    0  502  0.44045630705E+02  0.33788699698E+02 -0.12260113411E+03  0.13466559284E+03  0.47000000000E+01 0.  1.
        -11    1    4    4    0    0 -0.44235282065E+02  0.17223230088E+01 -0.22159923067E+02  0.49505441785E+02  0.00000000000E+00 0. -1.
         11    1    4    4    0    0 -0.93527943099E+01  0.51866740216E+02 -0.15386924497E+03  0.16264494474E+03  0.00000000000E+00 0.  1.
<mgrwt>
<rscale>  0 0.13868384E+03</rscale>
<asrwt>0</asrwt>
<pdfrwt beam="1">  1        1 0.58471476E-02 0.14618472E+03</pdfrwt>
<pdfrwt beam="2">  1       -1 0.71067635E-01 0.14618472E+03</pdfrwt>
<totfact> 0.27004226E+03</totfact>
</mgrwt>
</event>
<event>
 8    1  0.8504141E-006  0.1439904E+03  0.7546771E-02  0.1217359E+00
          2   -1    0    0  501    0  0.00000000000E+00  0.00000000000E+00  0.31665827175E+03  0.31665827175E+03  0.00000000000E+00 0. -1.
         -2   -1    0    0    0  501 -0.00000000000E+00 -0.00000000000E+00 -0.59782928672E+02  0.59782928672E+02  0.00000000000E+00 0.  1.
         23    2    1    2    0    0  0.19901023272E+02 -0.68642322526E+02  0.82950678530E+02  0.16617476100E+03  0.12500166782E+03 0.  0.
         23    2    1    2    0    0 -0.19901023272E+02  0.68642322526E+02  0.17392466455E+03  0.21026643942E+03  0.94097648425E+02 0.  0.
          5    1    3    3  502    0  0.72367380101E+02 -0.35703232977E+02  0.36983847618E+02  0.88891245532E+02  0.47000000000E+01 0.  1.
         -5    1    3    3    0  502 -0.52466356829E+02 -0.32939089549E+02  0.45966830913E+02  0.77283515470E+02  0.47000000000E+01 0.  1.
        -11    1    4    4    0    0  0.61546259207E+01  0.86264505916E+02  0.12167701086E+03  0.14928074013E+03  0.00000000000E+00 0. -1.
         11    1    4    4    0    0 -0.26055649193E+02 -0.17622183390E+02  0.52247653688E+02  0.60985699292E+02  0.00000000000E+00 0.  1.
<mgrwt>
<rscale>  0 0.13704694E+03</rscale>
<asrwt>0</asrwt>
<pdfrwt beam="1">  1        2 0.48716656E-01 0.14399040E+03</pdfrwt>
<pdfrwt beam="2">  1       -2 0.91973738E-02 0.14399040E+03</pdfrwt>
<totfact> 0.74711608E+03</totfact>
</mgrwt>
</event>
<event>
 8    1  0.8504141E-006  0.1304431E+03  0.7546771E-02  0.1242489E+00
          3   -1    0    0  501    0  0.00000000000E+00  0.00000000000E+00  0.97930125755E+02  0.97930125755E+02  0.00000000000E+00 0. -1.
         -3   -1    0    0    0  501 -0.00000000000E+00 -0.00000000000E+00 -0.21149973699E+03  0.21149973699E+03  0.00000000000E+00 0.  1.
         23    2    1    2    0    0  0.28233234673E+02 -0.24351976244E+02 -0.15803747441E+03  0.20491767821E+03  0.12500110895E+03 0.  0.
         23    2    1    2    0    0 -0.28233234673E+02  0.24351976244E+02  0.44467863181E+02  0.10451218453E+03  0.86921065180E+02 0.  0.
          5    1    3    3  502    0 -0.20822789531E+02  0.40298341414E+02 -0.80819762886E+02  0.92798000827E+02  0.47000000000E+01 0.  1.
         -5    1    3    3    0  502  0.49056024204E+02 -0.64650317657E+02 -0.77217711528E+02  0.11211967739E+03  0.47000000000E+01 0.  1.
        -11    1    4    4    0    0 -0.17522575857E+02  0.37688204800E+02 -0.13793711354E+02  0.43791642109E+02  0.00000000000E+00 0.  1.
         11    1    4    4    0    0 -0.10710658816E+02 -0.13336228557E+02  0.58261574535E+02  0.60720542419E+02  0.00000000000E+00 0. -1.
<mgrwt>
<rscale>  0 0.12036935E+03</rscale>
<asrwt>0</asrwt>
<pdfrwt beam="1">  1        3 0.15066173E-01 0.13044314E+03</pdfrwt>
<pdfrwt beam="2">  1       -3 0.32538420E-01 0.13044314E+03</pdfrwt>
<totfact> 0.77998998E+02</totfact>
</mgrwt>
</event>
<event>
 8    1  0.8504141E-006  0.1833035E+03  0.7546771E-02  0.1170632E+00
         -1   -1    0    0    0  501 -0.00000000000E+00  0.00000000000E+00  0.13581375783E+03  0.13581375783E+03  0.00000000000E+00 0.  1.
          1   -1    0    0  501    0  0.00000000000E+00 -0.00000000000E+00 -0.29771638728E+03  0.29771638728E+03  0.00000000000E+00 0. -1.
         23    2    1    2    0    0 -0.75936750022E+02 -0.11049423860E+03  0.27937429136E+02  0.18542027152E+03  0.12499924150E+03 0.  0.
         23    2    1    2    0    0  0.75936750022E+02  0.11049423860E+03 -0.18984005858E+03  0.24810987359E+03  0.86855597178E+02 0.  0.
          5    1    3    3  502    0 -0.32812971683E+02 -0.77126644699E+02 -0.44199130906E+02  0.94872881300E+02  0.47000000000E+01 0.  1.
         -5    1    3    3    0  502 -0.43123778338E+02 -0.33367593906E+02  0.72136560042E+02  0.90547390222E+02  0.47000000000E+01 0.  1.
        -11    1    4    4    0    0  0.57130812186E+02  0.10114286866E+03 -0.92395331176E+02  0.14842744627E+03  0.00000000000E+00 0.  1.
         11    1    4    4    0    0  0.18805937836E+02  0.93513699432E+01 -0.97444727404E+02  0.99682427321E+02  0.00000000000E+00 0. -1.
<mgrwt>
<rscale>  0 0.17710736E+03</rscale>
<asrwt>0</asrwt>
<pdfrwt beam="2">  1        1 0.45802521E-01 0.18330351E+03</pdfrwt>
<pdfrwt beam="1">  1       -1 0.20894425E-01 0.18330351E+03</pdfrwt>
<totfact> 0.16440707E+03</totfact>
</mgrwt>
</event>
<event>
 8    1  0.8504141E-006  0.1403162E+03  0.7546771E-02  0.1224079E+00
         -1   -1    0    0    0  501 -0.00000000000E+00  0.00000000000E+00  0.36054594049E+03  0.36054594049E+03  0.00000000000E+00 0.  1.
          1   -1    0    0  501    0  0.00000000000E+00 -0.00000000000E+00 -0.52991578309E+02  0.52991578309E+02  0.00000000000E+00 0. -1.
         23    2    1    2    0    0  0.62808706603E+02 -0.10891741416E+02  0.25445188914E+03  0.29057598025E+03  0.12500029102E+03 0.  0.
         23    2    1    2    0    0 -0.62808706603E+02  0.10891741416E+02  0.53102473042E+02  0.12296153855E+03  0.90752981567E+02 0.  0.
          5    1    3    3  502    0  0.62102616238E+02  0.49042894688E+02  0.16094296678E+03  0.17940643527E+03  0.47000000000E+01 0. -1.
         -5    1    3    3    0  502  0.70609036552E+00 -0.59934636104E+02  0.93508922366E+02  0.11116954498E+03  0.47000000000E+01 0. -1.
        -11    1    4    4    0    0 -0.50653658117E+02 -0.31111065712E+02  0.52379377668E+02  0.79229355010E+02  0.00000000000E+00 0.  1.
         11    1    4    4    0    0 -0.12155048486E+02  0.42002807128E+02  0.72309537363E+00  0.43732183541E+02  0.00000000000E+00 0. -1.
<mgrwt>
<rscale>  0 0.13230234E+03</rscale>
<asrwt>0</asrwt>
<pdfrwt beam="2">  1        1 0.81525507E-02 0.14031620E+03</pdfrwt>
<pdfrwt beam="1">  1       -1 0.55468605E-01 0.14031620E+03</pdfrwt>
<totfact> 0.27695159E+03</totfact>
</mgrwt>
</event>
<event>
 8    1  0.8504141E-006  0.1535522E+03  0.7546771E-02  0.1204079E+00
         -2   -1    0    0    0  501 -0.00000000000E+00  0.00000000000E+00  0.39433265012E+03  0.39433265012E+03  0.00000000000E+00 0.  1.
          2   -1    0    0  501    0  0.00000000000E+00 -0.00000000000E+00 -0.53282095831E+02  0.53282095831E+02  0.00000000000E+00 0. -1.
         23    2    1    2    0    0 -0.78538390543E+02  0.42252152914E+02  0.23319857303E+03  0.27921290918E+03  0.12499900389E+03 0.  0.
         23    2    1    2    0    0  0.78538390543E+02 -0.42252152914E+02  0.10785198126E+03  0.16840183678E+03  0.93667526669E+02 0.  0.
          5    1    3    3  502    0 -0.10695963852E+03  0.70053013731E+01  0.15075425654E+03  0.18503614345E+03  0.47000000000E+01 0.  1.
         -5    1    3    3    0  502  0.28421247980E+02  0.35246851541E+02  0.82444316494E+02  0.94176765726E+02  0.47000000000E+01 0.  1.
        -11    1    4    4    0    0 -0.68553359169E+01 -0.32448506728E+02  0.37133326313E+01  0.33371995126E+02  0.00000000000E+00 0. -1.
         11    1    4    4    0    0  0.85393726460E+02 -0.98036461857E+01  0.10413864863E+03  0.13502984165E+03  0.00000000000E+00 0.  1.
<mgrwt>
<rscale>  0 0.14710237E+03</rscale>
<asrwt>0</asrwt>
<pdfrwt beam="2">  1        2 0.81972458E-02 0.15355219E+03</pdfrwt>
<pdfrwt beam="1">  1       -2 0.60666560E-01 0.15355219E+03</pdfrwt>
<totfact> 0.20677212E+03</totfact>
</mgrwt>
</event>
<event>
 8    1  0.8504141E-006  0.1257689E+03  0.7546771E-02  0.1249486E+00
         -1   -1    0    0    0  501 -0.00000000000E+00  0.00000000000E+00  0.26454906283E+03  0.26454906283E+03  0.00000000000E+00 0.  1.
          1   -1    0    0  501    0  0.00000000000E+00 -0.00000000000E+00 -0.44716337736E+02  0.44716337736E+02  0.00000000000E+00 0. -1.
         23    2    1    2    0    0 -0.46665046546E+01 -0.13074666110E+02  0.12279533303E+03  0.17577406201E+03  0.12500041561E+03 0.  0.
         23    2    1    2    0    0  0.46665046546E+01  0.13074666110E+02  0.97037392072E+02  0.13349133856E+03  0.90614341307E+02 0.  0.
          5    1    3    3  502    0 -0.53995011221E+02  0.23997996681E+02  0.83740113441E+02  0.10259562213E+03  0.47000000000E+01 0. -1.
         -5    1    3    3    0  502  0.49328506567E+02 -0.37072662791E+02  0.39055219586E+02  0.73178439881E+02  0.47000000000E+01 0. -1.
        -11    1    4    4    0    0 -0.30488730505E+02 -0.19918889507E+02  0.17317822022E+02  0.40326564527E+02  0.00000000000E+00 0. -1.
         11    1    4    4    0    0  0.35155235160E+02  0.32993555617E+02  0.79719570050E+02  0.93164774031E+02  0.00000000000E+00 0.  1.
<mgrwt>
<rscale>  0 0.11620873E+03</rscale>
<asrwt>0</asrwt>
<pdfrwt beam="2">  1        1 0.68794367E-02 0.12576894E+03</pdfrwt>
<pdfrwt beam="1">  1       -1 0.40699855E-01 0.12576894E+03</pdfrwt>
<totfact> 0.60480939E+03</totfact>
</mgrwt>
</event>
<event>
 7    1  0.8504141E-006  0.3668695E+03  0.7546771E-02  0.1055896E+00
          3   -1    0    0  501    0  0.00000000000E+00  0.00000000000E+00  0.21275390623E+02  0.21275390623E+02  0.00000000000E+00 0. -1.
         -3   -1    0    0    0  501 -0.00000000000E+00 -0.00000000000E+00 -0.15815600261E+04  0.15815600261E+04  0.00000000000E+00 0.  1.
         23    2    1    2    0    0  0.33665282466E+02  0.71379664800E+02 -0.24714634318E+03  0.27511779998E+03  0.91542783046E+02 0.  0.
          5    1    1    2  502    0 -0.17716551682E+01 -0.25119574493E+02 -0.17896486645E+02  0.31249096290E+02  0.47000000000E+01 0. -1.
         -5    1    1    2    0  502 -0.31893627297E+02 -0.46260090308E+02 -0.12952418057E+04  0.12964685205E+04  0.47000000000E+01 0.  1.
        -11    1    3    3    0    0  0.49282774858E+02  0.81513715060E+02 -0.23305296423E+03  0.25176767421E+03  0.00000000000E+00 0. -1.
         11    1    3    3    0    0 -0.15617492392E+02 -0.10134050259E+02 -0.14093378951E+02  0.23350125771E+02  0.00000000000E+00 0.  1.
<mgrwt>
<rscale>  0 0.36686950E+03</rscale>
<asrwt>0</asrwt>
<pdfrwt beam="1">  1        3 0.32731370E-02 0.36686950E+03</pdfrwt>
<pdfrwt beam="2">  1       -3 0.24331693E+00 0.36686950E+03</pdfrwt>
<totfact> 0.10141810E+02</totfact>
</mgrwt>
</event>
<event>
 8    1  0.8504141E-006  0.1457861E+03  0.7546771E-02  0.1215522E+00
          2   -1    0    0  501    0  0.00000000000E+00  0.00000000000E+00  0.19947379558E+03  0.19947379558E+03  0.00000000000E+00 0.  1.
         -2   -1    0    0    0  501 -0.00000000000E+00 -0.00000000000E+00 -0.88442667281E+02  0.88442667281E+02  0.00000000000E+00 0. -1.
         23    2    1    2    0    0  0.71353429504E+02  0.23186460747E+02  0.45987783971E+02  0.15286742397E+03  0.12499859669E+03 0.  0.
         23    2    1    2    0    0 -0.71353429504E+02 -0.23186460747E+02  0.65043344329E+02  0.13504903889E+03  0.91535142974E+02 0.  0.
          5    1    3    3  502    0  0.14444910366E+02  0.26231043080E+02  0.80540376023E+02  0.86055593812E+02  0.47000000000E+01 0. -1.
         -5    1    3    3    0  502  0.56908519138E+02 -0.30445823333E+01 -0.34552592051E+02  0.66811830161E+02  0.47000000000E+01 0. -1.
        -11    1    4    4    0    0 -0.47262548076E+02 -0.58742556223E+00 -0.14070782781E+02  0.49316127661E+02  0.00000000000E+00 0. -1.
         11    1    4    4    0    0 -0.24090881429E+02 -0.22599035185E+02  0.79114127110E+02  0.85732911228E+02  0.00000000000E+00 0.  1.
<mgrwt>
<rscale>  0 0.13838291E+03</rscale>
<asrwt>0</asrwt>
<pdfrwt beam="1">  1        2 0.30688276E-01 0.14578605E+03</pdfrwt>
<pdfrwt beam="2">  1       -2 0.13606564E-01 0.14578605E+03</pdfrwt>
<totfact> 0.65745906E+03</totfact>
</mgrwt>
</event>
<event>
 8    1  0.8504141E-006  0.1317226E+03  0.7546771E-02  0.1238713E+00
         -1   -1    0    0    0  501 -0.00000000000E+00  0.00000000000E+00  0.41365672565E+02  0.41365672565E+02  0.00000000000E+00 0.  1.
          1   -1    0    0  501    0  0.00000000000E+00 -0.00000000000E+00 -0.32793036616E+03  0.32793036616E+03  0.00000000000E+00 0. -1.
         23    2    1    2    0    0 -0.29866019233E+02 -0.23167418995E+02 -0.13892159082E+03  0.19144201794E+03  0.12618292052E+03 0.  0.
         23    2    1    2    0    0  0.29866019233E+02  0.23167418995E+02 -0.14764310277E+03  0.17785402078E+03  0.91678015374E+02 0.  0.
          5    1    3    3  502    0  0.34439844408E+02  0.29192284009E+02 -0.70406858610E+02  0.83770568029E+02  0.47000000000E+01 0. -1.
         -5    1    3    3    0  502 -0.64305863640E+02 -0.52359703003E+02 -0.68514732210E+02  0.10767144992E+03  0.47000000000E+01 0. -1.
        -11    1    4    4    0    0  0.66835947578E+01 -0.16287467274E+02  0.51597242490E+01  0.18345974583E+02  0.00000000000E+00 0.  1.
         11    1    4    4    0    0  0.23182424475E+02  0.39454886268E+02 -0.15280282702E+03  0.15950804620E+03  0.00000000000E+00 0. -1.
<mgrwt>
<rscale>  0 0.12269703E+03</rscale>
<asrwt>0</asrwt>
<pdfrwt beam="2">  1        1 0.50450825E-01 0.13172258E+03</pdfrwt>
<pdfrwt beam="1">  1       -1 0.63639497E-02 0.13172258E+03</pdfrwt>
<totfact> 0.90458725E+03</totfact>
</mgrwt>
</event>
<event>
 7    1  0.8504141E-006  0.2141026E+03  0.7546771E-02  0.1173536E+00
          1   -1    0    0  501    0  0.00000000000E+00  0.00000000000E+00  0.90840241830E+03  0.90840241830E+03  0.00000000000E+00 0. -1.
         -1   -1    0    0    0  501 -0.00000000000E+00 -0.00000000000E+00 -0.26453277179E+02  0.26453277179E+02  0.00000000000E+00 0.  1.
         23    2    1    2    0    0 -0.19092306508E+02  0.22792536013E+01  0.32114637684E+03  0.33457270145E+03  0.91837824618E+02 0.  0.
          5    1    1    2  502    0 -0.44062634176E+02  0.47674473575E+02  0.47239356050E+02  0.80423988469E+02  0.47000000000E+01 0. -1.
         -5    1    1    2    0  502  0.63154940684E+02 -0.49953727176E+02  0.51356340823E+03  0.51985900556E+03  0.47000000000E+01 0.  1.
        -11    1    3    3    0    0 -0.18684842594E+02 -0.39926890494E+02  0.22920666185E+03  0.23340731301E+03  0.00000000000E+00 0. -1.
         11    1    3    3    0    0 -0.40746391398E+00  0.42206144095E+02  0.91939714991E+02  0.10116538844E+03  0.00000000000E+00 0.  1.
<mgrwt>
<rscale>  0 0.17420109E+03</rscale>
<asrwt>0</asrwt>
<pdfrwt beam="1">  1        1 0.13975419E+00 0.21410262E+03</pdfrwt>
<pdfrwt beam="2">  1       -1 0.40697356E-02 0.21410262E+03</pdfrwt>
<totfact> 0.44702323E+03</totfact>
</mgrwt>
</event>
<event>
 8    1  0.8504141E-006  0.1311878E+03  0.7546771E-02  0.1240760E+00
         -2   -1    0    0    0  501 -0.00000000000E+00  0.00000000000E+00  0.20188243990E+03  0.20188243990E+03  0.00000000000E+00 0.  1.
          2   -1    0    0  501    0  0.00000000000E+00 -0.00000000000E+00 -0.64340028385E+02  0.64340028385E+02  0.00000000000E+00 0. -1.
         23    2    1    2    0    0 -0.10964562935E+02  0.38275934237E+02  0.87632836260E+02  0.15776484015E+03  0.12499984805E+03 0.  0.
         23    2    1    2    0    0  0.10964562935E+02 -0.38275934237E+02  0.49909575254E+02  0.10845762814E+03  0.87674526613E+02 0.  0.
          5    1    3    3  502    0 -0.33453390282E+01  0.65903160306E+02  0.10487023896E+03  0.12399304356E+03  0.47000000000E+01 0.  1.
         -5    1    3    3    0  502 -0.76192239065E+01 -0.27627226069E+02 -0.17237402698E+02  0.33771796590E+02  0.47000000000E+01 0.  1.
        -11    1    4    4    0    0 -0.27080267368E+02 -0.47895038400E+02  0.39881771652E+02  0.67954626732E+02  0.00000000000E+00 0.  1.
         11    1    4    4    0    0  0.38044830303E+02  0.96191041633E+01  0.10027803602E+02  0.40503001405E+02  0.00000000000E+00 0. -1.
<mgrwt>
<rscale>  0 0.12142755E+03</rscale>
<asrwt>0</asrwt>
<pdfrwt beam="2">  1        2 0.98984660E-02 0.13118777E+03</pdfrwt>
<pdfrwt beam="1">  1       -2 0.31058837E-01 0.13118777E+03</pdfrwt>
<totfact> 0.58886204E+03</totfact>
</mgrwt>
</event>
<event>
 8    1  0.8504141E-006  0.1674742E+03  0.7546771E-02  0.1187996E+00
          1   -1    0    0  501    0  0.00000000000E+00  0.00000000000E+00  0.94480228578E+03  0.94480228578E+03  0.00000000000E+00 0. -1.
         -1   -1    0    0    0  501 -0.00000000000E+00 -0.00000000000E+00 -0.35904032440E+02  0.35904032440E+02  0.00000000000E+00 0.  1.
         23    2    1    2    0    0  0.65251785733E+02  0.90359352907E+02  0.21522566076E+03  0.27270804238E+03  0.12499993252E+03 0.  0.
         23    2    1    2    0    0 -0.65251785733E+02 -0.90359352907E+02  0.69367259258E+03  0.70799827584E+03  0.87505912355E+02 0.  0.
          5    1    3    3  502    0  0.12492301062E+02  0.86284375482E+02  0.53308069389E+02  0.10229805130E+03  0.47000000000E+01 0. -1.
         -5    1    3    3    0  502  0.52759484670E+02  0.40749774244E+01  0.16191759137E+03  0.17040999108E+03  0.47000000000E+01 0. -1.
        -11    1    4    4    0    0 -0.61545558187E+02 -0.10186626815E+03  0.67712696270E+03  0.68750673883E+03  0.00000000000E+00 0. -1.
         11    1    4    4    0    0 -0.37062275457E+01  0.11506915241E+02  0.16545629880E+02  0.20491537012E+02  0.00000000000E+00 0.  1.
<mgrwt>
<rscale>  0 0.16062236E+03</rscale>
<asrwt>0</asrwt>
<pdfrwt beam="1">  1        1 0.14535418E+00 0.16747415E+03</pdfrwt>
<pdfrwt beam="2">  1       -1 0.55236980E-02 0.16747415E+03</pdfrwt>
<totfact> 0.26431585E+03</totfact>
</mgrwt>
</event>
<event>
 8    1  0.8504141E-006  0.1288424E+03  0.7546771E-02  0.1242204E+00
         -2   -1    0    0    0  501 -0.00000000000E+00  0.00000000000E+00  0.49462656032E+02  0.49462656032E+02  0.00000000000E+00 0.  1.
          2   -1    0    0  501    0  0.00000000000E+00 -0.00000000000E+00 -0.33506089342E+03  0.33506089342E+03  0.00000000000E+00 0. -1.
         23    2    1    2    0    0  0.13666698695E+02  0.28120720092E+02 -0.68238577603E+02  0.14579736123E+03  0.12499125377E+03 0.  0.
         23    2    1    2    0    0 -0.13666698695E+02 -0.28120720092E+02 -0.21735965978E+03  0.23872618822E+03  0.93634489842E+02 0.  0.
          5    1    3    3  502    0  0.51154995272E+02  0.49428745463E+02 -0.82432412709E+01  0.71764026127E+02  0.47000000000E+01 0. -1.
         -5    1    3    3    0  502 -0.37488296577E+02 -0.21308025371E+02 -0.59995336332E+02  0.74033335107E+02  0.47000000000E+01 0. -1.
        -11    1    4    4    0    0 -0.15389845622E+02 -0.59525552594E+02 -0.10146294131E+03  0.11863754557E+03  0.00000000000E+00 0.  1.
         11    1    4    4    0    0  0.17231469266E+01  0.31404832502E+02 -0.11589671847E+03  0.12008864264E+03  0.00000000000E+00 0. -1.
<mgrwt>
<rscale>  0 0.12054292E+03</rscale>
<asrwt>0</asrwt>
<pdfrwt beam="2">  1        2 0.51547831E-01 0.12884241E+03</pdfrwt>
<pdfrwt beam="1">  1       -2 0.76096391E-02 0.12884241E+03</pdfrwt>
<totfact> 0.93664011E+03</totfact>
</mgrwt>
</event>
<event>
 8    1  0.8504141E-006  0.1291987E+03  0.7546771E-02  0.1242609E+00
          2   -1    0    0  501    0  0.00000000000E+00  0.00000000000E+00  0.34329957219E+03  0.34329957219E+03  0.00000000000E+00 0.  1.
         -2   -1    0    0    0  501 -0.00000000000E+00 -0.00000000000E+00 -0.37604363778E+02  0.37604363778E+02  0.00000000000E+00 0. -1.
         23    2    1    2    0    0 -0.32129534542E+02 -0.59440001400E+01  0.15723510730E+03  0.20350721734E+03  0.12499868165E+03 0.  0.
         23    2    1    2    0    0  0.32129534542E+02  0.59440001400E+01  0.14846010111E+03  0.17739671863E+03  0.91441544330E+02 0.  0.
          5    1    3    3  502    0 -0.99755755231E+01 -0.63618460624E+02  0.59594590618E+02  0.87865953987E+02  0.47000000000E+01 0. -1.
         -5    1    3    3    0  502 -0.22153959019E+02  0.57674460484E+02  0.97640516683E+02  0.11564126336E+03  0.47000000000E+01 0. -1.
        -11    1    4    4    0    0 -0.19909880972E+01  0.27784409110E+02  0.12986884383E+03  0.13282264122E+03  0.00000000000E+00 0.  1.
         11    1    4    4    0    0  0.34120522639E+02 -0.21840408970E+02  0.18591257281E+02  0.44574077404E+02  0.00000000000E+00 0. -1.
<mgrwt>
<rscale>  0 0.12029649E+03</rscale>
<asrwt>0</asrwt>
<pdfrwt beam="1">  1        2 0.52815317E-01 0.12919872E+03</pdfrwt>
<pdfrwt beam="2">  1       -2 0.57852870E-02 0.12919872E+03</pdfrwt>
<totfact> 0.13863273E+04</totfact>
</mgrwt>
</event>
<event>
 8    1  0.8504141E-006  0.1338080E+03  0.7546771E-02  0.1234698E+00
         -3   -1    0    0    0  501 -0.00000000000E+00  0.00000000000E+00  0.63199433393E+03  0.63199433393E+03  0.00000000000E+00 0.  1.
          3   -1    0    0  501    0  0.00000000000E+00 -0.00000000000E+00 -0.22123785840E+02  0.22123785840E+02  0.00000000000E+00 0. -1.
         23    2    1    2    0    0  0.27759346403E+02 -0.38823640297E+02  0.34589171409E+03  0.37087147071E+03  0.12500685401E+03 0.  0.
         23    2    1    2    0    0 -0.27759346403E+02  0.38823640297E+02  0.26397883400E+03  0.28324664906E+03  0.90917451822E+02 0.  0.
          5    1    3    3  502    0 -0.25023695006E+02  0.26089760111E+02  0.19402578264E+03  0.19742075682E+03  0.47000000000E+01 0.  1.
         -5    1    3    3    0  502  0.52783041409E+02 -0.64913400408E+02  0.15186593145E+03  0.17345071389E+03  0.47000000000E+01 0.  1.
        -11    1    4    4    0    0  0.18992385446E+02 -0.19974769783E+02  0.70379914235E+02  0.75584617884E+02  0.00000000000E+00 0. -1.
         11    1    4    4    0    0 -0.46751731850E+02  0.58798410080E+02  0.19359891976E+03  0.20766203118E+03  0.00000000000E+00 0.  1.
<mgrwt>
<rscale>  0 0.12523805E+03</rscale>
<asrwt>0</asrwt>
<pdfrwt beam="2">  1        3 0.34036598E-02 0.13380796E+03</pdfrwt>
<pdfrwt beam="1">  1       -3 0.97229884E-01 0.13380796E+03</pdfrwt>
<totfact> 0.93048717E+02</totfact>
</mgrwt>
</event>
<event>
 8    1  0.8504141E-006  0.1410205E+03  0.7546771E-02  0.1223022E+00
          3   -1    0    0  501    0  0.00000000000E+00  0.00000000000E+00  0.31057643282E+02  0.31057643282E+02  0.00000000000E+00 0. -1.
         -3   -1    0    0    0  501 -0.00000000000E+00 -0.00000000000E+00 -0.53182683524E+03  0.53182683524E+03  0.00000000000E+00 0.  1.
         23    2    1    2    0    0  0.60131978412E+02 -0.25430297250E+02 -0.32959417533E+03  0.35849561641E+03  0.12499692689E+03 0.  0.
         23    2    1    2    0    0 -0.60131978412E+02  0.25430297250E+02 -0.17117501664E+03  0.20438886211E+03  0.90616586725E+02 0.  0.
          5    1    3    3  502    0 -0.43087883622E+01 -0.48113895387E+02 -0.24449610893E+03  0.24926682464E+03  0.47000000000E+01 0. -1.
         -5    1    3    3    0  502  0.64440766775E+02  0.22683598137E+02 -0.85098066398E+02  0.10922879177E+03  0.47000000000E+01 0. -1.
        -11    1    4    4    0    0 -0.11035464456E+02  0.34377582226E+02 -0.14213567296E+03  0.14664974996E+03  0.00000000000E+00 0.  1.
         11    1    4    4    0    0 -0.49096513956E+02 -0.89472849766E+01 -0.29039343675E+02  0.57739112152E+02  0.00000000000E+00 0. -1.
<mgrwt>
<rscale>  0 0.13303383E+03</rscale>
<asrwt>0</asrwt>
<pdfrwt beam="1">  1        3 0.47780994E-02 0.14102052E+03</pdfrwt>
<pdfrwt beam="2">  1       -3 0.81819506E-01 0.14102052E+03</pdfrwt>
<totfact> 0.80845253E+02</totfact>
</mgrwt>
</event>
<event>
 8    1  0.8504141E-006  0.1319650E+03  0.7546771E-02  0.1236880E+00
         -2   -1    0    0    0  501 -0.00000000000E+00  0.00000000000E+00  0.50217372491E+02  0.50217372491E+02  0.00000000000E+00 0.  1.
          2   -1    0    0  501    0  0.00000000000E+00 -0.00000000000E+00 -0.44045941265E+03  0.44045941265E+03  0.00000000000E+00 0. -1.
         23    2    1    2    0    0 -0.17015306569E+02  0.38742371175E+02 -0.60062380509E+02  0.14499051958E+03  0.12499707690E+03 0.  0.
         23    2    1    2    0    0  0.17015306569E+02 -0.38742371175E+02 -0.33017965965E+03  0.34568626556E+03  0.93219603984E+02 0.  0.
          5    1    3    3  502    0 -0.42208727058E+02  0.71671691559E+02 -0.60997559898E+02  0.10325308869E+03  0.47000000000E+01 0.  1.
         -5    1    3    3    0  502  0.25193420489E+02 -0.32929320385E+02  0.93517938885E+00  0.41737430891E+02  0.47000000000E+01 0.  1.
        -11    1    4    4    0    0  0.39905188652E+02  0.69900137401E+01 -0.73160992028E+02  0.83629032805E+02  0.00000000000E+00 0.  1.
         11    1    4    4    0    0 -0.22889882083E+02 -0.45732384915E+02 -0.25701866763E+03  0.26205723276E+03  0.00000000000E+00 0. -1.
<mgrwt>
<rscale>  0 0.12384864E+03</rscale>
<asrwt>0</asrwt>
<pdfrwt beam="2">  1        2 0.67762987E-01 0.13196500E+03</pdfrwt>
<pdfrwt beam="1">  1       -2 0.77257496E-02 0.13196500E+03</pdfrwt>
<totfact> 0.68478520E+03</totfact>
</mgrwt>
</event>
<event>
 7    1  0.8504141E-006  0.2713661E+03  0.7546771E-02  0.1144070E+00
         -4   -1    0    0    0  501 -0.00000000000E+00  0.00000000000E+00  0.39782093083E+03  0.39782093083E+03  0.00000000000E+00 0.  1.
          4   -1    0    0  501    0  0.00000000000E+00 -0.00000000000E+00 -0.10292472763E+03  0.10292472763E+03  0.00000000000E+00 0. -1.
         23    2    1    2    0    0 -0.12582259434E+01  0.58431820702E+01 -0.10452146221E+02  0.92239663118E+02  0.91450435660E+02 0.  0.
          5    1    1    2  502    0  0.73609290887E+02  0.56172439840E+02  0.44236019409E+01  0.92818796354E+02  0.47000000000E+01 0. -1.
         -5    1    1    2    0  502 -0.72351064944E+02 -0.62015621910E+02  0.30092474748E+03  0.31568719899E+03  0.47000000000E+01 0.  1.
        -11    1    3    3    0    0 -0.14570755447E+02  0.25582287338E+02  0.32052221629E+02  0.43521319501E+02  0.00000000000E+00 0. -1.
         11    1    3    3    0    0  0.13312529503E+02 -0.19739105268E+02 -0.42504367849E+02  0.48718343618E+02  0.00000000000E+00 0.  1.
<mgrwt>
<rscale>  0 0.20686856E+03</rscale>
<asrwt>0</asrwt>
<pdfrwt beam="2">  1        4 0.15834574E-01 0.27136605E+03</pdfrwt>
<pdfrwt beam="1">  1       -4 0.61203219E-01 0.27136605E+03</pdfrwt>
<totfact> 0.16145015E+02</totfact>
</mgrwt>
</event>
<event>
 8    1  0.8504141E-006  0.1406070E+03  0.7546771E-02  0.1223499E+00
          1   -1    0    0  501    0  0.00000000000E+00  0.00000000000E+00  0.57462416868E+02  0.57462416868E+02  0.00000000000E+00 0. -1.
         -1   -1    0    0    0  501 -0.00000000000E+00 -0.00000000000E+00 -0.27678474025E+03  0.27678474025E+03  0.00000000000E+00 0.  1.
         23    2    1    2    0    0  0.63019121171E+02 -0.13177665762E+02 -0.12596165143E+03  0.18877675022E+03  0.12500105314E+03 0.  0.
         23    2    1    2    0    0 -0.63019121171E+02  0.13177665762E+02 -0.93360671958E+02  0.14547040690E+03  0.91106331870E+02 0.  0.
          5    1    3    3  502    0  0.12987283599E+01 -0.19953482164E+02 -0.12481858314E+03  0.12649741832E+03  0.47000000000E+01 0.  1.
         -5    1    3    3    0  502  0.61720392811E+02  0.67758164021E+01 -0.11430682891E+01  0.62279331899E+02  0.47000000000E+01 0.  1.
        -11    1    4    4    0    0 -0.60876249042E+02 -0.62428313363E+01 -0.10586054834E+03  0.12227569806E+03  0.00000000000E+00 0.  1.
         11    1    4    4    0    0 -0.21428721293E+01  0.19420497098E+02  0.12499876385E+02  0.23194708839E+02  0.00000000000E+00 0. -1.
<mgrwt>
<rscale>  0 0.13270320E+03</rscale>
<asrwt>0</asrwt>
<pdfrwt beam="1">  1        1 0.88403717E-02 0.14060698E+03</pdfrwt>
<pdfrwt beam="2">  1       -1 0.42582268E-01 0.14060698E+03</pdfrwt>
<totfact> 0.40187629E+03</totfact>
</mgrwt>
</event>
<event>
 7    1  0.8504141E-006  0.2095721E+03  0.7546771E-02  0.1174945E+00
         -2   -1    0    0    0  501 -0.00000000000E+00  0.00000000000E+00  0.16920596625E+02  0.16920596625E+02  0.00000000000E+00 0.  1.
          2   -1    0    0  501    0  0.00000000000E+00 -0.00000000000E+00 -0.13955869868E+04  0.13955869868E+04  0.00000000000E+00 0. -1.
         23    2    1    2    0    0 -0.28476298662E+01 -0.30949252265E+02 -0.48668720833E+03  0.49623942253E+03  0.91777777864E+02 0.  0.
          5    1    1    2  502    0 -0.10174330919E+03  0.76489891407E+01 -0.45385034214E+03  0.46520149512E+03  0.47000000000E+01 0. -1.
         -5    1    1    2    0  502  0.10459093905E+03  0.23300263125E+02 -0.43812883972E+03  0.45106666579E+03  0.47000000000E+01 0.  1.
        -11    1    3    3    0    0 -0.37495810164E+02 -0.45778033725E+02 -0.30382520372E+03  0.30953403459E+03  0.00000000000E+00 0.  1.
         11    1    3    3    0    0  0.34648180298E+02  0.14828781460E+02 -0.18286200460E+03  0.18670538794E+03  0.00000000000E+00 0. -1.
<mgrwt>
<rscale>  0 0.17281375E+03</rscale>
<asrwt>0</asrwt>
<pdfrwt beam="2">  1        2 0.21470567E+00 0.20957214E+03</pdfrwt>
<pdfrwt beam="1">  1       -2 0.26031690E-02 0.20957214E+03</pdfrwt>
<totfact> 0.80643061E+03</totfact>
</mgrwt>
</event>
<event>
 8    1  0.8504141E-006  0.1332779E+03  0.7546771E-02  0.1233052E+00
          1   -1    0    0  501    0  0.00000000000E+00  0.00000000000E+00  0.83224255161E+03  0.83224255161E+03  0.00000000000E+00 0. -1.
         -1   -1    0    0    0  501 -0.00000000000E+00 -0.00000000000E+00 -0.18043745268E+02  0.18043745268E+02  0.00000000000E+00 0.  1.
         23    2    1    2    0    0 -0.31681882753E+02 -0.33689284777E+02  0.37009842019E+03  0.39336476901E+03  0.12499716504E+03 0.  0.
         23    2    1    2    0    0  0.31681882753E+02  0.33689284777E+02  0.44410038615E+03  0.45692152786E+03  0.97022781066E+02 0.  0.
          5    1    3    3  502    0 -0.57720327886E+02 -0.57996151357E+02  0.15547579915E+03  0.17575552323E+03  0.47000000000E+01 0. -1.
         -5    1    3    3    0  502  0.26038445133E+02  0.24306866581E+02  0.21462262104E+03  0.21760924578E+03  0.47000000000E+01 0. -1.
        -11    1    4    4    0    0 -0.29261681383E+02  0.33682324926E+02  0.14643889696E+03  0.15308525583E+03  0.00000000000E+00 0.  1.
         11    1    4    4    0    0  0.60943564136E+02  0.69598506711E-02  0.29766148919E+03  0.30383627203E+03  0.00000000000E+00 0. -1.
<mgrwt>
<rscale>  0 0.12629943E+03</rscale>
<asrwt>0</asrwt>
<pdfrwt beam="1">  1        1 0.12803729E+00 0.13327791E+03</pdfrwt>
<pdfrwt beam="2">  1       -1 0.27759615E-02 0.13327791E+03</pdfrwt>
<totfact> 0.88176958E+03</totfact>
</mgrwt>
</event>
<event>
 8    1  0.8504141E-006  0.1410606E+03  0.7546771E-02  0.1222883E+00
          2   -1    0    0  501    0  0.00000000000E+00  0.00000000000E+00  0.65867634850E+02  0.65867634850E+02  0.00000000000E+00 0. -1.
         -2   -1    0    0    0  501 -0.00000000000E+00 -0.00000000000E+00 -0.25602287828E+03  0.25602287828E+03  0.00000000000E+00 0.  1.
         23    2    1    2    0    0  0.64415495207E+02  0.11187332327E+02 -0.14167138560E+03  0.19992216452E+03  0.12499431164E+03 0.  0.
         23    2    1    2    0    0 -0.64415495207E+02 -0.11187332327E+02 -0.48483857835E+02  0.12196834861E+03  0.90835462042E+02 0.  0.
          5    1    3    3  502    0 -0.98931233271E+01 -0.23757575125E+02  0.94931639469E+01  0.27829955564E+02  0.47000000000E+01 0. -1.
         -5    1    3    3    0  502  0.74308618534E+02  0.34944907452E+02 -0.15116454955E+03  0.17209220896E+03  0.47000000000E+01 0. -1.
        -11    1    4    4    0    0 -0.66520830931E+02  0.16375801049E+02 -0.27902741436E+01  0.68563645159E+02  0.00000000000E+00 0. -1.
         11    1    4    4    0    0  0.21053357238E+01 -0.27563133376E+02 -0.45693583691E+02  0.53404703450E+02  0.00000000000E+00 0.  1.
<mgrwt>
<rscale>  0 0.13313096E+03</rscale>
<asrwt>0</asrwt>
<pdfrwt beam="1">  1        2 0.10133482E-01 0.14106059E+03</pdfrwt>
<pdfrwt beam="2">  1       -2 0.39388135E-01 0.14106059E+03</pdfrwt>
<totfact> 0.37077435E+03</totfact>
</mgrwt>
</event>
<event>
 8    1  0.8504141E-006  0.1717940E+03  0.7546771E-02  0.1182447E+00
         -2   -1    0    0    0  501 -0.00000000000E+00  0.00000000000E+00  0.90220064226E+02  0.90220064226E+02  0.00000000000E+00 0.  1.
          2   -1    0    0  501    0  0.00000000000E+00 -0.00000000000E+00 -0.37916532719E+03  0.37916532719E+03  0.00000000000E+00 0. -1.
         23    2    1    2    0    0 -0.61176189567E+01  0.11769457149E+03 -0.35214612599E+02  0.17536600611E+03  0.12499491885E+03 0.  0.
         23    2    1    2    0    0  0.61176189567E+01 -0.11769457149E+03 -0.25373065036E+03  0.29401938530E+03  0.90436268064E+02 0.  0.
          5    1    3    3  502    0  0.19540634906E+02  0.10855856820E+03 -0.70161147608E+02  0.13081083967E+03  0.47000000000E+01 0. -1.
         -5    1    3    3    0  502 -0.25658253862E+02  0.91360032955E+01  0.34946535009E+02  0.44555166441E+02  0.47000000000E+01 0. -1.
        -11    1    4    4    0    0  0.29319144064E+02 -0.44844942515E+02 -0.39530058498E+02  0.66583080453E+02  0.00000000000E+00 0.  1.
         11    1    4    4    0    0 -0.23201525107E+02 -0.72849628976E+02 -0.21420059186E+03  0.22743630485E+03  0.00000000000E+00 0. -1.
<mgrwt>
<rscale>  0 0.16566344E+03</rscale>
<asrwt>0</asrwt>
<pdfrwt beam="2">  1        2 0.58333128E-01 0.17179397E+03</pdfrwt>
<pdfrwt beam="1">  1       -2 0.13880010E-01 0.17179397E+03</pdfrwt>
<totfact> 0.32280852E+03</totfact>
</mgrwt>
</event>
<event>
 8    1  0.8504141E-006  0.1639959E+03  0.7546771E-02  0.1191391E+00
         -1   -1    0    0    0  501 -0.00000000000E+00  0.00000000000E+00  0.96783421259E+02  0.96783421259E+02  0.00000000000E+00 0.  1.
          1   -1    0    0  501    0  0.00000000000E+00 -0.00000000000E+00 -0.24045580221E+03  0.24045580221E+03  0.00000000000E+00 0. -1.
         23    2    1    2    0    0  0.42823724186E+02 -0.97159698942E+02 -0.63152156202E+02  0.17573514313E+03  0.12498306784E+03 0.  0.
         23    2    1    2    0    0 -0.42823724186E+02  0.97159698942E+02 -0.80520224753E+02  0.16150408034E+03  0.91247920085E+02 0.  0.
          5    1    3    3  502    0  0.20446776715E+02  0.28840589422E+01  0.30279933977E+02  0.36950681667E+02  0.47000000000E+01 0.  1.
         -5    1    3    3    0  502  0.22376947471E+02 -0.10004375788E+03 -0.93432090179E+02  0.13878446147E+03  0.47000000000E+01 0.  1.
        -11    1    4    4    0    0 -0.22521945333E+01  0.99343060132E+02 -0.56824020164E+02  0.11446870858E+03  0.00000000000E+00 0.  1.
         11    1    4    4    0    0 -0.40571529653E+02 -0.21833611895E+01 -0.23696204590E+02  0.47035371758E+02  0.00000000000E+00 0. -1.
<mgrwt>
<rscale>  0 0.15763653E+03</rscale>
<asrwt>0</asrwt>
<pdfrwt beam="2">  1        1 0.36993200E-01 0.16399587E+03</pdfrwt>
<pdfrwt beam="1">  1       -1 0.14889757E-01 0.16399587E+03</pdfrwt>
<totfact> 0.36716842E+03</totfact>
</mgrwt>
</event>
<event>
 8    1  0.8504141E-006  0.1845850E+03  0.7546771E-02  0.1167914E+00
          1   -1    0    0  501    0  0.00000000000E+00  0.00000000000E+00  0.79806322809E+02  0.79806322809E+02  0.00000000000E+00 0. -1.
         -1   -1    0    0    0  501 -0.00000000000E+00 -0.00000000000E+00 -0.41532716233E+03  0.41532716233E+03  0.00000000000E+00 0.  1.
         23    2    1    2    0    0 -0.13255653024E+03  0.29590863899E+02 -0.24137667517E+03  0.30386563968E+03  0.12499909890E+03 0.  0.
         23    2    1    2    0    0  0.13255653024E+03 -0.29590863899E+02 -0.94144164357E+02  0.19126784546E+03  0.96298557047E+02 0.  0.
          5    1    3    3  502    0  0.19771151059E+02 -0.15346341087E+02 -0.28298614132E+02  0.38069806419E+02  0.47000000000E+01 0.  1.
         -5    1    3    3    0  502 -0.15232768130E+03  0.44937204986E+02 -0.21307806103E+03  0.26579583326E+03  0.47000000000E+01 0.  1.
        -11    1    4    4    0    0  0.20099856827E+02 -0.48196590000E+02 -0.34867748929E+02  0.62790727401E+02  0.00000000000E+00 0.  1.
         11    1    4    4    0    0  0.11245667342E+03  0.18605726102E+02 -0.59276415428E+02  0.12847711806E+03  0.00000000000E+00 0. -1.
<mgrwt>
<rscale>  0 0.17988585E+03</rscale>
<asrwt>0</asrwt>
<pdfrwt beam="1">  1        1 0.12277896E-01 0.18458501E+03</pdfrwt>
<pdfrwt beam="2">  1       -1 0.63896486E-01 0.18458501E+03</pdfrwt>
<totfact> 0.12389384E+03</totfact>
</mgrwt>
</event>
<event>
 8    1  0.8504141E-006  0.1523808E+03  0.7546771E-02  0.1212467E+00
         -2   -1    0    0    0  501 -0.00000000000E+00  0.00000000000E+00  0.51526626952E+02  0.51526626952E+02  0.00000000000E+00 0.  1.
          2   -1    0    0  501    0  0.00000000000E+00 -0.00000000000E+00 -0.33904080701E+03  0.33904080701E+03  0.00000000000E+00 0. -1.
         23    2    1    2    0    0 -0.27696538410E+02  0.82634949348E+02 -0.14666024015E+03  0.21149260540E+03  0.12499705198E+03 0.  0.
         23    2    1    2    0    0  0.27696538410E+02 -0.82634949348E+02 -0.14085393991E+03  0.17907482857E+03  0.68061213217E+02 0.  0.
          5    1    3    3  502    0  0.36887007700E+02  0.40165762665E+02 -0.11819904483E+02  0.55997678251E+02  0.47000000000E+01 0.  1.
         -5    1    3    3    0  502 -0.64583546110E+02  0.42469186682E+02 -0.13484033567E+03  0.15549492715E+03  0.47000000000E+01 0.  1.
        -11    1    4    4    0    0  0.20737363319E+02 -0.94466464759E+02 -0.12026206871E+03  0.15432730274E+03  0.00000000000E+00 0.  1.
         11    1    4    4    0    0  0.69591750906E+01  0.11831515411E+02 -0.20591871207E+02  0.24747525830E+02  0.00000000000E+00 0. -1.
<mgrwt>
<rscale>  0 0.14064259E+03</rscale>
<asrwt>0</asrwt>
<pdfrwt beam="2">  1        2 0.52160126E-01 0.15238076E+03</pdfrwt>
<pdfrwt beam="1">  1       -2 0.79271731E-02 0.15238076E+03</pdfrwt>
<totfact> 0.87872442E+03</totfact>
</mgrwt>
</event>
<event>
 8    1  0.8504141E-006  0.1270563E+03  0.7546771E-02  0.1246193E+00
         -2   -1    0    0    0  501 -0.00000000000E+00  0.00000000000E+00  0.85752358718E+02  0.85752358718E+02  0.00000000000E+00 0.  1.
          2   -1    0    0  501    0  0.00000000000E+00 -0.00000000000E+00 -0.14940129879E+03  0.14940129879E+03  0.00000000000E+00 0. -1.
         23    2    1    2    0    0 -0.22772225122E+02  0.72472178371E+00 -0.13571736476E+02  0.12777909117E+03  0.12499681856E+03 0.  0.
         23    2    1    2    0    0  0.22772225122E+02 -0.72472178371E+00 -0.50077203599E+02  0.10737456634E+03  0.92208848369E+02 0.  0.
          5    1    3    3  502    0 -0.54932176799E+02 -0.29086571020E+02 -0.42130309358E+02  0.75237129318E+02  0.47000000000E+01 0. -1.
         -5    1    3    3    0  502  0.32159951677E+02  0.29811292803E+02  0.28558572881E+02  0.52541961854E+02  0.47000000000E+01 0. -1.
        -11    1    4    4    0    0  0.20675200545E+02 -0.39022279691E+02  0.17019592102E+00  0.44161422039E+02  0.00000000000E+00 0.  1.
         11    1    4    4    0    0  0.20970245763E+01  0.38297557907E+02 -0.50247399520E+02  0.63213144300E+02  0.00000000000E+00 0. -1.
<mgrwt>
<rscale>  0 0.11814285E+03</rscale>
<asrwt>0</asrwt>
<pdfrwt beam="2">  1        2 0.22984815E-01 0.12705630E+03</pdfrwt>
<pdfrwt beam="1">  1       -2 0.13192671E-01 0.12705630E+03</pdfrwt>
<totfact> 0.93934692E+03</totfact>
</mgrwt>
</event>
<event>
 7    1  0.8504141E-006  0.2032234E+03  0.7546771E-02  0.1166403E+00
         -1   -1    0    0    0  501 -0.00000000000E+00  0.00000000000E+00  0.10161644042E+03  0.10161644042E+03  0.00000000000E+00 0.  1.
          1   -1    0    0  501    0  0.00000000000E+00 -0.00000000000E+00 -0.47364537350E+03  0.47364537350E+03  0.00000000000E+00 0. -1.
         23    2    1    2    0    0 -0.48679818093E+02  0.80188587345E+02 -0.34729737346E+03  0.37053905265E+03  0.88790707279E+02 0.  0.
          5    1    1    2  502    0  0.52490976222E+02 -0.71208572771E+02 -0.97162919147E+02  0.13148644903E+03  0.47000000000E+01 0. -1.
         -5    1    1    2    0  502 -0.38111581289E+01 -0.89800145744E+01  0.72431359526E+02  0.73236312242E+02  0.47000000000E+01 0.  1.
        -11    1    3    3    0    0  0.22467032231E+02  0.35809434472E+02 -0.81243634348E+02  0.91583902824E+02  0.00000000000E+00 0.  1.
         11    1    3    3    0    0 -0.71146850324E+02  0.44379152874E+02 -0.26605373911E+03  0.27895514983E+03  0.00000000000E+00 0. -1.
<mgrwt>
<rscale>  0 0.18145417E+03</rscale>
<asrwt>0</asrwt>
<pdfrwt beam="2">  1        1 0.72868520E-01 0.20322342E+03</pdfrwt>
<pdfrwt beam="1">  1       -1 0.15633298E-01 0.20322342E+03</pdfrwt>
<totfact> 0.14540348E+03</totfact>
</mgrwt>
</event>
<event>
 7    1  0.8504141E-006  0.4083678E+03  0.7546771E-02  0.1040920E+00
          2   -1    0    0  501    0  0.00000000000E+00  0.00000000000E+00  0.51958241628E+02  0.51958241628E+02  0.00000000000E+00 0. -1.
         -2   -1    0    0    0  501 -0.00000000000E+00 -0.00000000000E+00 -0.80239549295E+03  0.80239549295E+03  0.00000000000E+00 0.  1.
         23    2    1    2    0    0 -0.84208353480E+02 -0.18140669417E+02 -0.74676534472E+02  0.14307287520E+03  0.86447279503E+02 0.  0.
          5    1    1    2  502    0 -0.32077716885E+02  0.63212143414E+01 -0.88600853036E+01  0.34198373980E+02  0.47000000000E+01 0. -1.
         -5    1    1    2    0  502  0.11628607037E+03  0.11819455076E+02 -0.66690063155E+03  0.67708248540E+03  0.47000000000E+01 0.  1.
        -11    1    3    3    0    0 -0.18774644908E+02 -0.36917999601E+02 -0.60850312757E+02  0.73608332059E+02  0.00000000000E+00 0. -1.
         11    1    3    3    0    0 -0.65433708572E+02  0.18777330184E+02 -0.13826221715E+02  0.69464543137E+02  0.00000000000E+00 0.  1.
<mgrwt>
<rscale>  0 0.40836777E+03</rscale>
<asrwt>0</asrwt>
<pdfrwt beam="1">  1        2 0.79935761E-02 0.40836777E+03</pdfrwt>
<pdfrwt beam="2">  1       -2 0.12344545E+00 0.40836777E+03</pdfrwt>
<totfact> 0.44318907E+02</totfact>
</mgrwt>
</event>
<event>
 8    1  0.8504141E-006  0.1415912E+03  0.7546771E-02  0.1222949E+00
         -2   -1    0    0    0  501 -0.00000000000E+00  0.00000000000E+00  0.37331443196E+02  0.37331443196E+02  0.00000000000E+00 0.  1.
          2   -1    0    0  501    0  0.00000000000E+00 -0.00000000000E+00 -0.43520967514E+03  0.43520967514E+03  0.00000000000E+00 0. -1.
         23    2    1    2    0    0 -0.14423547523E+02  0.64888518380E+02 -0.18811107827E+03  0.23544391202E+03  0.12501799631E+03 0.  0.
         23    2    1    2    0    0  0.14423547523E+02 -0.64888518380E+02 -0.20976715368E+03  0.23709720631E+03  0.88285151298E+02 0.  0.
          5    1    3    3  502    0 -0.66618631932E+02  0.58186988856E+02 -0.11200626263E+03  0.14279797148E+03  0.47000000000E+01 0. -1.
         -5    1    3    3    0  502  0.52195084409E+02  0.67015295233E+01 -0.76104815641E+02  0.92645940538E+02  0.47000000000E+01 0. -1.
        -11    1    4    4    0    0 -0.12939096125E+02  0.84976190425E+00  0.24995993252E+01  0.13205691977E+02  0.00000000000E+00 0.  1.
         11    1    4    4    0    0  0.27362643647E+02 -0.65738280284E+02 -0.21226675300E+03  0.22389151434E+03  0.00000000000E+00 0. -1.
<mgrwt>
<rscale>  0 0.13308501E+03</rscale>
<asrwt>0</asrwt>
<pdfrwt beam="2">  1        2 0.66955338E-01 0.14159116E+03</pdfrwt>
<pdfrwt beam="1">  1       -2 0.57432987E-02 0.14159116E+03</pdfrwt>
<totfact> 0.10958186E+04</totfact>
</mgrwt>
</event>
<event>
 8    1  0.8504141E-006  0.1271285E+03  0.7546771E-02  0.1247725E+00
         -2   -1    0    0    0  501 -0.00000000000E+00  0.00000000000E+00  0.89372350738E+02  0.89372350738E+02  0.00000000000E+00 0.  1.
          2   -1    0    0  501    0  0.00000000000E+00 -0.00000000000E+00 -0.13614048575E+03  0.13614048575E+03  0.00000000000E+00 0. -1.
         23    2    1    2    0    0 -0.15975458658E+02 -0.16812033773E+02 -0.13984623421E+02  0.12789539592E+03  0.12499521129E+03 0.  0.
         23    2    1    2    0    0  0.15975458658E+02  0.16812033773E+02 -0.32783511593E+02  0.97617440569E+02  0.88974975763E+02 0.  0.
          5    1    3    3  502    0 -0.34566697479E+02  0.41620174438E+02  0.19708578998E+02  0.57772083059E+02  0.47000000000E+01 0. -1.
         -5    1    3    3    0  502  0.18591238821E+02 -0.58432208212E+02 -0.33693202419E+02  0.70123312861E+02  0.47000000000E+01 0. -1.
        -11    1    4    4    0    0  0.98034392219E+01 -0.32720670085E+02  0.56472042259E+01  0.34621389155E+02  0.00000000000E+00 0.  1.
         11    1    4    4    0    0  0.61720194360E+01  0.49532703859E+02 -0.38430715819E+02  0.62996051414E+02  0.00000000000E+00 0. -1.
<mgrwt>
<rscale>  0 0.11723780E+03</rscale>
<asrwt>0</asrwt>
<pdfrwt beam="2">  1        2 0.20944690E-01 0.12712853E+03</pdfrwt>
<pdfrwt beam="1">  1       -2 0.13749592E-01 0.12712853E+03</pdfrwt>
<totfact> 0.97488493E+03</totfact>
</mgrwt>
</event>
<event>
 8    1  0.8504141E-006  0.1252586E+03  0.7546771E-02  0.1250380E+00
         -1   -1    0    0    0  501 -0.00000000000E+00  0.00000000000E+00  0.17628091588E+02  0.17628091588E+02  0.00000000000E+00 0.  1.
          1   -1    0    0  501    0  0.00000000000E+00 -0.00000000000E+00 -0.67130926165E+03  0.67130926165E+03  0.00000000000E+00 0. -1.
         23    2    1    2    0    0 -0.61744275897E+01  0.51738759711E+01 -0.34279223937E+03  0.36496061215E+03  0.12499934598E+03 0.  0.
         23    2    1    2    0    0  0.61744275897E+01 -0.51738759711E+01 -0.31088893070E+03  0.32397674110E+03  0.90797075914E+02 0.  0.
          5    1    3    3  502    0  0.27596323426E+02  0.53735613899E+02 -0.22571172315E+03  0.23370268555E+03  0.47000000000E+01 0. -1.
         -5    1    3    3    0  502 -0.33770751016E+02 -0.48561737928E+02 -0.11708051622E+03  0.13125792659E+03  0.47000000000E+01 0. -1.
        -11    1    4    4    0    0  0.47272947191E+02  0.26249593925E+01 -0.13115875262E+03  0.13944260589E+03  0.00000000000E+00 0.  1.
         11    1    4    4    0    0 -0.41098519602E+02 -0.77988353636E+01 -0.17973017808E+03  0.18453413521E+03  0.00000000000E+00 0. -1.
<mgrwt>
<rscale>  0 0.11569095E+03</rscale>
<asrwt>0</asrwt>
<pdfrwt beam="2">  1        1 0.10327835E+00 0.12525865E+03</pdfrwt>
<pdfrwt beam="1">  1       -1 0.27120142E-02 0.12525865E+03</pdfrwt>
<totfact> 0.12441772E+04</totfact>
</mgrwt>
</event>
<event>
 8    1  0.8504141E-006  0.1370572E+03  0.7546771E-02  0.1228380E+00
         -2   -1    0    0    0  501 -0.00000000000E+00  0.00000000000E+00  0.25802604061E+02  0.25802604061E+02  0.00000000000E+00 0.  1.
          2   -1    0    0  501    0  0.00000000000E+00 -0.00000000000E+00 -0.65069296685E+03  0.65069296685E+03  0.00000000000E+00 0. -1.
         23    2    1    2    0    0 -0.10403967828E+01  0.56201768618E+02 -0.23855575125E+03  0.27512454765E+03  0.12499979618E+03 0.  0.
         23    2    1    2    0    0  0.10403967828E+01 -0.56201768618E+02 -0.38633461154E+03  0.40137102326E+03  0.93190906305E+02 0.  0.
          5    1    3    3  502    0 -0.44236582087E+02  0.72352304689E+02 -0.18932799859E+03  0.20750641493E+03  0.47000000000E+01 0.  1.
         -5    1    3    3    0  502  0.43196185304E+02 -0.16150536071E+02 -0.49227752658E+02  0.67618132716E+02  0.47000000000E+01 0.  1.
        -11    1    4    4    0    0  0.40081417699E+02 -0.18409441075E+00 -0.16131569497E+03  0.16622065870E+03  0.00000000000E+00 0.  1.
         11    1    4    4    0    0 -0.39041020916E+02 -0.56017674207E+02 -0.22501891657E+03  0.23515036456E+03  0.00000000000E+00 0. -1.
<mgrwt>
<rscale>  0 0.12937932E+03</rscale>
<asrwt>0</asrwt>
<pdfrwt beam="2">  1        2 0.10010662E+00 0.13705718E+03</pdfrwt>
<pdfrwt beam="1">  1       -2 0.39696310E-02 0.13705718E+03</pdfrwt>
<totfact> 0.12152157E+04</totfact>
</mgrwt>
</event>
<event>
 8    1  0.8504141E-006  0.1195145E+03  0.7546771E-02  0.1248843E+00
          2   -1    0    0  501    0  0.00000000000E+00  0.00000000000E+00  0.17032596733E+03  0.17032596733E+03  0.00000000000E+00 0. -1.
         -2   -1    0    0    0  501 -0.00000000000E+00 -0.00000000000E+00 -0.76124498153E+02  0.76124498153E+02  0.00000000000E+00 0.  1.
         23    2    1    2    0    0  0.88925544162E+01 -0.38365238823E+02  0.50516625503E+02  0.12975222087E+03  0.11283944477E+03 0.  0.
         23    2    1    2    0    0 -0.88925544162E+01  0.38365238823E+02  0.43684843673E+02  0.11669824461E+03  0.10079258730E+03 0.  0.
          5    1    3    3  502    0  0.23545151884E+02 -0.44757823282E+02  0.80654530919E+02  0.95314638330E+02  0.47000000000E+01 0. -1.
         -5    1    3    3    0  502 -0.14652597468E+02  0.63925844590E+01 -0.30137905417E+02  0.34437582545E+02  0.47000000000E+01 0.  1.
        -11    1    4    4    0    0 -0.22230409971E+02  0.53225507207E+02 -0.10787369313E+02  0.58681454324E+02  0.00000000000E+00 0.  1.
         11    1    4    4    0    0  0.13337855555E+02 -0.14860268384E+02  0.54472212986E+02  0.58016790284E+02  0.00000000000E+00 0. -1.
<mgrwt>
<rscale>  0 0.11658308E+03</rscale>
<asrwt>0</asrwt>
<pdfrwt beam="1">  1        2 0.26203995E-01 0.11951447E+03</pdfrwt>
<pdfrwt beam="2">  1       -2 0.11711461E-01 0.11951447E+03</pdfrwt>
<totfact> 0.97858675E+03</totfact>
</mgrwt>
</event>
<event>
 8    1  0.8504141E-006  0.1339029E+03  0.7546771E-02  0.1234840E+00
          1   -1    0    0  501    0  0.00000000000E+00  0.00000000000E+00  0.21253794453E+03  0.21253794453E+03  0.00000000000E+00 0. -1.
         -1   -1    0    0    0  501 -0.00000000000E+00 -0.00000000000E+00 -0.66488919890E+02  0.66488919890E+02  0.00000000000E+00 0.  1.
         23    2    1    2    0    0  0.41639706118E+02 -0.23891373437E+02  0.66285932410E+02  0.14941151867E+03  0.12500125690E+03 0.  0.
         23    2    1    2    0    0 -0.41639706118E+02  0.23891373437E+02  0.79763092230E+02  0.12961534575E+03  0.90184943985E+02 0.  0.
          5    1    3    3  502    0  0.76914701712E+02  0.14084104483E+02  0.22783385969E+02  0.81580671821E+02  0.47000000000E+01 0. -1.
         -5    1    3    3    0  502 -0.35274995594E+02 -0.37975477920E+02  0.43502546441E+02  0.67830846849E+02  0.47000000000E+01 0. -1.
        -11    1    4    4    0    0 -0.34089315815E+02 -0.25515051956E+02  0.99019634017E+01  0.43716681121E+02  0.00000000000E+00 0.  1.
         11    1    4    4    0    0 -0.75503903036E+01  0.49406425394E+02  0.69861128829E+02  0.85898664629E+02  0.00000000000E+00 0. -1.
<mgrwt>
<rscale>  0 0.12514673E+03</rscale>
<asrwt>0</asrwt>
<pdfrwt beam="1">  1        1 0.32698145E-01 0.13390286E+03</pdfrwt>
<pdfrwt beam="2">  1       -1 0.10229065E-01 0.13390286E+03</pdfrwt>
<totfact> 0.75670626E+03</totfact>
</mgrwt>
</event>
<event>
 8    1  0.8504141E-006  0.1259861E+03  0.7546771E-02  0.1248421E+00
          1   -1    0    0  501    0  0.00000000000E+00  0.00000000000E+00  0.20307629016E+03  0.20307629016E+03  0.00000000000E+00 0. -1.
         -1   -1    0    0    0  501 -0.00000000000E+00 -0.00000000000E+00 -0.59133777465E+02  0.59133777465E+02  0.00000000000E+00 0.  1.
         23    2    1    2    0    0  0.15249480396E+02  0.42446316331E+01  0.84486086637E+02  0.15169175389E+03  0.12498770265E+03 0.  0.
         23    2    1    2    0    0 -0.15249480396E+02 -0.42446316331E+01  0.59456426062E+02  0.11051831374E+03  0.91807774840E+02 0.  0.
          5    1    3    3  502    0  0.44196115321E+02  0.42219606753E+02  0.85887405175E+01  0.61900309107E+02  0.47000000000E+01 0.  1.
         -5    1    3    3    0  502 -0.28946634925E+02 -0.37974975120E+02  0.75897346119E+02  0.89791444786E+02  0.47000000000E+01 0.  1.
        -11    1    4    4    0    0 -0.23100566163E+02 -0.32915888218E+02  0.68512991453E+02  0.79442569521E+02  0.00000000000E+00 0. -1.
         11    1    4    4    0    0  0.78510857673E+01  0.28671256585E+02 -0.90565653914E+01  0.31075744216E+02  0.00000000000E+00 0.  1.
<mgrwt>
<rscale>  0 0.11682937E+03</rscale>
<asrwt>0</asrwt>
<pdfrwt beam="1">  1        1 0.31242506E-01 0.12598607E+03</pdfrwt>
<pdfrwt beam="2">  1       -1 0.90975043E-02 0.12598607E+03</pdfrwt>
<totfact> 0.95257821E+03</totfact>
</mgrwt>
</event>
<event>
 7    1  0.8504141E-006  0.1807394E+03  0.7546771E-02  0.1183189E+00
          1   -1    0    0  501    0  0.00000000000E+00  0.00000000000E+00  0.98568581968E+02  0.98568581968E+02  0.00000000000E+00 0. -1.
         -1   -1    0    0    0  501 -0.00000000000E+00 -0.00000000000E+00 -0.56728196948E+03  0.56728196948E+03  0.00000000000E+00 0.  1.
         23    2    1    2    0    0  0.86969523054E+02 -0.46180111460E+01  0.35356920734E+02  0.13035675914E+03  0.90320257103E+02 0.  0.
          5    1    1    2  502    0 -0.39100519911E+02 -0.52241179333E+02 -0.72952406662E+02  0.97990484810E+02  0.47000000000E+01 0. -1.
         -5    1    1    2    0  502 -0.47869003143E+02  0.56859190479E+02 -0.43111790159E+03  0.43750330750E+03  0.47000000000E+01 0.  1.
        -11    1    3    3    0    0  0.54873694127E+01 -0.36313159133E+02  0.19994417114E+01  0.36779811262E+02  0.00000000000E+00 0.  1.
         11    1    3    3    0    0  0.81482153641E+02  0.31695147987E+02  0.33357479023E+02  0.93576947881E+02  0.00000000000E+00 0. -1.
<mgrwt>
<rscale>  0 0.16497751E+03</rscale>
<asrwt>0</asrwt>
<pdfrwt beam="1">  1        1 0.15164397E-01 0.18073939E+03</pdfrwt>
<pdfrwt beam="2">  1       -1 0.87274151E-01 0.18073939E+03</pdfrwt>
<totfact> 0.49941921E+02</totfact>
</mgrwt>
</event>
<event>
 8    1  0.8504141E-006  0.1451221E+03  0.7546771E-02  0.1217895E+00
         -1   -1    0    0    0  501 -0.00000000000E+00  0.00000000000E+00  0.12103851874E+03  0.12103851874E+03  0.00000000000E+00 0.  1.
          1   -1    0    0  501    0  0.00000000000E+00 -0.00000000000E+00 -0.15353127622E+03  0.15353127622E+03  0.00000000000E+00 0. -1.
         23    2    1    2    0    0 -0.32617117184E+02 -0.66110670535E+02  0.24225241798E+02  0.14713015768E+03  0.12500369541E+03 0.  0.
         23    2    1    2    0    0  0.32617117184E+02  0.66110670535E+02 -0.56717999273E+02  0.12743963728E+03  0.87117349688E+02 0.  0.
          5    1    3    3  502    0 -0.43663755520E+02  0.19684889250E+02 -0.17195637900E+02  0.51105756757E+02  0.47000000000E+01 0. -1.
         -5    1    3    3    0  502  0.11046638336E+02 -0.85795559785E+02  0.41420879698E+02  0.96024400921E+02  0.47000000000E+01 0. -1.
        -11    1    4    4    0    0 -0.22676653439E+02  0.37974846229E+02 -0.12958950338E+01  0.44249281364E+02  0.00000000000E+00 0.  1.
         11    1    4    4    0    0  0.55293770624E+02  0.28135824306E+02 -0.55422104239E+02  0.83190355916E+02  0.00000000000E+00 0. -1.
<mgrwt>
<rscale>  0 0.13666047E+03</rscale>
<asrwt>0</asrwt>
<pdfrwt beam="2">  1        1 0.23620196E-01 0.14512209E+03</pdfrwt>
<pdfrwt beam="1">  1       -1 0.18621311E-01 0.14512209E+03</pdfrwt>
<totfact> 0.44852849E+03</totfact>
</mgrwt>
</event>
<event>
 8    1  0.8504141E-006  0.1600366E+03  0.7546771E-02  0.1196224E+00
          1   -1    0    0  501    0  0.00000000000E+00  0.00000000000E+00  0.16898275305E+03  0.16898275305E+03  0.00000000000E+00 0. -1.
         -1   -1    0    0    0  501 -0.00000000000E+00 -0.00000000000E+00 -0.16981426605E+03  0.16981426605E+03  0.00000000000E+00 0.  1.
         23    2    1    2    0    0 -0.58060284288E+02 -0.81340750189E+02 -0.83062630864E+02  0.18030837240E+03  0.12499757701E+03 0.  0.
         23    2    1    2    0    0  0.58060284288E+02  0.81340750189E+02  0.82231117862E+02  0.15848864671E+03  0.91484316352E+02 0.  0.
          5    1    3    3  502    0 -0.65060147815E+02 -0.22036189128E+01  0.82164556155E-02  0.65266904611E+02  0.47000000000E+01 0. -1.
         -5    1    3    3    0  502  0.69998635272E+01 -0.79137131276E+02 -0.83070847319E+02  0.11504146779E+03  0.47000000000E+01 0. -1.
        -11    1    4    4    0    0  0.32844028057E+02 -0.14597146063E+02  0.16944872184E+02  0.39735821943E+02  0.00000000000E+00 0.  1.
         11    1    4    4    0    0  0.25216256231E+02  0.95937896251E+02  0.65286245678E+02  0.11875282477E+03  0.00000000000E+00 0. -1.
<mgrwt>
<rscale>  0 0.15351074E+03</rscale>
<asrwt>0</asrwt>
<pdfrwt beam="1">  1        1 0.25997347E-01 0.16003658E+03</pdfrwt>
<pdfrwt beam="2">  1       -1 0.26125272E-01 0.16003658E+03</pdfrwt>
<totfact> 0.23025725E+03</totfact>
</mgrwt>
</event>
<event>
 8    1  0.8504141E-006  0.1288540E+03  0.7546771E-02  0.1243979E+00
          1   -1    0    0  501    0  0.00000000000E+00  0.00000000000E+00  0.35679768210E+03  0.35679768210E+03  0.00000000000E+00 0. -1.
         -1   -1    0    0    0  501 -0.00000000000E+00 -0.00000000000E+00 -0.36244819364E+02  0.36244819364E+02  0.00000000000E+00 0.  1.
         23    2    1    2    0    0  0.15295594705E+02  0.27266703282E+02  0.15029284041E+03  0.19796792246E+03  0.12500372843E+03 0.  0.
         23    2    1    2    0    0 -0.15295594705E+02 -0.27266703282E+02  0.17026002233E+03  0.19507457900E+03  0.89934352963E+02 0.  0.
          5    1    3    3  502    0  0.53773177609E+02 -0.17118013886E+02  0.11772969061E+03  0.13064054149E+03  0.47000000000E+01 0.  1.
         -5    1    3    3    0  502 -0.38477582904E+02  0.44384717168E+02  0.32563149797E+02  0.67327380975E+02  0.47000000000E+01 0.  1.
        -11    1    4    4    0    0 -0.16225766816E+02  0.27140768435E+02  0.26149723455E+02  0.41032972799E+02  0.00000000000E+00 0.  1.
         11    1    4    4    0    0  0.93017211169E+00 -0.54407471717E+02  0.14411029888E+03  0.15404160620E+03  0.00000000000E+00 0. -1.
<mgrwt>
<rscale>  0 0.11946706E+03</rscale>
<asrwt>0</asrwt>
<pdfrwt beam="1">  1        1 0.54891949E-01 0.12885403E+03</pdfrwt>
<pdfrwt beam="2">  1       -1 0.55761263E-02 0.12885403E+03</pdfrwt>
<totfact> 0.98975941E+03</totfact>
</mgrwt>
</event>
<event>
 8    1  0.8504141E-006  0.1417885E+03  0.7546771E-02  0.1221699E+00
         -2   -1    0    0    0  501 -0.00000000000E+00  0.00000000000E+00  0.10933183654E+03  0.10933183654E+03  0.00000000000E+00 0.  1.
          2   -1    0    0  501    0  0.00000000000E+00 -0.00000000000E+00 -0.15273794138E+03  0.15273794138E+03  0.00000000000E+00 0. -1.
         23    2    1    2    0    0 -0.62594628831E+02 -0.23687404968E+02 -0.21450146954E+01  0.14180467910E+03  0.12499914086E+03 0.  0.
         23    2    1    2    0    0  0.62594628831E+02  0.23687404968E+02 -0.41261090144E+02  0.12026509882E+03  0.91005690596E+02 0.  0.
          5    1    3    3  502    0 -0.24674659743E+02 -0.14796687844E+02  0.60918366929E+02  0.67534570657E+02  0.47000000000E+01 0.  1.
         -5    1    3    3    0  502 -0.37919969088E+02 -0.88907171242E+01 -0.63063381624E+02  0.74270108445E+02  0.47000000000E+01 0.  1.
        -11    1    4    4    0    0  0.12748183614E+02  0.39403705738E+02  0.14461565002E+02  0.43866901801E+02  0.00000000000E+00 0.  1.
         11    1    4    4    0    0  0.49846445217E+02 -0.15716300770E+02 -0.55722655146E+02  0.76398197015E+02  0.00000000000E+00 0. -1.
<mgrwt>
<rscale>  0 0.13395754E+03</rscale>
<asrwt>0</asrwt>
<pdfrwt beam="2">  1        2 0.23498145E-01 0.14178845E+03</pdfrwt>
<pdfrwt beam="1">  1       -2 0.16820283E-01 0.14178845E+03</pdfrwt>
<totfact> 0.62147229E+03</totfact>
</mgrwt>
</event>
<event>
 8    1  0.8504141E-006  0.1768670E+03  0.7546771E-02  0.1176150E+00
          1   -1    0    0  501    0  0.00000000000E+00  0.00000000000E+00  0.32990204318E+02  0.32990204318E+02  0.00000000000E+00 0. -1.
         -1   -1    0    0    0  501 -0.00000000000E+00 -0.00000000000E+00 -0.85158236994E+03  0.85158236994E+03  0.00000000000E+00 0.  1.
         23    2    1    2    0    0 -0.98683318277E+02 -0.76923362778E+02 -0.47525300787E+03  0.50709700178E+03  0.12500538661E+03 0.  0.
         23    2    1    2    0    0  0.98683318277E+02  0.76923362778E+02 -0.34333915776E+03  0.37747557248E+03  0.94606709707E+02 0.  0.
          5    1    3    3  502    0 -0.93197086158E+01 -0.54465081783E+02 -0.59938728964E+02  0.81658087978E+02  0.47000000000E+01 0. -1.
         -5    1    3    3    0  502 -0.89363609661E+02 -0.22458280995E+02 -0.41531427891E+03  0.42543891381E+03  0.47000000000E+01 0. -1.
        -11    1    4    4    0    0  0.40962268143E+02  0.30695680002E+02 -0.39194539814E+02  0.64469714855E+02  0.00000000000E+00 0. -1.
         11    1    4    4    0    0  0.57721050134E+02  0.46227682777E+02 -0.30414461794E+03  0.31300585762E+03  0.00000000000E+00 0.  1.
<mgrwt>
<rscale>  0 0.17163876E+03</rscale>
<asrwt>0</asrwt>
<pdfrwt beam="1">  1        1 0.50754162E-02 0.17686703E+03</pdfrwt>
<pdfrwt beam="2">  1       -1 0.13101267E+00 0.17686703E+03</pdfrwt>
<totfact> 0.86348956E+02</totfact>
</mgrwt>
</event>
<event>
 8    1  0.8504141E-006  0.2433804E+03  0.7546771E-02  0.1120201E+00
          1   -1    0    0  501    0  0.00000000000E+00  0.00000000000E+00  0.67289152313E+03  0.67289152313E+03  0.00000000000E+00 0. -1.
         -1   -1    0    0    0  501 -0.00000000000E+00 -0.00000000000E+00 -0.83381099433E+02  0.83381099433E+02  0.00000000000E+00 0.  1.
         23    2    1    2    0    0  0.12057934465E+03  0.17050592146E+03  0.26519402266E+03  0.35994707830E+03  0.12498952719E+03 0.  0.
         23    2    1    2    0    0 -0.12057934465E+03 -0.17050592146E+03  0.32431640103E+03  0.39632554426E+03  0.91000887070E+02 0.  0.
          5    1    3    3  502    0  0.52149079712E+02  0.14014930875E+03  0.10415379976E+03  0.18229497871E+03  0.47000000000E+01 0. -1.
         -5    1    3    3    0  502  0.68430264934E+02  0.30356612711E+02  0.16104022290E+03  0.17765209958E+03  0.47000000000E+01 0. -1.
        -11    1    4    4    0    0 -0.10760718538E+03 -0.80520063543E+02  0.22143184055E+03  0.25902673026E+03  0.00000000000E+00 0. -1.
         11    1    4    4    0    0 -0.12972159265E+02 -0.89985857922E+02  0.10288456049E+03  0.13729881401E+03  0.00000000000E+00 0.  1.
<mgrwt>
<rscale>  0 0.23938814E+03</rscale>
<asrwt>0</asrwt>
<pdfrwt beam="1">  1        1 0.10352177E+00 0.24338042E+03</pdfrwt>
<pdfrwt beam="2">  1       -1 0.12827862E-01 0.24338042E+03</pdfrwt>
<totfact> 0.12318408E+03</totfact>
</mgrwt>
</event>
<event>
 8    1  0.8504141E-006  0.2184568E+03  0.7546771E-02  0.1138330E+00
          2   -1    0    0  501    0  0.00000000000E+00  0.00000000000E+00  0.16169393056E+03  0.16169393056E+03  0.00000000000E+00 0.  1.
         -2   -1    0    0    0  501 -0.00000000000E+00 -0.00000000000E+00 -0.39606675421E+03  0.39606675421E+03  0.00000000000E+00 0. -1.
         23    2    1    2    0    0 -0.97923844074E+02 -0.15003175015E+03 -0.27582271913E+03  0.35185444665E+03  0.12499909577E+03 0.  0.
         23    2    1    2    0    0  0.97923844074E+02  0.15003175015E+03  0.41449895488E+02  0.20590623812E+03  0.92631958682E+02 0.  0.
          5    1    3    3  502    0 -0.95242787376E+02 -0.17146885401E+03 -0.25163068746E+03  0.31908125816E+03  0.47000000000E+01 0. -1.
         -5    1    3    3    0  502 -0.26810566972E+01  0.21437103853E+02 -0.24192031678E+02  0.32773188483E+02  0.47000000000E+01 0. -1.
        -11    1    4    4    0    0  0.44894391711E+02  0.10005985356E+03 -0.18909596696E+02  0.11128815548E+03  0.00000000000E+00 0.  1.
         11    1    4    4    0    0  0.53029452362E+02  0.49971896591E+02  0.60359492185E+02  0.94618082646E+02  0.00000000000E+00 0. -1.
<mgrwt>
<rscale>  0 0.21413904E+03</rscale>
<asrwt>0</asrwt>
<pdfrwt beam="1">  1        2 0.24875990E-01 0.21845681E+03</pdfrwt>
<pdfrwt beam="2">  1       -2 0.60933346E-01 0.21845681E+03</pdfrwt>
<totfact> 0.55425775E+02</totfact>
</mgrwt>
</event>
<event>
 7    1  0.8504141E-006  0.1684066E+03  0.7546771E-02  0.1194212E+00
         -1   -1    0    0    0  501 -0.00000000000E+00  0.00000000000E+00  0.59515530951E+02  0.59515530951E+02  0.00000000000E+00 0.  1.
          1   -1    0    0  501    0  0.00000000000E+00 -0.00000000000E+00 -0.36698770194E+03  0.36698770194E+03  0.00000000000E+00 0. -1.
         23    2    1    2    0    0  0.60843408107E+02  0.54762666226E+02 -0.17081721733E+03  0.20962688224E+03  0.89799989423E+02 0.  0.
          5    1    1    2  502    0 -0.71808063546E+02  0.29105383936E+02 -0.94380008564E+02  0.12220146227E+03  0.47000000000E+01 0. -1.
         -5    1    1    2    0  502  0.10964655439E+02 -0.83868050162E+02 -0.42274945099E+02  0.94674888381E+02  0.47000000000E+01 0.  1.
        -11    1    3    3    0    0  0.45937887088E+02  0.64481857655E+02 -0.17435115732E+03  0.19148505293E+03  0.00000000000E+00 0. -1.
         11    1    3    3    0    0  0.14905521020E+02 -0.97191914288E+01  0.35339399923E+01  0.18141829311E+02  0.00000000000E+00 0.  1.
<mgrwt>
<rscale>  0 0.15521123E+03</rscale>
<asrwt>0</asrwt>
<pdfrwt beam="2">  1        1 0.56459648E-01 0.16840658E+03</pdfrwt>
<pdfrwt beam="1">  1       -1 0.91562353E-02 0.16840658E+03</pdfrwt>
<totfact> 0.46064869E+03</totfact>
</mgrwt>
</event>
<event>
 8    1  0.8504141E-006  0.1993163E+03  0.7546771E-02  0.1154461E+00
         -1   -1    0    0    0  501 -0.00000000000E+00  0.00000000000E+00  0.27703517133E+02  0.27703517133E+02  0.00000000000E+00 0.  1.
          1   -1    0    0  501    0  0.00000000000E+00 -0.00000000000E+00 -0.14149439946E+04  0.14149439946E+04  0.00000000000E+00 0. -1.
         23    2    1    2    0    0 -0.15522180501E+03  0.28054635370E+01 -0.52266499298E+03  0.55937973559E+03  0.12500125730E+03 0.  0.
         23    2    1    2    0    0  0.15522180501E+03 -0.28054635370E+01 -0.86457548448E+03  0.88326777613E+03  0.92571683672E+02 0.  0.
          5    1    3    3  502    0 -0.75781475615E+02 -0.33510271588E+02 -0.11140897907E+03  0.13892379553E+03  0.47000000000E+01 0. -1.
         -5    1    3    3    0  502 -0.79440329392E+02  0.36315735125E+02 -0.41125601391E+03  0.42045594006E+03  0.47000000000E+01 0. -1.
        -11    1    4    4    0    0  0.10514608552E+03 -0.44914266681E+02 -0.50424567707E+03  0.51704612318E+03  0.00000000000E+00 0.  1.
         11    1    4    4    0    0  0.50075719489E+02  0.42108803144E+02 -0.36032980741E+03  0.36622165296E+03  0.00000000000E+00 0. -1.
<mgrwt>
<rscale>  0 0.19450366E+03</rscale>
<asrwt>0</asrwt>
<pdfrwt beam="2">  1        1 0.21768375E+00 0.19931632E+03</pdfrwt>
<pdfrwt beam="1">  1       -1 0.42620785E-02 0.19931632E+03</pdfrwt>
<totfact> 0.18251165E+03</totfact>
</mgrwt>
</event>
<event>
 8    1  0.8504141E-006  0.2020632E+03  0.7546771E-02  0.1152242E+00
          1   -1    0    0  501    0  0.00000000000E+00  0.00000000000E+00  0.67977982941E+03  0.67977982941E+03  0.00000000000E+00 0. -1.
         -1   -1    0    0    0  501 -0.00000000000E+00 -0.00000000000E+00 -0.54479827235E+02  0.54479827235E+02  0.00000000000E+00 0.  1.
         23    2    1    2    0    0  0.55582425024E+02  0.14870641028E+03  0.33311651023E+03  0.38961026316E+03  0.12500618122E+03 0.  0.
         23    2    1    2    0    0 -0.55582425024E+02 -0.14870641028E+03  0.29218349194E+03  0.34464939348E+03  0.90603581786E+02 0.  0.
          5    1    3    3  502    0 -0.75535318247E+00  0.11052795378E+02  0.16360569422E+03  0.16404770046E+03  0.47000000000E+01 0.  1.
         -5    1    3    3    0  502  0.56337778207E+02  0.13765361490E+03  0.16951081601E+03  0.22556256270E+03  0.47000000000E+01 0.  1.
        -11    1    4    4    0    0 -0.74481972718E+01 -0.48977503366E+02  0.18127302434E+03  0.18792067697E+03  0.00000000000E+00 0. -1.
         11    1    4    4    0    0 -0.48134227752E+02 -0.99728906916E+02  0.11091046760E+03  0.15672871651E+03  0.00000000000E+00 0.  1.
<mgrwt>
<rscale>  0 0.19706218E+03</rscale>
<asrwt>0</asrwt>
<pdfrwt beam="1">  1        1 0.10458151E+00 0.20206323E+03</pdfrwt>
<pdfrwt beam="2">  1       -1 0.83815123E-02 0.20206323E+03</pdfrwt>
<totfact> 0.23407888E+03</totfact>
</mgrwt>
</event>
<event>
 8    1  0.8504141E-006  0.1314616E+03  0.7546771E-02  0.1238645E+00
          2   -1    0    0  501    0  0.00000000000E+00  0.00000000000E+00  0.19531466062E+03  0.19531466062E+03  0.00000000000E+00 0. -1.
         -2   -1    0    0    0  501 -0.00000000000E+00 -0.00000000000E+00 -0.74345162582E+02  0.74345162582E+02  0.00000000000E+00 0.  1.
         23    2    1    2    0    0  0.40090101976E+02  0.70623548022E+01  0.30648804259E+02  0.13498708129E+03  0.12500027913E+03 0.  0.
         23    2    1    2    0    0 -0.40090101976E+02 -0.70623548022E+01  0.90320693775E+02  0.13467274190E+03  0.91224045930E+02 0.  0.
          5    1    3    3  502    0  0.65448247444E+02  0.29691572088E+02  0.56899599070E+02  0.91786256710E+02  0.47000000000E+01 0.  1.
         -5    1    3    3    0  502 -0.25358145468E+02 -0.22629217286E+02 -0.26250794812E+02  0.43200824584E+02  0.47000000000E+01 0.  1.
        -11    1    4    4    0    0 -0.51303464239E+02 -0.35766568306E+02  0.81282442782E+02  0.10255792683E+03  0.00000000000E+00 0. -1.
         11    1    4    4    0    0  0.11213362263E+02  0.28704213504E+02  0.90382509933E+01  0.32114815072E+02  0.00000000000E+00 0.  1.
<mgrwt>
<rscale>  0 0.12273961E+03</rscale>
<asrwt>0</asrwt>
<pdfrwt beam="1">  1        2 0.30048409E-01 0.13146164E+03</pdfrwt>
<pdfrwt beam="2">  1       -2 0.11437717E-01 0.13146164E+03</pdfrwt>
<totfact> 0.88219295E+03</totfact>
</mgrwt>
</event>
<event>
 8    1  0.8504141E-006  0.1717002E+03  0.7546771E-02  0.1182447E+00
          1   -1    0    0  501    0  0.00000000000E+00  0.00000000000E+00  0.16366719350E+03  0.16366719350E+03  0.00000000000E+00 0. -1.
         -1   -1    0    0    0  501 -0.00000000000E+00 -0.00000000000E+00 -0.15792813564E+03  0.15792813564E+03  0.00000000000E+00 0.  1.
         23    2    1    2    0    0  0.34643119615E+02 -0.11249136249E+03 -0.98474067221E+01  0.17198240207E+03  0.12500609118E+03 0.  0.
         23    2    1    2    0    0 -0.34643119615E+02  0.11249136249E+03  0.15586464582E+02  0.14961292708E+03  0.91030971100E+02 0.  0.
          5    1    3    3  502    0  0.50352752267E+01 -0.40312072867E+01 -0.51409438243E+02  0.52025233967E+02  0.47000000000E+01 0.  1.
         -5    1    3    3    0  502  0.29607844388E+02 -0.10846015520E+03  0.41562031521E+02  0.11995716810E+03  0.47000000000E+01 0.  1.
        -11    1    4    4    0    0 -0.48058040669E+02  0.52089581265E+02  0.41949724184E+02  0.82357022216E+02  0.00000000000E+00 0. -1.
         11    1    4    4    0    0  0.13414921054E+02  0.60401781223E+02 -0.26363259601E+02  0.67255904860E+02  0.00000000000E+00 0.  1.
<mgrwt>
<rscale>  0 0.16566397E+03</rscale>
<asrwt>0</asrwt>
<pdfrwt beam="1">  1        1 0.25179568E-01 0.17170025E+03</pdfrwt>
<pdfrwt beam="2">  1       -1 0.24296636E-01 0.17170025E+03</pdfrwt>
<totfact> 0.27100123E+03</totfact>
</mgrwt>
</event>
<event>
 8    1  0.1854827E-005  0.3665808E+03  0.7546771E-02  0.1056966E+00
         -1   -1    0    0    0  501 -0.00000000000E+00  0.00000000000E+00  0.10883103623E+03  0.10883103623E+03  0.00000000000E+00 0.  1.
          1   -1    0    0  501    0  0.00000000000E+00 -0.00000000000E+00 -0.12028048186E+04  0.12028048186E+04  0.00000000000E+00 0. -1.
         23    2    1    2    0    0  0.33996410921E+03  0.56397623988E+02 -0.53851093198E+03  0.65144109637E+03  0.12500076253E+03 0.  0.
         23    2    1    2    0    0 -0.33996410921E+03 -0.56397623988E+02 -0.55546285042E+03  0.66019475849E+03  0.92530283685E+02 0.  0.
          5    1    3    3  502    0  0.18359935083E+02 -0.40682746623E+01  0.20881156711E+01  0.19495853457E+02  0.47000000000E+01 0.  1.
         -5    1    3    3    0  502  0.32160417412E+03  0.60465898650E+02 -0.54059904765E+03  0.63194524291E+03  0.47000000000E+01 0.  1.
        -11    1    4    4    0    0 -0.27930061271E+03 -0.12560959907E+02 -0.40479126454E+03  0.49195790249E+03  0.00000000000E+00 0.  1.
         11    1    4    4    0    0 -0.60663496500E+02 -0.43836664081E+02 -0.15067158588E+03  0.16823685600E+03  0.00000000000E+00 0. -1.
<mgrwt>
<rscale>  0 0.36411500E+03</rscale>
<asrwt>0</asrwt>
<pdfrwt beam="2">  1        1 0.18504690E+00 0.36658079E+03</pdfrwt>
<pdfrwt beam="1">  1       -1 0.16743236E-01 0.36658079E+03</pdfrwt>
<totfact> 0.30511148E+02</totfact>
</mgrwt>
</event>
<event>
 7    1  0.8504141E-006  0.1618950E+03  0.7546771E-02  0.1207060E+00
          1   -1    0    0  501    0  0.00000000000E+00  0.00000000000E+00  0.53819038578E+03  0.53819038578E+03  0.00000000000E+00 0. -1.
         -1   -1    0    0    0  501 -0.00000000000E+00 -0.00000000000E+00 -0.33239709008E+02  0.33239709008E+02  0.00000000000E+00 0.  1.
         23    2    1    2    0    0 -0.47650045884E+02 -0.15144085914E+02  0.23273135786E+03  0.25470728046E+03  0.90620326497E+02 0.  0.
          5    1    1    2  502    0  0.28594814987E+02  0.63475185779E+02  0.25081147444E+03  0.26033679795E+03  0.47000000000E+01 0. -1.
         -5    1    1    2    0  502  0.19055230897E+02 -0.48331099864E+02  0.21407844463E+02  0.56386016380E+02  0.47000000000E+01 0.  1.
        -11    1    3    3    0    0 -0.65364781889E+02 -0.26182324213E+02  0.21818617469E+03  0.22926682193E+03  0.00000000000E+00 0.  1.
         11    1    3    3    0    0  0.17714736005E+02  0.11038238298E+02  0.14545183172E+02  0.25440458525E+02  0.00000000000E+00 0. -1.
<mgrwt>
<rscale>  0 0.14476328E+03</rscale>
<asrwt>0</asrwt>
<pdfrwt beam="1">  1        1 0.82798514E-01 0.16189498E+03</pdfrwt>
<pdfrwt beam="2">  1       -1 0.51138018E-02 0.16189498E+03</pdfrwt>
<totfact> 0.67446088E+03</totfact>
</mgrwt>
</event>
<event>
 8    1  0.8823691E-006  0.2163494E+03  0.7546771E-02  0.1140171E+00
          1   -1    0    0  501    0  0.00000000000E+00  0.00000000000E+00  0.10731009020E+04  0.10731009020E+04  0.00000000000E+00 0. -1.
         -1   -1    0    0    0  501 -0.00000000000E+00 -0.00000000000E+00 -0.43183673853E+02  0.43183673853E+02  0.00000000000E+00 0.  1.
         23    2    1    2    0    0 -0.32370613587E+02 -0.17359320691E+03  0.38676147981E+03  0.44316079988E+03  0.12499837670E+03 0.  0.
         23    2    1    2    0    0  0.32370613587E+02  0.17359320691E+03  0.64315574829E+03  0.67312377592E+03  0.90905682121E+02 0.  0.
          5    1    3    3  502    0 -0.48951986387E+02 -0.17073189173E+03  0.25824157579E+03  0.31345889250E+03  0.47000000000E+01 0.  1.
         -5    1    3    3    0  502  0.16581372800E+02 -0.28613151874E+01  0.12851990402E+03  0.12970190738E+03  0.47000000000E+01 0.  1.
        -11    1    4    4    0    0  0.39616165644E+02  0.14824786670E+03  0.61771328164E+03  0.63648768163E+03  0.00000000000E+00 0. -1.
         11    1    4    4    0    0 -0.72455520570E+01  0.25345340217E+02  0.25442466655E+02  0.36636094290E+02  0.00000000000E+00 0.  1.
<mgrwt>
<rscale>  0 0.21177150E+03</rscale>
<asrwt>0</asrwt>
<pdfrwt beam="1">  1        1 0.16509243E+00 0.21634938E+03</pdfrwt>
<pdfrwt beam="2">  1       -1 0.66436429E-02 0.21634938E+03</pdfrwt>
<totfact> 0.16147330E+03</totfact>
</mgrwt>
</event>
<event>
 8    1  0.8504141E-006  0.1519805E+03  0.7546771E-02  0.1206705E+00
          1   -1    0    0  501    0  0.00000000000E+00  0.00000000000E+00  0.17704846039E+03  0.17704846039E+03  0.00000000000E+00 0. -1.
         -1   -1    0    0    0  501 -0.00000000000E+00 -0.00000000000E+00 -0.13217214559E+03  0.13217214559E+03  0.00000000000E+00 0.  1.
         23    2    1    2    0    0 -0.70965008207E+02 -0.49358823661E+02 -0.40116625449E+02  0.15718594160E+03  0.12500300291E+03 0.  0.
         23    2    1    2    0    0  0.70965008207E+02  0.49358823661E+02  0.84992940250E+02  0.15203466437E+03  0.91751912321E+02 0.  0.
          5    1    3    3  502    0 -0.87222799921E+02  0.87178226872E+01 -0.66047474013E+01  0.88031414545E+02  0.47000000000E+01 0.  1.
         -5    1    3    3    0  502  0.16257791714E+02 -0.58076646348E+02 -0.33511878048E+02  0.69154527059E+02  0.47000000000E+01 0.  1.
        -11    1    4    4    0    0  0.29831187810E+02  0.14896309947E+02  0.92056697224E+02  0.97909321926E+02  0.00000000000E+00 0.  1.
         11    1    4    4    0    0  0.41133820397E+02  0.34462513714E+02 -0.70637569750E+01  0.54125342443E+02  0.00000000000E+00 0. -1.
<mgrwt>
<rscale>  0 0.14503872E+03</rscale>
<asrwt>0</asrwt>
<pdfrwt beam="1">  1        1 0.27238225E-01 0.15198051E+03</pdfrwt>
<pdfrwt beam="2">  1       -1 0.20334176E-01 0.15198051E+03</pdfrwt>
<totfact> 0.32633518E+03</totfact>
</mgrwt>
</event>
<event>
 8    1  0.8504141E-006  0.1279497E+03  0.7546771E-02  0.1243506E+00
          2   -1    0    0  501    0  0.00000000000E+00  0.00000000000E+00  0.17191201876E+03  0.17191201876E+03  0.00000000000E+00 0. -1.
         -2   -1    0    0    0  501 -0.00000000000E+00 -0.00000000000E+00 -0.74432528202E+02  0.74432528202E+02  0.00000000000E+00 0.  1.
         23    2    1    2    0    0  0.14216978612E+02  0.23345473521E+02  0.58915663345E+02  0.14086228759E+03  0.12499598018E+03 0.  0.
         23    2    1    2    0    0 -0.14216978612E+02 -0.23345473521E+02  0.38563827218E+02  0.10548225938E+03  0.94298487049E+02 0.  0.
          5    1    3    3  502    0  0.31592654744E+01  0.70018521280E+02  0.79136997364E+01  0.70691519463E+02  0.47000000000E+01 0.  1.
         -5    1    3    3    0  502  0.11057713138E+02 -0.46673047758E+02  0.51001963609E+02  0.70170768122E+02  0.47000000000E+01 0.  1.
        -11    1    4    4    0    0 -0.15563816938E+02  0.95087122427E+01 -0.26739682889E+02  0.32367555471E+02  0.00000000000E+00 0.  1.
         11    1    4    4    0    0  0.13468383253E+01 -0.32854185764E+02  0.65303510107E+02  0.73114703911E+02  0.00000000000E+00 0. -1.
<mgrwt>
<rscale>  0 0.11975272E+03</rscale>
<asrwt>0</asrwt>
<pdfrwt beam="1">  1        2 0.26448003E-01 0.12794971E+03</pdfrwt>
<pdfrwt beam="2">  1       -2 0.11451158E-01 0.12794971E+03</pdfrwt>
<totfact> 0.10095153E+04</totfact>
</mgrwt>
</event>
<event>
 8    1  0.8504141E-006  0.2617397E+03  0.7546771E-02  0.1108393E+00
          2   -1    0    0  501    0  0.00000000000E+00  0.00000000000E+00  0.58550036430E+03  0.58550036430E+03  0.00000000000E+00 0. -1.
         -2   -1    0    0    0  501 -0.00000000000E+00 -0.00000000000E+00 -0.11621249685E+03  0.11621249685E+03  0.00000000000E+00 0.  1.
         23    2    1    2    0    0  0.55407203655E+02  0.22319336984E+03  0.16300816243E+03  0.30834937054E+03  0.12498973853E+03 0.  0.
         23    2    1    2    0    0 -0.55407203655E+02 -0.22319336984E+03  0.30627970502E+03  0.39336349061E+03  0.89679091639E+02 0.  0.
          5    1    3    3  502    0 -0.17954341230E+02  0.85678021698E+01 -0.10272271392E+02  0.22877394138E+02  0.47000000000E+01 0.  1.
         -5    1    3    3    0  502  0.73361544884E+02  0.21462556767E+03  0.17328043382E+03  0.28547197640E+03  0.47000000000E+01 0.  1.
        -11    1    4    4    0    0 -0.53946939438E+02 -0.56142760437E+02  0.12104556765E+03  0.14392467222E+03  0.00000000000E+00 0.  1.
         11    1    4    4    0    0 -0.14602642163E+01 -0.16705060940E+03  0.18523413737E+03  0.24943881839E+03  0.00000000000E+00 0. -1.
<mgrwt>
<rscale>  0 0.25793124E+03</rscale>
<asrwt>0</asrwt>
<pdfrwt beam="1">  1        2 0.90076978E-01 0.26173971E+03</pdfrwt>
<pdfrwt beam="2">  1       -2 0.17878846E-01 0.26173971E+03</pdfrwt>
<totfact> 0.13228352E+03</totfact>
</mgrwt>
</event>
<event>
 8    1  0.8504141E-006  0.1632843E+03  0.7546771E-02  0.1191722E+00
         -1   -1    0    0    0  501 -0.00000000000E+00  0.00000000000E+00  0.59460418609E+03  0.59460418609E+03  0.00000000000E+00 0.  1.
          1   -1    0    0  501    0  0.00000000000E+00 -0.00000000000E+00 -0.39527356778E+02  0.39527356778E+02  0.00000000000E+00 0. -1.
         23    2    1    2    0    0  0.44094689314E+02 -0.95355715117E+02  0.33817650765E+03  0.37553309690E+03  0.12499881003E+03 0.  0.
         23    2    1    2    0    0 -0.44094689314E+02  0.95355715117E+02  0.21690032166E+03  0.25859844597E+03  0.93756880762E+02 0.  0.
          5    1    3    3  502    0  0.28488781821E+02 -0.69816743528E+02  0.33683805818E+03  0.34520712016E+03  0.47000000000E+01 0. -1.
         -5    1    3    3    0  502  0.15605907493E+02 -0.25538971588E+02  0.13384494703E+01  0.30325976744E+02  0.47000000000E+01 0. -1.
        -11    1    4    4    0    0 -0.64665990283E+01 -0.15663757568E+02  0.73129515840E+01  0.18456691605E+02  0.00000000000E+00 0. -1.
         11    1    4    4    0    0 -0.37628090286E+02  0.11101947268E+03  0.20958737007E+03  0.24014175436E+03  0.00000000000E+00 0.  1.
<mgrwt>
<rscale>  0 0.15734992E+03</rscale>
<asrwt>0</asrwt>
<pdfrwt beam="2">  1        1 0.60811323E-02 0.16328428E+03</pdfrwt>
<pdfrwt beam="1">  1       -1 0.91477561E-01 0.16328428E+03</pdfrwt>
<totfact> 0.15292641E+03</totfact>
</mgrwt>
</event>
<event>
 7    1  0.8504141E-006  0.1482612E+03  0.7546771E-02  0.1215201E+00
          2   -1    0    0  501    0  0.00000000000E+00  0.00000000000E+00  0.39703898837E+03  0.39703898837E+03  0.00000000000E+00 0. -1.
         -2   -1    0    0    0  501 -0.00000000000E+00 -0.00000000000E+00 -0.45824627093E+02  0.45824627093E+02  0.00000000000E+00 0.  1.
         23    2    1    2    0    0 -0.17954440934E+02  0.50474940017E+02  0.20732073084E+03  0.23625586324E+03  0.99824175223E+02 0.  0.
          5    1    1    2  502    0  0.22610402288E+02 -0.11061342356E+02  0.16108109849E+03  0.16310362926E+03  0.47000000000E+01 0. -1.
         -5    1    1    2    0  502 -0.46559613540E+01 -0.39413597661E+02 -0.17187468057E+02  0.43504122964E+02  0.47000000000E+01 0.  1.
        -11    1    3    3    0    0 -0.19142895251E+02  0.78225173097E+02  0.11914969890E+03  0.14381334741E+03  0.00000000000E+00 0. -1.
         11    1    3    3    0    0  0.11884543162E+01 -0.27750233080E+02  0.88171031937E+02  0.92442515827E+02  0.00000000000E+00 0.  1.
<mgrwt>
<rscale>  0 0.13861809E+03</rscale>
<asrwt>0</asrwt>
<pdfrwt beam="1">  1        2 0.61082919E-01 0.14826121E+03</pdfrwt>
<pdfrwt beam="2">  1       -2 0.70499429E-02 0.14826121E+03</pdfrwt>
<totfact> 0.88776037E+03</totfact>
</mgrwt>
</event>
<event>
 8    1  0.1134916E-005  0.1504401E+03  0.7546771E-02  0.1208960E+00
         -1   -1    0    0    0  501 -0.00000000000E+00  0.00000000000E+00  0.57337435297E+02  0.57337435297E+02  0.00000000000E+00 0.  1.
          1   -1    0    0  501    0  0.00000000000E+00 -0.00000000000E+00 -0.33022792122E+03  0.33022792122E+03  0.00000000000E+00 0. -1.
         23    2    1    2    0    0  0.14353458396E+02  0.82469369748E+02 -0.13379068140E+03  0.20132606373E+03  0.12500007516E+03 0.  0.
         23    2    1    2    0    0 -0.14353458396E+02 -0.82469369748E+02 -0.13909980452E+03  0.18623929279E+03  0.91263902218E+02 0.  0.
          5    1    3    3  502    0  0.66533388587E+02  0.26224807150E+02 -0.80574415849E+02  0.10783672286E+03  0.47000000000E+01 0.  1.
         -5    1    3    3    0  502 -0.52179930191E+02  0.56244562598E+02 -0.53216265555E+02  0.93489340870E+02  0.47000000000E+01 0.  1.
        -11    1    4    4    0    0 -0.26302551361E+02  0.26325734088E+01 -0.49032803046E+01  0.26884880670E+02  0.00000000000E+00 0.  1.
         11    1    4    4    0    0  0.11949092966E+02 -0.85101943157E+02 -0.13419652422E+03  0.15935441212E+03  0.00000000000E+00 0. -1.
<mgrwt>
<rscale>  0 0.14329728E+03</rscale>
<asrwt>0</asrwt>
<pdfrwt beam="2">  1        1 0.50804296E-01 0.15044015E+03</pdfrwt>
<pdfrwt beam="1">  1       -1 0.88211439E-02 0.15044015E+03</pdfrwt>
<totfact> 0.55323497E+03</totfact>
</mgrwt>
</event>
<event>
 7    1  0.8504141E-006  0.3494483E+03  0.7546771E-02  0.1084865E+00
          1   -1    0    0  501    0  0.00000000000E+00  0.00000000000E+00  0.45778828601E+03  0.45778828601E+03  0.00000000000E+00 0. -1.
         -1   -1    0    0    0  501 -0.00000000000E+00 -0.00000000000E+00 -0.20753870175E+03  0.20753870175E+03  0.00000000000E+00 0.  1.
         23    2    1    2    0    0 -0.44031417844E+02  0.16239127627E+03  0.25103565173E+03  0.31587780816E+03  0.91924963323E+02 0.  0.
          5    1    1    2  502    0  0.16096103941E+03 -0.15923871042E+02  0.48590314552E+01  0.16188800469E+03  0.47000000000E+01 0. -1.
         -5    1    1    2    0  502 -0.11692962156E+03 -0.14646740522E+03 -0.56450989349E+01  0.18756117491E+03  0.47000000000E+01 0.  1.
        -11    1    3    3    0    0 -0.17772342198E+02  0.15177139469E+03  0.16313037898E+03  0.22352166101E+03  0.00000000000E+00 0. -1.
         11    1    3    3    0    0 -0.26259075645E+02  0.10619881571E+02  0.87905272753E+02  0.92356147149E+02  0.00000000000E+00 0.  1.
<mgrwt>
<rscale>  0 0.30075231E+03</rscale>
<asrwt>0</asrwt>
<pdfrwt beam="1">  1        1 0.70428967E-01 0.34944830E+03</pdfrwt>
<pdfrwt beam="2">  1       -1 0.31929031E-01 0.34944830E+03</pdfrwt>
<totfact> 0.46697845E+02</totfact>
</mgrwt>
</event>
<event>
 8    1  0.8504141E-006  0.1605995E+03  0.7546771E-02  0.1194803E+00
         -1   -1    0    0    0  501 -0.00000000000E+00  0.00000000000E+00  0.67921525158E+02  0.67921525158E+02  0.00000000000E+00 0.  1.
          1   -1    0    0  501    0  0.00000000000E+00 -0.00000000000E+00 -0.33102911453E+03  0.33102911453E+03  0.00000000000E+00 0. -1.
         23    2    1    2    0    0 -0.30036877598E+02 -0.96261123432E+02 -0.12514555818E+03  0.20360157123E+03  0.12499508460E+03 0.  0.
         23    2    1    2    0    0  0.30036877598E+02  0.96261123432E+02 -0.13796203119E+03  0.19534906846E+03  0.94653677143E+02 0.  0.
          5    1    3    3  502    0  0.22850286324E+02 -0.13456631184E+02 -0.97894212701E+02  0.10153119416E+03  0.47000000000E+01 0. -1.
         -5    1    3    3    0  502 -0.52887163922E+02 -0.82804492248E+02 -0.27251345480E+02  0.10207037707E+03  0.47000000000E+01 0. -1.
        -11    1    4    4    0    0  0.48691656983E+02  0.98178720988E+01 -0.54693824478E+02  0.73882897265E+02  0.00000000000E+00 0. -1.
         11    1    4    4    0    0 -0.18654779384E+02  0.86443251334E+02 -0.83268206712E+02  0.12146617119E+03  0.00000000000E+00 0.  1.
<mgrwt>
<rscale>  0 0.15470916E+03</rscale>
<asrwt>0</asrwt>
<pdfrwt beam="2">  1        1 0.50927555E-01 0.16059947E+03</pdfrwt>
<pdfrwt beam="1">  1       -1 0.10449466E-01 0.16059947E+03</pdfrwt>
<totfact> 0.42726693E+03</totfact>
</mgrwt>
</event>
<event>
 8    1  0.8504141E-006  0.2025298E+03  0.7546771E-02  0.1151655E+00
          1   -1    0    0  501    0  0.00000000000E+00  0.00000000000E+00  0.13221749331E+03  0.13221749331E+03  0.00000000000E+00 0. -1.
         -1   -1    0    0    0  501 -0.00000000000E+00 -0.00000000000E+00 -0.28805445645E+03  0.28805445645E+03  0.00000000000E+00 0.  1.
         23    2    1    2    0    0 -0.18242859663E+02  0.15830078230E+03 -0.11047899942E+03  0.23070315378E+03  0.12500558485E+03 0.  0.
         23    2    1    2    0    0  0.18242859663E+02 -0.15830078230E+03 -0.45357963722E+02  0.18956879598E+03  0.92125153615E+02 0.  0.
          5    1    3    3  502    0 -0.70038391419E+02  0.74761537314E+02 -0.70706961161E+02  0.12456415251E+03  0.47000000000E+01 0.  1.
         -5    1    3    3    0  502  0.51795531755E+02  0.83539244989E+02 -0.39772038264E+02  0.10613900127E+03  0.47000000000E+01 0.  1.
        -11    1    4    4    0    0  0.17202985464E+02 -0.12973279683E+03  0.57657667681E+01  0.13099536385E+03  0.00000000000E+00 0. -1.
         11    1    4    4    0    0  0.10398741994E+01 -0.28567985469E+02 -0.51123730490E+02  0.58573432129E+02  0.00000000000E+00 0.  1.
<mgrwt>
<rscale>  0 0.19774616E+03</rscale>
<asrwt>0</asrwt>
<pdfrwt beam="1">  1        1 0.20341153E-01 0.20252984E+03</pdfrwt>
<pdfrwt beam="2">  1       -1 0.44316070E-01 0.20252984E+03</pdfrwt>
<totfact> 0.12735928E+03</totfact>
</mgrwt>
</event>
<event>
 8    1  0.8504141E-006  0.1452147E+03  0.7546771E-02  0.1217527E+00
          1   -1    0    0  501    0  0.00000000000E+00  0.00000000000E+00  0.11210107425E+03  0.11210107425E+03  0.00000000000E+00 0. -1.
         -1   -1    0    0    0  501 -0.00000000000E+00 -0.00000000000E+00 -0.30070520084E+03  0.30070520084E+03  0.00000000000E+00 0.  1.
         23    2    1    2    0    0  0.57692668533E+02 -0.46190243710E+02 -0.24508349289E+03  0.28487405797E+03  0.12500131119E+03 0.  0.
         23    2    1    2    0    0 -0.57692668533E+02  0.46190243710E+02  0.56479366298E+02  0.12793221713E+03  0.87833653829E+02 0.  0.
          5    1    3    3  502    0  0.95572558012E+02 -0.20168529167E+02 -0.18298977675E+03  0.20748067816E+03  0.47000000000E+01 0.  1.
         -5    1    3    3    0  502 -0.37879889478E+02 -0.26021714543E+02 -0.62093716139E+02  0.77393379811E+02  0.47000000000E+01 0.  1.
        -11    1    4    4    0    0 -0.39021632492E+02  0.37663910362E+00 -0.14313770915E+02  0.41565775551E+02  0.00000000000E+00 0.  1.
         11    1    4    4    0    0 -0.18671036042E+02  0.45813604606E+02  0.70793137213E+02  0.86366441575E+02  0.00000000000E+00 0. -1.
<mgrwt>
<rscale>  0 0.13692537E+03</rscale>
<asrwt>0</asrwt>
<pdfrwt beam="1">  1        1 0.17246319E-01 0.14521470E+03</pdfrwt>
<pdfrwt beam="2">  1       -1 0.46262338E-01 0.14521470E+03</pdfrwt>
<totfact> 0.14446790E+03</totfact>
</mgrwt>
</event>
<event>
 7    1  0.8504141E-006  0.1975391E+03  0.7546771E-02  0.1172812E+00
         -1   -1    0    0    0  501 -0.00000000000E+00  0.00000000000E+00  0.88296422160E+02  0.88296422160E+02  0.00000000000E+00 0.  1.
          1   -1    0    0  501    0  0.00000000000E+00 -0.00000000000E+00 -0.48037828640E+03  0.48037828640E+03  0.00000000000E+00 0. -1.
         23    2    1    2    0    0  0.74559976167E+02  0.25424882469E+02 -0.34478761630E+03  0.36555300843E+03  0.92438557578E+02 0.  0.
          5    1    1    2  502    0 -0.41877341873E+01  0.72200994816E+02 -0.39238517624E+02  0.82415241524E+02  0.47000000000E+01 0. -1.
         -5    1    1    2    0  502 -0.70372241980E+02 -0.97625877285E+02 -0.80557303149E+01  0.12070645860E+03  0.47000000000E+01 0.  1.
        -11    1    3    3    0    0 -0.11426945490E+02 -0.14746287746E+02 -0.20753301730E+02  0.27905691502E+02  0.00000000000E+00 0.  1.
         11    1    3    3    0    0  0.85986921657E+02  0.40171170215E+02 -0.32403431457E+03  0.33764731693E+03  0.00000000000E+00 0. -1.
<mgrwt>
<rscale>  0 0.17492045E+03</rscale>
<asrwt>0</asrwt>
<pdfrwt beam="2">  1        1 0.73904352E-01 0.19753906E+03</pdfrwt>
<pdfrwt beam="1">  1       -1 0.13584065E-01 0.19753906E+03</pdfrwt>
<totfact> 0.17810663E+03</totfact>
</mgrwt>
</event>
<event>
 8    1  0.8504141E-006  0.1805884E+03  0.7546771E-02  0.1173592E+00
          2   -1    0    0  501    0  0.00000000000E+00  0.00000000000E+00  0.26431051234E+03  0.26431051234E+03  0.00000000000E+00 0. -1.
         -2   -1    0    0    0  501 -0.00000000000E+00 -0.00000000000E+00 -0.10865220640E+03  0.10865220640E+03  0.00000000000E+00 0.  1.
         23    2    1    2    0    0  0.37177980113E+02 -0.12492209612E+03  0.62373131261E+02  0.19105652035E+03  0.12499781662E+03 0.  0.
         23    2    1    2    0    0 -0.37177980113E+02  0.12492209612E+03  0.93285174683E+02  0.18190619840E+03  0.86023304373E+02 0.  0.
          5    1    3    3  502    0 -0.31090230461E+01 -0.50004776232E+02 -0.35286600274E+02  0.61460376090E+02  0.47000000000E+01 0.  1.
         -5    1    3    3    0  502  0.40287003159E+02 -0.74917319889E+02  0.97659731535E+02  0.12959614426E+03  0.47000000000E+01 0.  1.
        -11    1    4    4    0    0  0.17396688215E+02  0.16288955102E+02  0.45340542531E+02  0.51222452266E+02  0.00000000000E+00 0. -1.
         11    1    4    4    0    0 -0.54574668327E+02  0.10863314102E+03  0.47944632152E+02  0.13068374613E+03  0.00000000000E+00 0.  1.
<mgrwt>
<rscale>  0 0.17414617E+03</rscale>
<asrwt>0</asrwt>
<pdfrwt beam="1">  1        2 0.40663156E-01 0.18058844E+03</pdfrwt>
<pdfrwt beam="2">  1       -2 0.16715724E-01 0.18058844E+03</pdfrwt>
<totfact> 0.35045140E+03</totfact>
</mgrwt>
</event>
<event>
 8    1  0.8504141E-006  0.1272176E+03  0.7546771E-02  0.1247445E+00
          4   -1    0    0  501    0  0.00000000000E+00  0.00000000000E+00  0.23859796886E+02  0.23859796886E+02  0.00000000000E+00 0.  1.
         -4   -1    0    0    0  501 -0.00000000000E+00 -0.00000000000E+00 -0.50749449072E+03  0.50749449072E+03  0.00000000000E+00 0. -1.
         23    2    1    2    0    0 -0.23508766153E+02 -0.26728886745E+01 -0.29930483615E+03  0.32521945339E+03  0.12499800597E+03 0.  0.
         23    2    1    2    0    0  0.23508766153E+02  0.26728886745E+01 -0.18432985768E+03  0.20613483422E+03  0.89186697587E+02 0.  0.
          5    1    3    3  502    0 -0.60066913329E+02  0.38840723898E+02 -0.17132119804E+03  0.18571397042E+03  0.47000000000E+01 0.  1.
         -5    1    3    3    0  502  0.36558147176E+02 -0.41513612573E+02 -0.12798363811E+03  0.13950548297E+03  0.47000000000E+01 0.  1.
        -11    1    4    4    0    0  0.41236745809E+01 -0.26995542952E+02 -0.11369456014E+02  0.29580881687E+02  0.00000000000E+00 0.  1.
         11    1    4    4    0    0  0.19385091572E+02  0.29668431627E+02 -0.17296040167E+03  0.17655395253E+03  0.00000000000E+00 0. -1.
<mgrwt>
<rscale>  0 0.11740253E+03</rscale>
<asrwt>0</asrwt>
<pdfrwt beam="1">  1        4 0.36707380E-02 0.12721756E+03</pdfrwt>
<pdfrwt beam="2">  1       -4 0.78076074E-01 0.12721756E+03</pdfrwt>
<totfact> 0.95975195E+02</totfact>
</mgrwt>
</event>
<event>
 8    1  0.8504141E-006  0.1473992E+03  0.7546771E-02  0.1215473E+00
          2   -1    0    0  501    0  0.00000000000E+00  0.00000000000E+00  0.15875266665E+03  0.15875266665E+03  0.00000000000E+00 0.  1.
         -2   -1    0    0    0  501 -0.00000000000E+00 -0.00000000000E+00 -0.11467057718E+03  0.11467057718E+03  0.00000000000E+00 0. -1.
         23    2    1    2    0    0 -0.78045893179E+02  0.38543398392E+01 -0.77907350858E+01  0.14760489742E+03  0.12498196994E+03 0.  0.
         23    2    1    2    0    0  0.78045893179E+02 -0.38543398392E+01  0.51872824564E+02  0.12581834641E+03  0.83865660363E+02 0.  0.
          5    1    3    3  502    0 -0.10672788664E+03  0.24353834074E+02  0.53141885958E+01  0.10970087339E+03  0.47000000000E+01 0. -1.
         -5    1    3    3    0  502  0.28681993465E+02 -0.20499494235E+02 -0.13104923682E+02  0.37904024031E+02  0.47000000000E+01 0. -1.
        -11    1    4    4    0    0 -0.86188841057E+01  0.99083986633E+01 -0.11596656380E+02  0.17519816394E+02  0.00000000000E+00 0. -1.
         11    1    4    4    0    0  0.86664777285E+02 -0.13762738503E+02  0.63469480944E+02  0.10829853002E+03  0.00000000000E+00 0.  1.
<mgrwt>
<rscale>  0 0.13841828E+03</rscale>
<asrwt>0</asrwt>
<pdfrwt beam="1">  1        2 0.24423487E-01 0.14739915E+03</pdfrwt>
<pdfrwt beam="2">  1       -2 0.17641627E-01 0.14739915E+03</pdfrwt>
<totfact> 0.55140993E+03</totfact>
</mgrwt>
</event>
<event>
 8    1  0.8504141E-006  0.1660751E+03  0.7546771E-02  0.1188385E+00
         -3   -1    0    0    0  501 -0.00000000000E+00  0.00000000000E+00  0.12590909586E+03  0.12590909586E+03  0.00000000000E+00 0.  1.
          3   -1    0    0  501    0  0.00000000000E+00 -0.00000000000E+00 -0.19686770200E+03  0.19686770200E+03  0.00000000000E+00 0. -1.
         23    2    1    2    0    0 -0.56844106998E+02 -0.93386319967E+02 -0.10097772284E+02  0.16638179083E+03  0.12501471136E+03 0.  0.
         23    2    1    2    0    0  0.56844106998E+02  0.93386319967E+02 -0.60860833855E+02  0.15639500703E+03  0.93824836091E+02 0.  0.
          5    1    3    3  502    0 -0.34215394850E+02 -0.98831872610E+02  0.39098451113E+02  0.11175513934E+03  0.47000000000E+01 0. -1.
         -5    1    3    3    0  502 -0.22628712148E+02  0.54455526431E+01 -0.49196223397E+02  0.54626651495E+02  0.47000000000E+01 0. -1.
        -11    1    4    4    0    0  0.46832418137E+02  0.11008707648E+03 -0.65481110374E+02  0.13638260744E+03  0.00000000000E+00 0. -1.
         11    1    4    4    0    0  0.10011688861E+02 -0.16700756514E+02  0.46202765196E+01  0.20012399584E+02  0.00000000000E+00 0.  1.
<mgrwt>
<rscale>  0 0.16027643E+03</rscale>
<asrwt>0</asrwt>
<pdfrwt beam="2">  1        3 0.30287339E-01 0.16607509E+03</pdfrwt>
<pdfrwt beam="1">  1       -3 0.19370630E-01 0.16607509E+03</pdfrwt>
<totfact> 0.59696595E+02</totfact>
</mgrwt>
</event>
<event>
 8    1  0.8504141E-006  0.1889067E+03  0.7546771E-02  0.1163823E+00
          4   -1    0    0  501    0  0.00000000000E+00  0.00000000000E+00  0.15114510655E+03  0.15114510655E+03  0.00000000000E+00 0. -1.
         -4   -1    0    0    0  501 -0.00000000000E+00 -0.00000000000E+00 -0.24812102268E+03  0.24812102268E+03  0.00000000000E+00 0.  1.
         23    2    1    2    0    0 -0.84141259414E+02  0.11393207299E+03 -0.12469566086E+03  0.22635095697E+03  0.12500191635E+03 0.  0.
         23    2    1    2    0    0  0.84141259414E+02 -0.11393207299E+03  0.27719744731E+02  0.17291517226E+03  0.95241817282E+02 0.  0.
          5    1    3    3  502    0 -0.42168020492E+02  0.13513936275E+03 -0.93010924070E+02  0.16945179643E+03  0.47000000000E+01 0. -1.
         -5    1    3    3    0  502 -0.41973238922E+02 -0.21207289758E+02 -0.31684736793E+02  0.56899160540E+02  0.47000000000E+01 0. -1.
        -11    1    4    4    0    0 -0.11110677071E+02 -0.54821961038E+02 -0.49344167833E+01  0.56153744542E+02  0.00000000000E+00 0.  1.
         11    1    4    4    0    0  0.95251936485E+02 -0.59110111950E+02  0.32654161514E+02  0.11676142772E+03  0.00000000000E+00 0. -1.
<mgrwt>
<rscale>  0 0.18417492E+03</rscale>
<asrwt>0</asrwt>
<pdfrwt beam="1">  1        4 0.23253093E-01 0.18890672E+03</pdfrwt>
<pdfrwt beam="2">  1       -4 0.38172465E-01 0.18890672E+03</pdfrwt>
<totfact> 0.20144510E+02</totfact>
</mgrwt>
</event>
<event>
 8    1  0.8504141E-006  0.1286894E+03  0.7546771E-02  0.1243900E+00
         -2   -1    0    0    0  501 -0.00000000000E+00  0.00000000000E+00  0.48602563192E+02  0.48602563192E+02  0.00000000000E+00 0.  1.
          2   -1    0    0  501    0  0.00000000000E+00 -0.00000000000E+00 -0.26304424923E+03  0.26304424923E+03  0.00000000000E+00 0. -1.
         23    2    1    2    0    0 -0.12814037582E+02  0.27761671787E+02 -0.10376428316E+03  0.16531180852E+03  0.12500423031E+03 0.  0.
         23    2    1    2    0    0  0.12814037582E+02 -0.27761671787E+02 -0.11067740287E+03  0.14633500390E+03  0.90716789404E+02 0.  0.
          5    1    3    3  502    0 -0.17619535510E+02  0.48646131708E+02 -0.12463612651E+03  0.13503017512E+03  0.47000000000E+01 0. -1.
         -5    1    3    3    0  502  0.48054979282E+01 -0.20884459921E+02  0.20871843348E+02  0.30281633399E+02  0.47000000000E+01 0. -1.
        -11    1    4    4    0    0 -0.53113215147E+01 -0.32682062403E+02 -0.12062156384E+03  0.12508352810E+03  0.00000000000E+00 0. -1.
         11    1    4    4    0    0  0.18125359097E+02  0.49203906163E+01  0.99441609669E+01  0.21251475797E+02  0.00000000000E+00 0.  1.
<mgrwt>
<rscale>  0 0.11951445E+03</rscale>
<asrwt>0</asrwt>
<pdfrwt beam="2">  1        2 0.40468347E-01 0.12868942E+03</pdfrwt>
<pdfrwt beam="1">  1       -2 0.74773173E-02 0.12868942E+03</pdfrwt>
<totfact> 0.12429129E+04</totfact>
</mgrwt>
</event>
<event>
 8    1  0.8504141E-006  0.1347726E+03  0.7546771E-02  0.1233142E+00
          1   -1    0    0  501    0  0.00000000000E+00  0.00000000000E+00  0.40925497243E+02  0.40925497243E+02  0.00000000000E+00 0. -1.
         -1   -1    0    0    0  501 -0.00000000000E+00 -0.00000000000E+00 -0.34790979598E+03  0.34790979598E+03  0.00000000000E+00 0.  1.
         23    2    1    2    0    0 -0.14295061260E+02  0.48316447765E+02 -0.16723688866E+03  0.21478320156E+03  0.12499927537E+03 0.  0.
         23    2    1    2    0    0  0.14295061260E+02 -0.48316447765E+02 -0.13974741007E+03  0.17405209166E+03  0.90697100767E+02 0.  0.
          5    1    3    3  502    0 -0.48683893101E+02 -0.39532690276E+01 -0.13622569664E+03  0.14479392324E+03  0.47000000000E+01 0. -1.
         -5    1    3    3    0  502  0.34388831841E+02  0.52269716792E+02 -0.31011192023E+02  0.69989278319E+02  0.47000000000E+01 0. -1.
        -11    1    4    4    0    0 -0.28602311901E+01 -0.24296363229E+02 -0.14233455264E+03  0.14442167103E+03  0.00000000000E+00 0.  1.
         11    1    4    4    0    0  0.17155292450E+02 -0.24020084536E+02  0.25871425616E+01  0.29630420631E+02  0.00000000000E+00 0. -1.
<mgrwt>
<rscale>  0 0.12624141E+03</rscale>
<asrwt>0</asrwt>
<pdfrwt beam="1">  1        1 0.62962304E-02 0.13477257E+03</pdfrwt>
<pdfrwt beam="2">  1       -1 0.53524584E-01 0.13477257E+03</pdfrwt>
<totfact> 0.41831386E+03</totfact>
</mgrwt>
</event>
<event>
 8    1  0.8504141E-006  0.1451495E+03  0.7546771E-02  0.1216449E+00
         -2   -1    0    0    0  501 -0.00000000000E+00  0.00000000000E+00  0.15198707315E+03  0.15198707315E+03  0.00000000000E+00 0.  1.
          2   -1    0    0  501    0  0.00000000000E+00 -0.00000000000E+00 -0.22528957673E+03  0.22528957673E+03  0.00000000000E+00 0. -1.
         23    2    1    2    0    0  0.22877077590E+02  0.70137849770E+02  0.93893077923E+02  0.17287075167E+03  0.12500283218E+03 0.  0.
         23    2    1    2    0    0 -0.22877077590E+02 -0.70137849770E+02 -0.16719558150E+03  0.20440589821E+03  0.91568171869E+02 0.  0.
          5    1    3    3  502    0  0.25637137150E+02  0.10121631027E+03  0.43059573277E+02  0.11304079404E+03  0.47000000000E+01 0.  1.
         -5    1    3    3    0  502 -0.27600595596E+01 -0.31078460502E+02  0.50833504646E+02  0.59829957634E+02  0.47000000000E+01 0.  1.
        -11    1    4    4    0    0  0.21833017129E+02 -0.55950612976E+02 -0.49918926496E+02  0.78096420864E+02  0.00000000000E+00 0. -1.
         11    1    4    4    0    0 -0.44710094720E+02 -0.14187236794E+02 -0.11727665501E+03  0.12630947735E+03  0.00000000000E+00 0.  1.
<mgrwt>
<rscale>  0 0.13770647E+03</rscale>
<asrwt>0</asrwt>
<pdfrwt beam="2">  1        2 0.34659935E-01 0.14514953E+03</pdfrwt>
<pdfrwt beam="1">  1       -2 0.23382627E-01 0.14514953E+03</pdfrwt>
<totfact> 0.23314530E+03</totfact>
</mgrwt>
</event>
<event>
 8    1  0.8504141E-006  0.1350216E+03  0.7546771E-02  0.1232044E+00
         -2   -1    0    0    0  501 -0.00000000000E+00  0.00000000000E+00  0.22894193284E+02  0.22894193284E+02  0.00000000000E+00 0.  1.
          2   -1    0    0  501    0  0.00000000000E+00 -0.00000000000E+00 -0.63279937096E+03  0.63279937096E+03  0.00000000000E+00 0. -1.
         23    2    1    2    0    0  0.39417966780E+02 -0.32429675513E+02 -0.35452600395E+03  0.37936727303E+03  0.12500152163E+03 0.  0.
         23    2    1    2    0    0 -0.39417966780E+02  0.32429675513E+02 -0.25537917372E+03  0.27632629121E+03  0.92370108183E+02 0.  0.
          5    1    3    3  502    0  0.32612611802E+01  0.45944329889E+02 -0.92295271960E+02  0.10325707966E+03  0.47000000000E+01 0.  1.
         -5    1    3    3    0  502  0.36156705600E+02 -0.78374005402E+02 -0.26223073199E+03  0.27611019337E+03  0.47000000000E+01 0.  1.
        -11    1    4    4    0    0 -0.52378781799E+02  0.39122859468E+02 -0.25328904150E+03  0.26159027784E+03  0.00000000000E+00 0. -1.
         11    1    4    4    0    0  0.12960815019E+02 -0.66931839551E+01 -0.20901322193E+01  0.14736013372E+02  0.00000000000E+00 0.  1.
<mgrwt>
<rscale>  0 0.12695562E+03</rscale>
<asrwt>0</asrwt>
<pdfrwt beam="2">  1        2 0.97353740E-01 0.13502163E+03</pdfrwt>
<pdfrwt beam="1">  1       -2 0.35221839E-02 0.13502163E+03</pdfrwt>
<totfact> 0.14968528E+04</totfact>
</mgrwt>
</event>
<event>
 8    1  0.8504141E-006  0.1647311E+03  0.7546771E-02  0.1190563E+00
          2   -1    0    0  501    0  0.00000000000E+00  0.00000000000E+00  0.11576014830E+04  0.11576014830E+04  0.00000000000E+00 0. -1.
         -2   -1    0    0    0  501 -0.00000000000E+00 -0.00000000000E+00 -0.21421667760E+02  0.21421667760E+02  0.00000000000E+00 0.  1.
         23    2    1    2    0    0 -0.46626596882E+02  0.96627947448E+02  0.46663153838E+03  0.49485485791E+03  0.12500135208E+03 0.  0.
         23    2    1    2    0    0  0.46626596882E+02 -0.96627947448E+02  0.66954827685E+03  0.68416829284E+03  0.90996473166E+02 0.  0.
          5    1    3    3  502    0 -0.50896050507E+02  0.84031583233E+02  0.47014064822E+03  0.48031867968E+03  0.47000000000E+01 0. -1.
         -5    1    3    3    0  502  0.42694536244E+01  0.12596364215E+02 -0.35091098418E+01  0.14536178231E+02  0.47000000000E+01 0. -1.
        -11    1    4    4    0    0  0.74007528040E+02 -0.62185519730E+02  0.45520497680E+03  0.46535548130E+03  0.00000000000E+00 0. -1.
         11    1    4    4    0    0 -0.27380931157E+02 -0.34442427719E+02  0.21434330005E+03  0.21881281154E+03  0.00000000000E+00 0.  1.
<mgrwt>
<rscale>  0 0.15835842E+03</rscale>
<asrwt>0</asrwt>
<pdfrwt beam="1">  1        2 0.17809249E+00 0.16473111E+03</pdfrwt>
<pdfrwt beam="2">  1       -2 0.32956421E-02 0.16473111E+03</pdfrwt>
<totfact> 0.76258106E+03</totfact>
</mgrwt>
</event>
<event>
 8    1  0.8504141E-006  0.1292488E+03  0.7546771E-02  0.1242132E+00
         -4   -1    0    0    0  501 -0.00000000000E+00  0.00000000000E+00  0.17703328717E+03  0.17703328717E+03  0.00000000000E+00 0.  1.
          4   -1    0    0  501    0  0.00000000000E+00 -0.00000000000E+00 -0.89646098697E+02  0.89646098697E+02  0.00000000000E+00 0. -1.
         23    2    1    2    0    0  0.29511663424E+02 -0.14597534754E+02  0.10580242993E+03  0.16703112398E+03  0.12498486269E+03 0.  0.
         23    2    1    2    0    0 -0.29511663424E+02  0.14597534754E+02 -0.18415241462E+02  0.99648261882E+02  0.92231386626E+02 0.  0.
          5    1    3    3  502    0  0.57617526613E+02  0.28731042025E+02  0.21474281624E+02  0.68032984060E+02  0.47000000000E+01 0.  1.
         -5    1    3    3    0  502 -0.28105863189E+02 -0.43328576779E+02  0.84328148309E+02  0.98998139925E+02  0.47000000000E+01 0.  1.
        -11    1    4    4    0    0  0.58077390164E+01  0.13139992266E+02 -0.50135631053E+02  0.52153338630E+02  0.00000000000E+00 0. -1.
         11    1    4    4    0    0 -0.35319402440E+02  0.14575424880E+01  0.31720389591E+02  0.47494923251E+02  0.00000000000E+00 0.  1.
<mgrwt>
<rscale>  0 0.12058709E+03</rscale>
<asrwt>0</asrwt>
<pdfrwt beam="2">  1        4 0.13791708E-01 0.12924876E+03</pdfrwt>
<pdfrwt beam="1">  1       -4 0.27235890E-01 0.12924876E+03</pdfrwt>
<totfact> 0.91129772E+02</totfact>
</mgrwt>
</event>
<event>
 8    1  0.8504141E-006  0.1271383E+03  0.7546771E-02  0.1240152E+00
          1   -1    0    0  501    0  0.00000000000E+00  0.00000000000E+00  0.65389002395E+02  0.65389002395E+02  0.00000000000E+00 0. -1.
         -1   -1    0    0    0  501 -0.00000000000E+00 -0.00000000000E+00 -0.36064553148E+03  0.36064553148E+03  0.00000000000E+00 0.  1.
         23    2    1    2    0    0  0.47179456379E+02 -0.22697169147E+02 -0.29245411537E+03  0.31889429188E+03  0.11585809080E+03 0.  0.
         23    2    1    2    0    0 -0.47179456379E+02  0.22697169147E+02 -0.28024137077E+01  0.10714024199E+03  0.93435086235E+02 0.  0.
          5    1    3    3  502    0  0.58492939928E+02 -0.46382368266E+01 -0.55388589454E+02  0.80826500011E+02  0.47000000000E+01 0. -1.
         -5    1    3    3    0  502 -0.11313483549E+02 -0.18058932321E+02 -0.23706552592E+03  0.23806779187E+03  0.47000000000E+01 0.  1.
        -11    1    4    4    0    0 -0.15545708315E+02 -0.45783982503E+01 -0.44961808389E+02  0.47793252570E+02  0.00000000000E+00 0.  1.
         11    1    4    4    0    0 -0.31633748064E+02  0.27275567398E+02  0.42159394681E+02  0.59346989421E+02  0.00000000000E+00 0. -1.
<mgrwt>
<rscale>  0 0.12180312E+03</rscale>
<asrwt>0</asrwt>
<pdfrwt beam="1">  1        1 0.10059847E-01 0.12713835E+03</pdfrwt>
<pdfrwt beam="2">  1       -1 0.55483928E-01 0.12713835E+03</pdfrwt>
<totfact> 0.20821477E+03</totfact>
</mgrwt>
</event>
<event>
 8    1  0.8504141E-006  0.1329167E+03  0.7546771E-02  0.1237437E+00
         -2   -1    0    0    0  501 -0.00000000000E+00  0.00000000000E+00  0.79923015864E+02  0.79923015864E+02  0.00000000000E+00 0.  1.
          2   -1    0    0  501    0  0.00000000000E+00 -0.00000000000E+00 -0.23401370021E+03  0.23401370021E+03  0.00000000000E+00 0. -1.
         23    2    1    2    0    0  0.40589734247E+02  0.19932503481E+02 -0.26094218790E+01  0.13294228502E+03  0.12498804280E+03 0.  0.
         23    2    1    2    0    0 -0.40589734247E+02 -0.19932503481E+02 -0.15148126246E+03  0.18099443105E+03  0.88133875290E+02 0.  0.
          5    1    3    3  502    0 -0.36877831419E+02  0.37120523690E+02  0.64799175118E+01  0.52933798845E+02  0.47000000000E+01 0. -1.
         -5    1    3    3    0  502  0.77467565667E+02 -0.17188020209E+02 -0.90893393909E+01  0.80008486172E+02  0.47000000000E+01 0. -1.
        -11    1    4    4    0    0 -0.55632030015E+02 -0.15471940360E+02 -0.15456997332E+03  0.16500357679E+03  0.00000000000E+00 0. -1.
         11    1    4    4    0    0  0.15042295768E+02 -0.44605631209E+01  0.30887108548E+01  0.15990854263E+02  0.00000000000E+00 0.  1.
<mgrwt>
<rscale>  0 0.12349704E+03</rscale>
<asrwt>0</asrwt>
<pdfrwt beam="2">  1        2 0.36002107E-01 0.13291667E+03</pdfrwt>
<pdfrwt beam="1">  1       -2 0.12295849E-01 0.13291667E+03</pdfrwt>
<totfact> 0.64781605E+03</totfact>
</mgrwt>
</event>
<event>
 8    1  0.8504141E-006  0.1418803E+03  0.7546771E-02  0.1222111E+00
         -1   -1    0    0    0  501 -0.00000000000E+00  0.00000000000E+00  0.25980744059E+02  0.25980744059E+02  0.00000000000E+00 0.  1.
          1   -1    0    0  501    0  0.00000000000E+00 -0.00000000000E+00 -0.63244023592E+03  0.63244023592E+03  0.00000000000E+00 0. -1.
         23    2    1    2    0    0  0.66474128879E+02  0.94701513701E+01 -0.29103450538E+03  0.32377633305E+03  0.12498614699E+03 0.  0.
         23    2    1    2    0    0 -0.66474128879E+02 -0.94701513701E+01 -0.31542498647E+03  0.33464464693E+03  0.89362318965E+02 0.  0.
          5    1    3    3  502    0 -0.11192229699E+02 -0.26370271532E+02 -0.11187961892E+02  0.31111376016E+02  0.47000000000E+01 0. -1.
         -5    1    3    3    0  502  0.77666358578E+02  0.35840422902E+02 -0.27984654349E+03  0.29266495703E+03  0.47000000000E+01 0. -1.
        -11    1    4    4    0    0 -0.13131154413E+02 -0.44990551255E+02 -0.15361082542E+03  0.16060156476E+03  0.00000000000E+00 0. -1.
         11    1    4    4    0    0 -0.53342974467E+02  0.35520399885E+02 -0.16181416105E+03  0.17404308217E+03  0.00000000000E+00 0.  1.
<mgrwt>
<rscale>  0 0.13366874E+03</rscale>
<asrwt>0</asrwt>
<pdfrwt beam="2">  1        1 0.97298500E-01 0.14188034E+03</pdfrwt>
<pdfrwt beam="1">  1       -1 0.39970375E-02 0.14188034E+03</pdfrwt>
<totfact> 0.77404003E+03</totfact>
</mgrwt>
</event>
<event>
 7    1  0.8504141E-006  0.1417620E+03  0.7546771E-02  0.1227170E+00
         -1   -1    0    0    0  501 -0.00000000000E+00  0.00000000000E+00  0.44639302891E+02  0.44639302891E+02  0.00000000000E+00 0.  1.
          1   -1    0    0  501    0  0.00000000000E+00 -0.00000000000E+00 -0.50908176136E+03  0.50908176136E+03  0.00000000000E+00 0. -1.
         23    2    1    2    0    0 -0.24773662138E+02  0.31416112748E+02 -0.36971447244E+03  0.38322225284E+03  0.92573200584E+02 0.  0.
          5    1    1    2  502    0 -0.44643958272E+02  0.31694616120E+01  0.36361135836E+01  0.45149084366E+02  0.47000000000E+01 0. -1.
         -5    1    1    2    0  502  0.69417620410E+02 -0.34585574360E+02 -0.98364099614E+02  0.12534972704E+03  0.47000000000E+01 0.  1.
        -11    1    3    3    0    0  0.29413371234E+02  0.35687654959E+02 -0.18339259760E+03  0.18913381500E+03  0.00000000000E+00 0.  1.
         11    1    3    3    0    0 -0.54187033372E+02 -0.42715422108E+01 -0.18632187484E+03  0.19408843784E+03  0.00000000000E+00 0. -1.
<mgrwt>
<rscale>  0 0.13019299E+03</rscale>
<asrwt>0</asrwt>
<pdfrwt beam="2">  1        1 0.78320269E-01 0.14176196E+03</pdfrwt>
<pdfrwt beam="1">  1       -1 0.68675853E-02 0.14176196E+03</pdfrwt>
<totfact> 0.46414102E+03</totfact>
</mgrwt>
</event>
<event>
 7    1  0.8504141E-006  0.5190033E+03  0.7546771E-02  0.1028237E+00
          2   -1    0    0  501    0  0.00000000000E+00  0.00000000000E+00  0.12623551993E+04  0.12623551993E+04  0.00000000000E+00 0. -1.
         -2   -1    0    0    0  501 -0.00000000000E+00 -0.00000000000E+00 -0.12135040121E+04  0.12135040121E+04  0.00000000000E+00 0.  1.
         23    2    1    2    0    0  0.19223222230E+03 -0.19569708851E+03  0.11887642170E+04  0.12233552526E+04  0.90482776542E+02 0.  0.
          5    1    1    2  502    0  0.37752380359E+02 -0.12072745281E+03 -0.24310738576E+03  0.27408694076E+03  0.47000000000E+01 0. -1.
         -5    1    1    2    0  502 -0.22998460265E+03  0.31642454132E+03 -0.89680564403E+03  0.97841701793E+03  0.47000000000E+01 0.  1.
        -11    1    3    3    0    0  0.10606398522E+03 -0.16129330994E+03  0.71562764727E+03  0.74120714401E+03  0.00000000000E+00 0. -1.
         11    1    3    3    0    0  0.86168237074E+02 -0.34403778571E+02  0.47313656970E+03  0.48214810862E+03  0.00000000000E+00 0.  1.
<mgrwt>
<rscale>  0 0.44827849E+03</rscale>
<asrwt>0</asrwt>
<pdfrwt beam="1">  1        2 0.19420849E+00 0.51900332E+03</pdfrwt>
<pdfrwt beam="2">  1       -2 0.18669293E+00 0.51900332E+03</pdfrwt>
<totfact> 0.30437366E+00</totfact>
</mgrwt>
</event>
<event>
 8    1  0.1112019E-005  0.2257359E+03  0.7546771E-02  0.1132422E+00
         -3   -1    0    0    0  501 -0.00000000000E+00  0.00000000000E+00  0.56230644235E+02  0.56230644235E+02  0.00000000000E+00 0.  1.
          3   -1    0    0  501    0  0.00000000000E+00 -0.00000000000E+00 -0.91560080543E+03  0.91560080543E+03  0.00000000000E+00 0. -1.
         23    2    1    2    0    0 -0.10666662225E+03 -0.15477103130E+03 -0.31130276783E+03  0.38453362374E+03  0.12499941640E+03 0.  0.
         23    2    1    2    0    0  0.10666662225E+03  0.15477103130E+03 -0.54806739337E+03  0.58729782593E+03  0.95963681843E+02 0.  0.
          5    1    3    3  502    0  0.88014736783E+01 -0.62886540509E+02 -0.16422175215E+03  0.17613363335E+03  0.47000000000E+01 0.  1.
         -5    1    3    3    0  502 -0.11546809592E+03 -0.91884490789E+02 -0.14708101567E+03  0.20839999039E+03  0.47000000000E+01 0.  1.
        -11    1    4    4    0    0  0.61937684407E+02  0.60700503343E+02 -0.12872785999E+03  0.15521497928E+03  0.00000000000E+00 0.  1.
         11    1    4    4    0    0  0.44728937839E+02  0.94070527955E+02 -0.41933953338E+03  0.43208284664E+03  0.00000000000E+00 0. -1.
<mgrwt>
<rscale>  0 0.22197052E+03</rscale>
<asrwt>0</asrwt>
<pdfrwt beam="2">  1        3 0.14086166E+00 0.22573590E+03</pdfrwt>
<pdfrwt beam="1">  1       -3 0.86508684E-02 0.22573590E+03</pdfrwt>
<totfact> 0.93082958E+01</totfact>
</mgrwt>
</event>
<event>
 8    1  0.8504141E-006  0.1407313E+03  0.7546771E-02  0.1216995E+00
          3   -1    0    0  501    0  0.00000000000E+00  0.00000000000E+00  0.29367621938E+03  0.29367621938E+03  0.00000000000E+00 0. -1.
         -3   -1    0    0    0  501 -0.00000000000E+00 -0.00000000000E+00 -0.61567247190E+02  0.61567247190E+02  0.00000000000E+00 0.  1.
         23    2    1    2    0    0 -0.81550150727E+02 -0.17311243174E+02  0.10929811851E+03  0.17818913509E+03  0.11338069912E+03 0.  0.
         23    2    1    2    0    0  0.81550150727E+02  0.17311243174E+02  0.12281085369E+03  0.17705433148E+03  0.96517481777E+02 0.  0.
          5    1    3    3  502    0  0.22334430441E+02  0.40545050694E+01 -0.33231000387E+01  0.23417915969E+02  0.47000000000E+01 0. -1.
         -5    1    3    3    0  502 -0.10388458117E+03 -0.21365748244E+02  0.11262121854E+03  0.15477121912E+03  0.47000000000E+01 0.  1.
        -11    1    4    4    0    0 -0.21299828338E+02  0.11440598067E+02  0.28640162981E+02  0.37481047304E+02  0.00000000000E+00 0.  1.
         11    1    4    4    0    0  0.10284997907E+03  0.58706451068E+01  0.94170690706E+02  0.13957328418E+03  0.00000000000E+00 0. -1.
<mgrwt>
<rscale>  0 0.13730999E+03</rscale>
<asrwt>0</asrwt>
<pdfrwt beam="1">  1        3 0.45180956E-01 0.14073127E+03</pdfrwt>
<pdfrwt beam="2">  1       -3 0.94718844E-02 0.14073127E+03</pdfrwt>
<totfact> 0.91689030E+02</totfact>
</mgrwt>
</event>
<event>
 8    1  0.1138296E-005  0.1511352E+03  0.7546771E-02  0.1207422E+00
          2   -1    0    0  501    0  0.00000000000E+00  0.00000000000E+00  0.13935691461E+03  0.13935691461E+03  0.00000000000E+00 0. -1.
         -2   -1    0    0    0  501 -0.00000000000E+00 -0.00000000000E+00 -0.14026556767E+03  0.14026556767E+03  0.00000000000E+00 0.  1.
         23    2    1    2    0    0  0.25635742015E+02 -0.80990677912E+02 -0.18151128506E+02  0.15222124301E+03  0.12500064872E+03 0.  0.
         23    2    1    2    0    0 -0.25635742015E+02  0.80990677912E+02  0.17242475440E+02  0.12740123927E+03  0.93365366340E+02 0.  0.
          5    1    3    3  502    0  0.54583308122E+02 -0.58894976390E+02 -0.57138110626E+02  0.98665137995E+02  0.47000000000E+01 0.  1.
         -5    1    3    3    0  502 -0.28947566107E+02 -0.22095701521E+02  0.38986982120E+02  0.53556105012E+02  0.47000000000E+01 0.  1.
        -11    1    4    4    0    0 -0.32379876312E+02  0.18527457638E+02 -0.30746936664E+02  0.48343533080E+02  0.00000000000E+00 0.  1.
         11    1    4    4    0    0  0.67441342974E+01  0.62463220274E+02  0.47989412103E+02  0.79057706193E+02  0.00000000000E+00 0. -1.
<mgrwt>
<rscale>  0 0.14448209E+03</rscale>
<asrwt>0</asrwt>
<pdfrwt beam="1">  1        2 0.21439525E-01 0.15113518E+03</pdfrwt>
<pdfrwt beam="2">  1       -2 0.21579318E-01 0.15113518E+03</pdfrwt>
<totfact> 0.45438677E+03</totfact>
</mgrwt>
</event>
<event>
 7    1  0.8504141E-006  0.2426425E+03  0.7546771E-02  0.1128195E+00
          1   -1    0    0  501    0  0.00000000000E+00  0.00000000000E+00  0.56818648967E+03  0.56818648967E+03  0.00000000000E+00 0. -1.
         -1   -1    0    0    0  501 -0.00000000000E+00 -0.00000000000E+00 -0.82857694942E+02  0.82857694942E+02  0.00000000000E+00 0.  1.
         23    2    1    2    0    0  0.35393412134E+02 -0.16274749836E+03  0.24920359388E+03  0.31247292357E+03  0.88303198815E+02 0.  0.
          5    1    1    2  502    0 -0.15400608464E+02  0.52104445041E+01  0.16265882970E+03  0.16353688377E+03  0.47000000000E+01 0. -1.
         -5    1    1    2    0  502 -0.19992803670E+02  0.15753705385E+03  0.73466371144E+02  0.17503437726E+03  0.47000000000E+01 0.  1.
        -11    1    3    3    0    0 -0.47351113287E+00 -0.13919453105E+03  0.22080471255E+03  0.26101736105E+03  0.00000000000E+00 0. -1.
         11    1    3    3    0    0  0.35866923267E+02 -0.23552967308E+02  0.28398881328E+02  0.51455562521E+02  0.00000000000E+00 0.  1.
<mgrwt>
<rscale>  0 0.22780335E+03</rscale>
<asrwt>0</asrwt>
<pdfrwt beam="1">  1        1 0.87413303E-01 0.24264251E+03</pdfrwt>
<pdfrwt beam="2">  1       -1 0.12747338E-01 0.24264251E+03</pdfrwt>
<totfact> 0.15771818E+03</totfact>
</mgrwt>
</event>
<event>
 8    1  0.8504141E-006  0.1694470E+03  0.7546771E-02  0.1184626E+00
          2   -1    0    0  501    0  0.00000000000E+00  0.00000000000E+00  0.12282819451E+03  0.12282819451E+03  0.00000000000E+00 0. -1.
         -2   -1    0    0    0  501 -0.00000000000E+00 -0.00000000000E+00 -0.20461562090E+03  0.20461562090E+03  0.00000000000E+00 0.  1.
         23    2    1    2    0    0  0.69304058439E+02 -0.91019429065E+02 -0.48922395081E+02  0.17636804235E+03  0.12499878654E+03 0.  0.
         23    2    1    2    0    0 -0.69304058439E+02  0.91019429065E+02 -0.32865031308E+02  0.15107577306E+03  0.93038647552E+02 0.  0.
          5    1    3    3  502    0  0.77565877661E+02 -0.84645179463E+02 -0.82132473167E+02  0.14124130038E+03  0.47000000000E+01 0.  1.
         -5    1    3    3    0  502 -0.82618192222E+01 -0.63742496016E+01  0.33210078086E+02  0.35126741969E+02  0.47000000000E+01 0.  1.
        -11    1    4    4    0    0 -0.40086992730E+02  0.86419600828E+01  0.23315098011E+02  0.47172494692E+02  0.00000000000E+00 0. -1.
         11    1    4    4    0    0 -0.29217065709E+02  0.82377468982E+02 -0.56180129319E+02  0.10390327836E+03  0.00000000000E+00 0.  1.
<mgrwt>
<rscale>  0 0.16365990E+03</rscale>
<asrwt>0</asrwt>
<pdfrwt beam="1">  1        2 0.18896645E-01 0.16944700E+03</pdfrwt>
<pdfrwt beam="2">  1       -2 0.31479326E-01 0.16944700E+03</pdfrwt>
<totfact> 0.27091918E+03</totfact>
</mgrwt>
</event>
<event>
 8    1  0.8504141E-006  0.1320516E+03  0.7546771E-02  0.1236995E+00
         -1   -1    0    0    0  501 -0.00000000000E+00  0.00000000000E+00  0.19186448732E+04  0.19186448732E+04  0.00000000000E+00 0.  1.
          1   -1    0    0  501    0  0.00000000000E+00 -0.00000000000E+00 -0.74537320420E+02  0.74537320420E+02  0.00000000000E+00 0. -1.
         23    2    1    2    0    0 -0.42542613743E+02 -0.20376455377E+01  0.18803631626E+04  0.18849942306E+04  0.12499439967E+03 0.  0.
         23    2    1    2    0    0  0.42542613743E+02  0.20376455377E+01 -0.36255609813E+02  0.10818796308E+03  0.92607451802E+02 0.  0.
          5    1    3    3  502    0  0.20527954851E+02 -0.44456502796E+02  0.10482556592E+04  0.10494092598E+04  0.47000000000E+01 0.  1.
         -5    1    3    3    0  502 -0.63070568594E+02  0.42418857258E+02  0.83210750339E+03  0.83558497071E+03  0.47000000000E+01 0.  1.
        -11    1    4    4    0    0  0.61477465884E+02  0.25388077002E+02 -0.81098566737E+01  0.67005992572E+02  0.00000000000E+00 0.  1.
         11    1    4    4    0    0 -0.18934852141E+02 -0.23350431465E+02 -0.28145753139E+02  0.41181970508E+02  0.00000000000E+00 0. -1.
<mgrwt>
<rscale>  0 0.12377575E+03</rscale>
<asrwt>0</asrwt>
<pdfrwt beam="2">  1        1 0.11467281E-01 0.13205160E+03</pdfrwt>
<pdfrwt beam="1">  1       -1 0.29517610E+00 0.13205160E+03</pdfrwt>
<totfact> 0.23283358E+01</totfact>
</mgrwt>
</event>
<event>
 8    1  0.8504141E-006  0.1697381E+03  0.7546771E-02  0.1184557E+00
         -2   -1    0    0    0  501 -0.00000000000E+00  0.00000000000E+00  0.12482593388E+03  0.12482593388E+03  0.00000000000E+00 0.  1.
          2   -1    0    0  501    0  0.00000000000E+00 -0.00000000000E+00 -0.27244948298E+03  0.27244948298E+03  0.00000000000E+00 0. -1.
         23    2    1    2    0    0 -0.10562362271E+03 -0.45045251126E+02  0.23915843165E+02  0.17141468008E+03  0.12500240265E+03 0.  0.
         23    2    1    2    0    0  0.10562362271E+03  0.45045251126E+02 -0.17153939227E+03  0.22586073678E+03  0.91661796823E+02 0.  0.
          5    1    3    3  502    0 -0.53386620530E+02  0.41930979577E+02  0.63766671025E+01  0.68345374264E+02  0.47000000000E+01 0. -1.
         -5    1    3    3    0  502 -0.52237002181E+02 -0.86976230703E+02  0.17539176062E+02  0.10306930581E+03  0.47000000000E+01 0. -1.
        -11    1    4    4    0    0  0.33562552201E+02 -0.27229646314E+02 -0.67250556015E+02  0.79940827072E+02  0.00000000000E+00 0. -1.
         11    1    4    4    0    0  0.72061070510E+02  0.72274897440E+02 -0.10428883625E+03  0.14591990971E+03  0.00000000000E+00 0.  1.
<mgrwt>
<rscale>  0 0.16372286E+03</rscale>
<asrwt>0</asrwt>
<pdfrwt beam="2">  1        2 0.41915304E-01 0.16973811E+03</pdfrwt>
<pdfrwt beam="1">  1       -2 0.19203990E-01 0.16973811E+03</pdfrwt>
<totfact> 0.26809899E+03</totfact>
</mgrwt>
</event>
<event>
 8    1  0.8504141E-006  0.1399273E+03  0.7546771E-02  0.1224890E+00
         -3   -1    0    0    0  501 -0.00000000000E+00  0.00000000000E+00  0.72296571295E+02  0.72296571295E+02  0.00000000000E+00 0.  1.
          3   -1    0    0  501    0  0.00000000000E+00 -0.00000000000E+00 -0.21698028102E+03  0.21698028102E+03  0.00000000000E+00 0. -1.
         23    2    1    2    0    0  0.47727263440E+02  0.41619445652E+02 -0.70949642616E+02  0.15688692490E+03  0.12477814506E+03 0.  0.
         23    2    1    2    0    0 -0.47727263440E+02 -0.41619445652E+02 -0.73734067106E+02  0.13238992742E+03  0.89890546206E+02 0.  0.
          5    1    3    3  502    0 -0.82557784208E+01 -0.33175958734E+02  0.68924138575E+01  0.35190872170E+02  0.47000000000E+01 0.  1.
         -5    1    3    3    0  502  0.55983041860E+02  0.74795404386E+02 -0.77842056474E+02  0.12169605273E+03  0.47000000000E+01 0.  1.
        -11    1    4    4    0    0 -0.51167112720E+02 -0.13716976030E+02  0.53639507245E+00  0.52976566283E+02  0.00000000000E+00 0. -1.
         11    1    4    4    0    0  0.34398492803E+01 -0.27902469622E+02 -0.74270462179E+02  0.79413361132E+02  0.00000000000E+00 0.  1.
<mgrwt>
<rscale>  0 0.13174432E+03</rscale>
<asrwt>0</asrwt>
<pdfrwt beam="2">  1        3 0.33381581E-01 0.13992732E+03</pdfrwt>
<pdfrwt beam="1">  1       -3 0.11122550E-01 0.13992732E+03</pdfrwt>
<totfact> 0.12547924E+03</totfact>
</mgrwt>
</event>
<event>
 8    1  0.8504141E-006  0.1273878E+03  0.7546771E-02  0.1245589E+00
         -1   -1    0    0    0  501 -0.00000000000E+00  0.00000000000E+00  0.90188252484E+02  0.90188252484E+02  0.00000000000E+00 0.  1.
          1   -1    0    0  501    0  0.00000000000E+00 -0.00000000000E+00 -0.13901183992E+03  0.13901183992E+03  0.00000000000E+00 0. -1.
         23    2    1    2    0    0 -0.23348269069E+02 -0.74803315566E+01 -0.16357226612E+02  0.12843371650E+03  0.12500625441E+03 0.  0.
         23    2    1    2    0    0  0.23348269069E+02  0.74803315566E+01 -0.32466360823E+02  0.10076637591E+03  0.92188398945E+02 0.  0.
          5    1    3    3  502    0 -0.72875244170E+02  0.11663075248E+02 -0.12366568136E+02  0.74979000690E+02  0.47000000000E+01 0.  1.
         -5    1    3    3    0  502  0.49526975101E+02 -0.19143406804E+02 -0.39906584758E+01  0.53454715805E+02  0.47000000000E+01 0.  1.
        -11    1    4    4    0    0  0.53133265839E+02  0.26794559250E+02 -0.15916029604E+02  0.61598801470E+02  0.00000000000E+00 0.  1.
         11    1    4    4    0    0 -0.29784996770E+02 -0.19314227694E+02 -0.16550331220E+02  0.39167574439E+02  0.00000000000E+00 0. -1.
<mgrwt>
<rscale>  0 0.11850180E+03</rscale>
<asrwt>0</asrwt>
<pdfrwt beam="2">  1        1 0.21386437E-01 0.12738784E+03</pdfrwt>
<pdfrwt beam="1">  1       -1 0.13875116E-01 0.12738784E+03</pdfrwt>
<totfact> 0.80139533E+03</totfact>
</mgrwt>
</event>
<event>
 8    1  0.8504141E-006  0.1272214E+03  0.7546771E-02  0.1246541E+00
         -2   -1    0    0    0  501 -0.00000000000E+00  0.00000000000E+00  0.36579448603E+02  0.36579448603E+02  0.00000000000E+00 0.  1.
          2   -1    0    0  501    0  0.00000000000E+00 -0.00000000000E+00 -0.43422235338E+03  0.43422235338E+03  0.00000000000E+00 0. -1.
         23    2    1    2    0    0  0.18306322762E+02 -0.14967538682E+02 -0.10992710187E+03  0.16813463878E+03  0.12500456137E+03 0.  0.
         23    2    1    2    0    0 -0.18306322762E+02  0.14967538682E+02 -0.28771580290E+03  0.30266716320E+03  0.90927882268E+02 0.  0.
          5    1    3    3  502    0  0.52040106540E+02 -0.32571810824E+02 -0.11678756804E+02  0.62670398990E+02  0.47000000000E+01 0. -1.
         -5    1    3    3    0  502 -0.33733783778E+02  0.17604272142E+02 -0.98248345069E+02  0.10546423979E+03  0.47000000000E+01 0. -1.
        -11    1    4    4    0    0 -0.56992806698E+00  0.46811778750E+02 -0.88253710683E+02  0.99901876344E+02  0.00000000000E+00 0.  1.
         11    1    4    4    0    0 -0.17736394695E+02 -0.31844240067E+02 -0.19946209222E+03  0.20276528686E+03  0.00000000000E+00 0. -1.
<mgrwt>
<rscale>  0 0.11793616E+03</rscale>
<asrwt>0</asrwt>
<pdfrwt beam="2">  1        2 0.66803434E-01 0.12722142E+03</pdfrwt>
<pdfrwt beam="1">  1       -2 0.56276079E-02 0.12722142E+03</pdfrwt>
<totfact> 0.11239368E+04</totfact>
</mgrwt>
</event>
<event>
 8    1  0.8504141E-006  0.1713348E+03  0.7546771E-02  0.1183058E+00
          1   -1    0    0  501    0  0.00000000000E+00  0.00000000000E+00  0.46639635566E+03  0.46639635566E+03  0.00000000000E+00 0. -1.
         -1   -1    0    0    0  501 -0.00000000000E+00 -0.00000000000E+00 -0.89801658618E+02  0.89801658618E+02  0.00000000000E+00 0.  1.
         23    2    1    2    0    0 -0.11099601408E+03 -0.37552379255E+02  0.22852204020E+02  0.17285204207E+03  0.12500123556E+03 0.  0.
         23    2    1    2    0    0  0.11099601408E+03  0.37552379255E+02  0.35374249303E+03  0.38334597221E+03  0.89944909286E+02 0.  0.
          5    1    3    3  502    0 -0.16501406710E+02  0.22373411714E+02 -0.36485869699E+02  0.46110461534E+02  0.47000000000E+01 0.  1.
         -5    1    3    3    0  502 -0.94494607369E+02 -0.59925790969E+02  0.59338073719E+02  0.12674158054E+03  0.47000000000E+01 0.  1.
        -11    1    4    4    0    0  0.61663661729E+02  0.27142889044E+02  0.78161994741E+02  0.10319128367E+03  0.00000000000E+00 0.  1.
         11    1    4    4    0    0  0.49332352350E+02  0.10409490212E+02  0.27558049829E+03  0.28015468854E+03  0.00000000000E+00 0. -1.
<mgrwt>
<rscale>  0 0.16509805E+03</rscale>
<asrwt>0</asrwt>
<pdfrwt beam="1">  1        1 0.71753284E-01 0.17133478E+03</pdfrwt>
<pdfrwt beam="2">  1       -1 0.13815640E-01 0.17133478E+03</pdfrwt>
<totfact> 0.17970587E+03</totfact>
</mgrwt>
</event>
<event>
 8    1  0.8504141E-006  0.1467699E+03  0.7546771E-02  0.1214287E+00
          2   -1    0    0  501    0  0.00000000000E+00  0.00000000000E+00  0.66818402177E+03  0.66818402177E+03  0.00000000000E+00 0. -1.
         -2   -1    0    0    0  501 -0.00000000000E+00 -0.00000000000E+00 -0.30921994103E+02  0.30921994103E+02  0.00000000000E+00 0.  1.
         23    2    1    2    0    0  0.73959129773E+02  0.21122988338E+02  0.21456334326E+03  0.25995926386E+03  0.12500102832E+03 0.  0.
         23    2    1    2    0    0 -0.73959129773E+02 -0.21122988338E+02  0.42269868441E+03  0.43914675202E+03  0.90882113156E+02 0.  0.
          5    1    3    3  502    0  0.27452348202E+02  0.71586994271E+02  0.12945163920E+03  0.15052623047E+03  0.47000000000E+01 0.  1.
         -5    1    3    3    0  502  0.46506781571E+02 -0.50464005933E+02  0.85111704061E+02  0.10943303338E+03  0.47000000000E+01 0.  1.
        -11    1    4    4    0    0 -0.83575551873E+01  0.32093589454E+02  0.15192945913E+03  0.15550693799E+03  0.00000000000E+00 0.  1.
         11    1    4    4    0    0 -0.65601574586E+02 -0.53216577792E+02  0.27076922528E+03  0.28363981403E+03  0.00000000000E+00 0. -1.
<mgrwt>
<rscale>  0 0.13929024E+03</rscale>
<asrwt>0</asrwt>
<pdfrwt beam="1">  1        2 0.10279753E+00 0.14676986E+03</pdfrwt>
<pdfrwt beam="2">  1       -2 0.47572304E-02 0.14676986E+03</pdfrwt>
<totfact> 0.90307912E+03</totfact>
</mgrwt>
</event>
<event>
 7    1  0.8504141E-006  0.2889066E+03  0.7546771E-02  0.1116015E+00
         -1   -1    0    0    0  501 -0.00000000000E+00  0.00000000000E+00  0.42578049570E+02  0.42578049570E+02  0.00000000000E+00 0.  1.
          1   -1    0    0  501    0  0.00000000000E+00 -0.00000000000E+00 -0.14444478181E+04  0.14444478181E+04  0.00000000000E+00 0. -1.
         23    2    1    2    0    0  0.27350561516E+02  0.11880267015E+03 -0.85751432724E+03  0.87075492976E+03  0.89561144650E+02 0.  0.
          5    1    1    2  502    0 -0.91110585277E+02  0.47912002433E+02 -0.26930779662E+03  0.28834957612E+03  0.47000000000E+01 0. -1.
         -5    1    1    2    0  502  0.63760023761E+02 -0.16671467258E+03 -0.27504764470E+03  0.32792136182E+03  0.47000000000E+01 0.  1.
        -11    1    3    3    0    0  0.35477537255E+02  0.13149548073E+03 -0.77379495867E+03  0.78568973213E+03  0.00000000000E+00 0. -1.
         11    1    3    3    0    0 -0.81269757394E+01 -0.12692810583E+02 -0.83719368561E+02  0.85065197628E+02  0.00000000000E+00 0.  1.
<mgrwt>
<rscale>  0 0.24575818E+03</rscale>
<asrwt>0</asrwt>
<pdfrwt beam="2">  1        1 0.22222274E+00 0.28890660E+03</pdfrwt>
<pdfrwt beam="1">  1       -1 0.65504691E-02 0.28890660E+03</pdfrwt>
<totfact> 0.91064857E+02</totfact>
</mgrwt>
</event>
<event>
 8    1  0.8504141E-006  0.1255885E+03  0.7546771E-02  0.1249304E+00
          3   -1    0    0  501    0  0.00000000000E+00  0.00000000000E+00  0.42716440982E+02  0.42716440982E+02  0.00000000000E+00 0. -1.
         -3   -1    0    0    0  501 -0.00000000000E+00 -0.00000000000E+00 -0.28275161624E+03  0.28275161624E+03  0.00000000000E+00 0.  1.
         23    2    1    2    0    0  0.18271502518E+01 -0.12047050676E+02 -0.15859516316E+03  0.20229905044E+03  0.12499604043E+03 0.  0.
         23    2    1    2    0    0 -0.18271502518E+01  0.12047050676E+02 -0.81440012100E+02  0.12316900678E+03  0.91595080392E+02 0.  0.
          5    1    3    3  502    0  0.19984602107E+02  0.38898630098E+02 -0.13697540896E+03  0.14386396493E+03  0.47000000000E+01 0.  1.
         -5    1    3    3    0  502 -0.18157451855E+02 -0.50945680774E+02 -0.21619754196E+02  0.58435085513E+02  0.47000000000E+01 0.  1.
        -11    1    4    4    0    0  0.44780525309E+02  0.30872283705E+01 -0.41692496072E+02  0.61262473462E+02  0.00000000000E+00 0. -1.
         11    1    4    4    0    0 -0.46607675561E+02  0.89598223050E+01 -0.39747516028E+02  0.61906533317E+02  0.00000000000E+00 0.  1.
<mgrwt>
<rscale>  0 0.11631423E+03</rscale>
<asrwt>0</asrwt>
<pdfrwt beam="1">  1        3 0.65717602E-02 0.12558853E+03</pdfrwt>
<pdfrwt beam="2">  1       -3 0.43500249E-01 0.12558853E+03</pdfrwt>
<totfact> 0.17543121E+03</totfact>
</mgrwt>
</event>
<event>
 8    1  0.9365779E-006  0.2096534E+03  0.7546771E-02  0.1145742E+00
         -1   -1    0    0    0  501 -0.00000000000E+00  0.00000000000E+00  0.14109364597E+03  0.14109364597E+03  0.00000000000E+00 0.  1.
          1   -1    0    0  501    0  0.00000000000E+00 -0.00000000000E+00 -0.33401087672E+03  0.33401087672E+03  0.00000000000E+00 0. -1.
         23    2    1    2    0    0  0.11165260322E+03  0.12595089530E+03 -0.87812752101E+01  0.20983720897E+03  0.12499844657E+03 0.  0.
         23    2    1    2    0    0 -0.11165260322E+03 -0.12595089530E+03 -0.18413595554E+03  0.26526731372E+03  0.90170758957E+02 0.  0.
          5    1    3    3  502    0  0.55640080375E+02  0.11179517038E+03  0.42956343277E+02  0.13214127324E+03  0.47000000000E+01 0.  1.
         -5    1    3    3    0  502  0.56012522843E+02  0.14155724913E+02 -0.51737618487E+02  0.77695935735E+02  0.47000000000E+01 0.  1.
        -11    1    4    4    0    0 -0.22994364916E+02 -0.84254727062E+02 -0.55150563945E+02  0.10329174485E+03  0.00000000000E+00 0. -1.
         11    1    4    4    0    0 -0.88658238302E+02 -0.41696168233E+02 -0.12898539160E+03  0.16197556887E+03  0.00000000000E+00 0.  1.
<mgrwt>
<rscale>  0 0.20481159E+03</rscale>
<asrwt>0</asrwt>
<pdfrwt beam="2">  1        1 0.51386288E-01 0.20965339E+03</pdfrwt>
<pdfrwt beam="1">  1       -1 0.21706715E-01 0.20965339E+03</pdfrwt>
<totfact> 0.13409401E+03</totfact>
</mgrwt>
</event>
<event>
 8    1  0.8504141E-006  0.1527981E+03  0.7546771E-02  0.1205604E+00
         -1   -1    0    0    0  501 -0.00000000000E+00  0.00000000000E+00  0.11909669638E+03  0.11909669638E+03  0.00000000000E+00 0.  1.
          1   -1    0    0  501    0  0.00000000000E+00 -0.00000000000E+00 -0.16750260956E+03  0.16750260956E+03  0.00000000000E+00 0. -1.
         23    2    1    2    0    0  0.11243014504E+02 -0.87155022613E+02 -0.68267582855E+01  0.15295051120E+03  0.12499940363E+03 0.  0.
         23    2    1    2    0    0 -0.11243014504E+02  0.87155022613E+02 -0.41579154904E+02  0.13364879474E+03  0.91710254991E+02 0.  0.
          5    1    3    3  502    0 -0.50724905879E+02 -0.71869823972E+02  0.33072978831E+01  0.88155067316E+02  0.47000000000E+01 0.  1.
         -5    1    3    3    0  502  0.61967920383E+02 -0.15285198641E+02 -0.10134056169E+02  0.64795443887E+02  0.47000000000E+01 0.  1.
        -11    1    4    4    0    0  0.24210641450E+02 -0.66270614468E+01 -0.17316854055E+02  0.30495024794E+02  0.00000000000E+00 0.  1.
         11    1    4    4    0    0 -0.35453655954E+02  0.93782084060E+02 -0.24262300849E+02  0.10315376994E+03  0.00000000000E+00 0. -1.
<mgrwt>
<rscale>  0 0.14589937E+03</rscale>
<asrwt>0</asrwt>
<pdfrwt beam="2">  1        1 0.25769632E-01 0.15279808E+03</pdfrwt>
<pdfrwt beam="1">  1       -1 0.18322569E-01 0.15279808E+03</pdfrwt>
<totfact> 0.41364106E+03</totfact>
</mgrwt>
</event>
<event>
 8    1  0.8504141E-006  0.1462335E+03  0.7546771E-02  0.1214578E+00
         -3   -1    0    0    0  501 -0.00000000000E+00  0.00000000000E+00  0.27015945716E+02  0.27015945716E+02  0.00000000000E+00 0.  1.
          3   -1    0    0  501    0  0.00000000000E+00 -0.00000000000E+00 -0.68341088978E+03  0.68341088978E+03  0.00000000000E+00 0. -1.
         23    2    1    2    0    0  0.24087657541E+02  0.71978794373E+02 -0.28644734260E+03  0.32161518051E+03  0.12499232844E+03 0.  0.
         23    2    1    2    0    0 -0.24087657541E+02 -0.71978794373E+02 -0.36994760146E+03  0.38881165498E+03  0.92477635866E+02 0.  0.
          5    1    3    3  502    0 -0.46357602033E+02  0.39155126455E+02 -0.76899222281E+02  0.98070034064E+02  0.47000000000E+01 0. -1.
         -5    1    3    3    0  502  0.70445259575E+02  0.32823667917E+02 -0.20954812032E+03  0.22354514645E+03  0.47000000000E+01 0. -1.
        -11    1    4    4    0    0  0.15666727154E+02 -0.76352848635E+02 -0.27378552936E+03  0.28466422311E+03  0.00000000000E+00 0. -1.
         11    1    4    4    0    0 -0.39754384695E+02  0.43740542624E+01 -0.96162072101E+02  0.10414743186E+03  0.00000000000E+00 0.  1.
<mgrwt>
<rscale>  0 0.13907613E+03</rscale>
<asrwt>0</asrwt>
<pdfrwt beam="2">  1        3 0.10514014E+00 0.14623353E+03</pdfrwt>
<pdfrwt beam="1">  1       -3 0.41562994E-02 0.14623353E+03</pdfrwt>
<totfact> 0.57875313E+02</totfact>
</mgrwt>
</event>
<event>
 8    1  0.8504141E-006  0.1661640E+03  0.7546771E-02  0.1188327E+00
          1   -1    0    0  501    0  0.00000000000E+00  0.00000000000E+00  0.84138924855E+03  0.84138924855E+03  0.00000000000E+00 0. -1.
         -1   -1    0    0    0  501 -0.00000000000E+00 -0.00000000000E+00 -0.29854273465E+02  0.29854273465E+02  0.00000000000E+00 0.  1.
         23    2    1    2    0    0  0.59977385756E+02  0.91593960447E+02  0.34400608402E+03  0.38203488526E+03  0.12499490919E+03 0.  0.
         23    2    1    2    0    0 -0.59977385756E+02 -0.91593960447E+02  0.46752889107E+03  0.48920863675E+03  0.93568615984E+02 0.  0.
          5    1    3    3  502    0  0.30240444242E+02  0.24035332927E+02  0.28438149030E+03  0.28703153785E+03  0.47000000000E+01 0. -1.
         -5    1    3    3    0  502  0.29736941514E+02  0.67558627521E+02  0.59624593717E+02  0.95003347409E+02  0.47000000000E+01 0. -1.
        -11    1    4    4    0    0 -0.41302882440E+02 -0.20026653852E+01  0.24711121311E+03  0.25054718201E+03  0.00000000000E+00 0. -1.
         11    1    4    4    0    0 -0.18674503316E+02 -0.89591295062E+02  0.22041767795E+03  0.23866145474E+03  0.00000000000E+00 0.  1.
<mgrwt>
<rscale>  0 0.16032769E+03</rscale>
<asrwt>0</asrwt>
<pdfrwt beam="1">  1        1 0.12944448E+00 0.16616398E+03</pdfrwt>
<pdfrwt beam="2">  1       -1 0.45929658E-02 0.16616398E+03</pdfrwt>
<totfact> 0.41849730E+03</totfact>
</mgrwt>
</event>
<event>
 7    1  0.8504141E-006  0.2315373E+03  0.7546771E-02  0.1129082E+00
          4   -1    0    0  501    0  0.00000000000E+00  0.00000000000E+00  0.92528757842E+03  0.92528757842E+03  0.00000000000E+00 0. -1.
         -4   -1    0    0    0  501 -0.00000000000E+00 -0.00000000000E+00 -0.24363534836E+03  0.24363534836E+03  0.00000000000E+00 0.  1.
         23    2    1    2    0    0 -0.10053939829E+03  0.16336648908E+03  0.85418886331E+03  0.88016976134E+03  0.90903323496E+02 0.  0.
          5    1    1    2  502    0 -0.14893246485E+02 -0.76904334342E+02 -0.10039152277E+03  0.12742304845E+03  0.47000000000E+01 0. -1.
         -5    1    1    2    0  502  0.11543264478E+03 -0.86462154735E+02 -0.72145110477E+02  0.16133011699E+03  0.47000000000E+01 0. -1.
        -11    1    3    3    0    0 -0.33523902959E+02  0.43103595973E+02  0.10411607385E+03  0.11756669975E+03  0.00000000000E+00 0.  1.
         11    1    3    3    0    0 -0.67015495331E+02  0.12026289310E+03  0.75007278946E+03  0.76260306159E+03  0.00000000000E+00 0. -1.
<mgrwt>
<rscale>  0 0.22656342E+03</rscale>
<asrwt>0</asrwt>
<pdfrwt beam="1">  1        4 0.14235193E+00 0.23153726E+03</pdfrwt>
<pdfrwt beam="2">  1       -4 0.37482362E-01 0.23153726E+03</pdfrwt>
<totfact> 0.44916810E+00</totfact>
</mgrwt>
</event>
<event>
 7    1  0.8504141E-006  0.1344219E+03  0.7546771E-02  0.1242178E+00
         -1   -1    0    0    0  501 -0.00000000000E+00  0.00000000000E+00  0.63243662607E+02  0.63243662607E+02  0.00000000000E+00 0.  1.
          1   -1    0    0  501    0  0.00000000000E+00 -0.00000000000E+00 -0.52588908297E+03  0.52588908297E+03  0.00000000000E+00 0. -1.
         23    2    1    2    0    0 -0.26680724260E+02  0.23525347665E+02 -0.44516220262E+03  0.45357866268E+03  0.79365695175E+02 0.  0.
          5    1    1    2  502    0  0.92916618620E+01 -0.77145358081E+02 -0.11026727359E+02  0.78622006906E+02  0.47000000000E+01 0. -1.
         -5    1    1    2    0  502  0.17389062398E+02  0.53620010416E+02 -0.64564903847E+01  0.56932075987E+02  0.47000000000E+01 0.  1.
        -11    1    3    3    0    0 -0.54904535466E+02  0.20374205490E+02 -0.30305719312E+03  0.30866369816E+03  0.00000000000E+00 0. -1.
         11    1    3    3    0    0  0.28223811206E+02  0.31511421743E+01 -0.14210500950E+03  0.14491496452E+03  0.00000000000E+00 0.  1.
<mgrwt>
<rscale>  0 0.12055855E+03</rscale>
<asrwt>0</asrwt>
<pdfrwt beam="2">  1        1 0.80906015E-01 0.13442190E+03</pdfrwt>
<pdfrwt beam="1">  1       -1 0.97297940E-02 0.13442190E+03</pdfrwt>
<totfact> 0.26214647E+03</totfact>
</mgrwt>
</event>
<event>
 8    1  0.8504141E-006  0.1550097E+03  0.7546771E-02  0.1202866E+00
         -1   -1    0    0    0  501 -0.00000000000E+00  0.00000000000E+00  0.75350955022E+02  0.75350955022E+02  0.00000000000E+00 0.  1.
          1   -1    0    0  501    0  0.00000000000E+00 -0.00000000000E+00 -0.52990286451E+03  0.52990286451E+03  0.00000000000E+00 0. -1.
         23    2    1    2    0    0  0.89365375386E+02 -0.20412907282E+02 -0.25350128557E+02  0.15706885434E+03  0.12500055554E+03 0.  0.
         23    2    1    2    0    0 -0.89365375386E+02  0.20412907282E+02 -0.42920178093E+03  0.44818496519E+03  0.90844576986E+02 0.  0.
          5    1    3    3  502    0  0.11337105175E+03 -0.15665925657E+01 -0.43173687479E+02  0.12141460735E+03  0.47000000000E+01 0. -1.
         -5    1    3    3    0  502 -0.24005676363E+02 -0.18846314717E+02  0.17823558922E+02  0.35654246994E+02  0.47000000000E+01 0. -1.
        -11    1    4    4    0    0 -0.48727676098E+02 -0.24644686301E+02 -0.10495834186E+03  0.11831314596E+03  0.00000000000E+00 0.  1.
         11    1    4    4    0    0 -0.40637699287E+02  0.45057593583E+02 -0.32424343907E+03  0.32987181923E+03  0.00000000000E+00 0. -1.
<mgrwt>
<rscale>  0 0.14806898E+03</rscale>
<asrwt>0</asrwt>
<pdfrwt beam="2">  1        1 0.81523520E-01 0.15500966E+03</pdfrwt>
<pdfrwt beam="1">  1       -1 0.11592454E-01 0.15500966E+03</pdfrwt>
<totfact> 0.19922353E+03</totfact>
</mgrwt>
</event>
<event>
 8    1  0.8504141E-006  0.1315762E+03  0.7546771E-02  0.1238594E+00
         -2   -1    0    0    0  501 -0.00000000000E+00  0.00000000000E+00  0.19436052243E+03  0.19436052243E+03  0.00000000000E+00 0.  1.
          2   -1    0    0  501    0  0.00000000000E+00 -0.00000000000E+00 -0.74754506413E+02  0.74754506413E+02  0.00000000000E+00 0. -1.
         23    2    1    2    0    0 -0.37999840236E+02  0.15578504267E+02  0.10495256077E+03  0.16830727886E+03  0.12500248978E+03 0.  0.
         23    2    1    2    0    0  0.37999840236E+02 -0.15578504267E+02  0.14653455249E+02  0.10080774998E+03  0.90888949014E+02 0.  0.
          5    1    3    3  502    0  0.18321254572E+02  0.54760277818E+02  0.25706212131E+02  0.63381824981E+02  0.47000000000E+01 0.  1.
         -5    1    3    3    0  502 -0.56321094808E+02 -0.39181773551E+02  0.79246348636E+02  0.10492545388E+03  0.47000000000E+01 0.  1.
        -11    1    4    4    0    0 -0.84650075015E+01 -0.37076472497E+02  0.28785270586E+02  0.47696047714E+02  0.00000000000E+00 0.  1.
         11    1    4    4    0    0  0.46464847737E+02  0.21497968230E+02 -0.14131815337E+02  0.53111702270E+02  0.00000000000E+00 0. -1.
<mgrwt>
<rscale>  0 0.12277139E+03</rscale>
<asrwt>0</asrwt>
<pdfrwt beam="2">  1        2 0.11500693E-01 0.13157621E+03</pdfrwt>
<pdfrwt beam="1">  1       -2 0.29901619E-01 0.13157621E+03</pdfrwt>
<totfact> 0.52544460E+03</totfact>
</mgrwt>
</event>
<event>
 8    1  0.8504141E-006  0.1851021E+03  0.7546771E-02  0.1163391E+00
         -1   -1    0    0    0  501 -0.00000000000E+00  0.00000000000E+00  0.37949884392E+03  0.37949884392E+03  0.00000000000E+00 0.  1.
          1   -1    0    0  501    0  0.00000000000E+00 -0.00000000000E+00 -0.10178124681E+03  0.10178124681E+03  0.00000000000E+00 0. -1.
         23    2    1    2    0    0 -0.11519173755E+03  0.73282033387E+02  0.22347827074E+03  0.29018151722E+03  0.12499353034E+03 0.  0.
         23    2    1    2    0    0  0.11519173755E+03 -0.73282033387E+02  0.54239326371E+02  0.19109857351E+03  0.12221852337E+03 0.  0.
          5    1    3    3  502    0 -0.10914953361E+03  0.30364186101E+02  0.76275434476E+02  0.13665883210E+03  0.47000000000E+01 0.  1.
         -5    1    3    3    0  502 -0.60422039392E+01  0.42917847287E+02  0.14720283626E+03  0.15352268512E+03  0.47000000000E+01 0.  1.
        -11    1    4    4    0    0  0.21878943153E+02 -0.58225701843E+02 -0.25706282405E+02  0.67303294598E+02  0.00000000000E+00 0. -1.
         11    1    4    4    0    0  0.93312794398E+02 -0.15056331544E+02  0.79945608777E+02  0.12379527891E+03  0.00000000000E+00 0.  1.
<mgrwt>
<rscale>  0 0.18463469E+03</rscale>
<asrwt>0</asrwt>
<pdfrwt beam="2">  1        1 0.15658654E-01 0.18510207E+03</pdfrwt>
<pdfrwt beam="1">  1       -1 0.58384437E-01 0.18510207E+03</pdfrwt>
<totfact> 0.10710248E+03</totfact>
</mgrwt>
</event>
<event>
 8    1  0.8504141E-006  0.1831147E+03  0.7546771E-02  0.1170131E+00
          1   -1    0    0  501    0  0.00000000000E+00  0.00000000000E+00  0.10181883507E+04  0.10181883507E+04  0.00000000000E+00 0. -1.
         -1   -1    0    0    0  501 -0.00000000000E+00 -0.00000000000E+00 -0.29371011958E+02  0.29371011958E+02  0.00000000000E+00 0.  1.
         23    2    1    2    0    0  0.87421550252E+02  0.10131100191E+03  0.49212007232E+03  0.52508395072E+03  0.12499817264E+03 0.  0.
         23    2    1    2    0    0 -0.87421550252E+02 -0.10131100191E+03  0.49669726639E+03  0.52247541191E+03  0.91465485600E+02 0.  0.
          5    1    3    3  502    0 -0.13026094630E+02 -0.20762323015E+02  0.66606854275E+02  0.71128870613E+02  0.47000000000E+01 0. -1.
         -5    1    3    3    0  502  0.10044764488E+03  0.12207332492E+03  0.42551321805E+03  0.45395508010E+03  0.47000000000E+01 0. -1.
        -11    1    4    4    0    0 -0.31142632905E+02 -0.91052288782E+02  0.38667551279E+03  0.39846999269E+03  0.00000000000E+00 0.  1.
         11    1    4    4    0    0 -0.56278917347E+02 -0.10258713125E+02  0.11002175360E+03  0.12400541923E+03  0.00000000000E+00 0. -1.
<mgrwt>
<rscale>  0 0.17761507E+03</rscale>
<asrwt>0</asrwt>
<pdfrwt beam="1">  1        1 0.15664433E+00 0.18311469E+03</pdfrwt>
<pdfrwt beam="2">  1       -1 0.45186180E-02 0.18311469E+03</pdfrwt>
<totfact> 0.31487212E+03</totfact>
</mgrwt>
</event>
<event>
 8    1  0.8504141E-006  0.1174864E+03  0.7546771E-02  0.1258186E+00
          1   -1    0    0  501    0  0.00000000000E+00  0.00000000000E+00  0.13160677735E+03  0.13160677735E+03  0.00000000000E+00 0. -1.
         -1   -1    0    0    0  501 -0.00000000000E+00 -0.00000000000E+00 -0.99546007569E+02  0.99546007569E+02  0.00000000000E+00 0.  1.
         23    2    1    2    0    0 -0.30256049435E+02  0.55715241852E+01 -0.25744887444E+02  0.12027412121E+03  0.11338692427E+03 0.  0.
         23    2    1    2    0    0  0.30256049435E+02 -0.55715241852E+01  0.57805657222E+02  0.11087866370E+03  0.89476888907E+02 0.  0.
          5    1    3    3  502    0  0.23492000275E+02  0.42086486212E+02 -0.26331387974E+02  0.55123301708E+02  0.47000000000E+01 0. -1.
         -5    1    3    3    0  502 -0.53748049710E+02 -0.36514962026E+02  0.58650053026E+00  0.65150819506E+02  0.47000000000E+01 0.  1.
        -11    1    4    4    0    0  0.12659149710E+02  0.22870983215E+02  0.70433734401E+02  0.75128203002E+02  0.00000000000E+00 0. -1.
         11    1    4    4    0    0  0.17596899724E+02 -0.28442507400E+02 -0.12628077179E+02  0.35750460701E+02  0.00000000000E+00 0.  1.
<mgrwt>
<rscale>  0 0.11129724E+03</rscale>
<asrwt>0</asrwt>
<pdfrwt beam="1">  1        1 0.20247196E-01 0.11748645E+03</pdfrwt>
<pdfrwt beam="2">  1       -1 0.15314770E-01 0.11748645E+03</pdfrwt>
<totfact> 0.73172991E+03</totfact>
</mgrwt>
</event>
<event>
 8    1  0.8504141E-006  0.1618347E+03  0.7546771E-02  0.1193839E+00
         -2   -1    0    0    0  501 -0.00000000000E+00  0.00000000000E+00  0.11293262415E+03  0.11293262415E+03  0.00000000000E+00 0.  1.
          2   -1    0    0  501    0  0.00000000000E+00 -0.00000000000E+00 -0.34482478962E+03  0.34482478962E+03  0.00000000000E+00 0. -1.
         23    2    1    2    0    0 -0.85190915259E+02 -0.57495600515E+02  0.27274632789E+02  0.16411694018E+03  0.12500891304E+03 0.  0.
         23    2    1    2    0    0  0.85190915259E+02  0.57495600515E+02 -0.25916679826E+03  0.29364047359E+03  0.92163237162E+02 0.  0.
          5    1    3    3  502    0 -0.90344655499E+02 -0.73266358731E+02 -0.16023182911E+02  0.11751148237E+03  0.47000000000E+01 0.  1.
         -5    1    3    3    0  502  0.51537402394E+01  0.15770758216E+02  0.43297815700E+02  0.46605457808E+02  0.47000000000E+01 0.  1.
        -11    1    4    4    0    0  0.63330446115E+02  0.40055914131E+02 -0.25448296973E+03  0.26528626716E+03  0.00000000000E+00 0. -1.
         11    1    4    4    0    0  0.21860469144E+02  0.17439686383E+02 -0.46838285368E+01  0.28354206427E+02  0.00000000000E+00 0.  1.
<mgrwt>
<rscale>  0 0.15552900E+03</rscale>
<asrwt>0</asrwt>
<pdfrwt beam="2">  1        2 0.53049967E-01 0.16183468E+03</pdfrwt>
<pdfrwt beam="1">  1       -2 0.17374250E-01 0.16183468E+03</pdfrwt>
<totfact> 0.24626955E+03</totfact>
</mgrwt>
</event>
<event>
 8    1  0.8504141E-006  0.1287103E+03  0.7546771E-02  0.1242858E+00
         -1   -1    0    0    0  501 -0.00000000000E+00  0.00000000000E+00  0.63410828184E+02  0.63410828184E+02  0.00000000000E+00 0.  1.
          1   -1    0    0  501    0  0.00000000000E+00 -0.00000000000E+00 -0.20245706846E+03  0.20245706846E+03  0.00000000000E+00 0. -1.
         23    2    1    2    0    0  0.27485085827E+02  0.13647452950E+02 -0.73781170087E+02  0.14835769959E+03  0.12499865221E+03 0.  0.
         23    2    1    2    0    0 -0.27485085827E+02 -0.13647452950E+02 -0.65265070185E+02  0.11751019705E+03  0.92776258325E+02 0.  0.
          5    1    3    3  502    0  0.44417041528E+02  0.60342361115E+02 -0.61316617008E+02  0.96932407607E+02  0.47000000000E+01 0. -1.
         -5    1    3    3    0  502 -0.16931955701E+02 -0.46694908166E+02 -0.12464553078E+02  0.51425291987E+02  0.47000000000E+01 0. -1.
        -11    1    4    4    0    0 -0.18751350155E+02  0.52214298683E+01 -0.85982656454E+02  0.88158344321E+02  0.00000000000E+00 0. -1.
         11    1    4    4    0    0 -0.87337356723E+01 -0.18868882818E+02  0.20717586270E+02  0.29351852726E+02  0.00000000000E+00 0.  1.
<mgrwt>
<rscale>  0 0.12014492E+03</rscale>
<asrwt>0</asrwt>
<pdfrwt beam="2">  1        1 0.31147241E-01 0.12871032E+03</pdfrwt>
<pdfrwt beam="1">  1       -1 0.97555120E-02 0.12871032E+03</pdfrwt>
<totfact> 0.86141508E+03</totfact>
</mgrwt>
</event>
<event>
 8    1  0.8504141E-006  0.3630318E+03  0.7546771E-02  0.1058398E+00
          1   -1    0    0  501    0  0.00000000000E+00  0.00000000000E+00  0.88158654549E+03  0.88158654549E+03  0.00000000000E+00 0. -1.
         -1   -1    0    0    0  501 -0.00000000000E+00 -0.00000000000E+00 -0.16222676307E+03  0.16222676307E+03  0.00000000000E+00 0.  1.
         23    2    1    2    0    0 -0.25782264468E+03  0.22293736927E+03  0.19591367397E+03  0.41252182942E+03  0.12497401877E+03 0.  0.
         23    2    1    2    0    0  0.25782264468E+03 -0.22293736927E+03  0.52344610844E+03  0.63129147915E+03  0.91430391400E+02 0.  0.
          5    1    3    3  502    0 -0.23750012379E+03  0.18264287654E+03  0.20896059154E+03  0.36530993412E+03  0.47000000000E+01 0.  1.
         -5    1    3    3    0  502 -0.20322520896E+02  0.40294492726E+02 -0.13046917565E+02  0.47211895297E+02  0.47000000000E+01 0.  1.
        -11    1    4    4    0    0  0.17122316951E+03 -0.90004288264E+02  0.30862880477E+03  0.36423877445E+03  0.00000000000E+00 0.  1.
         11    1    4    4    0    0  0.86599475170E+02 -0.13293308100E+03  0.21481730367E+03  0.26705270469E+03  0.00000000000E+00 0. -1.
<mgrwt>
<rscale>  0 0.36046998E+03</rscale>
<asrwt>0</asrwt>
<pdfrwt beam="1">  1        1 0.13562870E+00 0.36303181E+03</pdfrwt>
<pdfrwt beam="2">  1       -1 0.24957964E-01 0.36303181E+03</pdfrwt>
<totfact> 0.27515951E+02</totfact>
</mgrwt>
</event>
<event>
 8    1  0.8504141E-006  0.1304625E+03  0.7546771E-02  0.1240355E+00
          2   -1    0    0  501    0  0.00000000000E+00  0.00000000000E+00  0.29275911668E+02  0.29275911668E+02  0.00000000000E+00 0. -1.
         -2   -1    0    0    0  501 -0.00000000000E+00 -0.00000000000E+00 -0.44858191220E+03  0.44858191220E+03  0.00000000000E+00 0.  1.
         23    2    1    2    0    0  0.31311195268E+02  0.20391164685E+02 -0.23579309965E+03  0.26947884254E+03  0.12499708071E+03 0.  0.
         23    2    1    2    0    0 -0.31311195268E+02 -0.20391164685E+02 -0.18351290088E+03  0.20837898133E+03  0.91370807833E+02 0.  0.
          5    1    3    3  502    0  0.79061573875E+02  0.14822826722E+02 -0.16698315226E+03  0.18540742109E+03  0.47000000000E+01 0. -1.
         -5    1    3    3    0  502 -0.47750378607E+02  0.55683379628E+01 -0.68809947389E+02  0.84071421449E+02  0.47000000000E+01 0. -1.
        -11    1    4    4    0    0 -0.29358499421E+02 -0.36914887453E+02 -0.18570082537E+03  0.19159704316E+03  0.00000000000E+00 0.  1.
         11    1    4    4    0    0 -0.19526958465E+01  0.16523722768E+02  0.21879244900E+01  0.16781938171E+02  0.00000000000E+00 0. -1.
<mgrwt>
<rscale>  0 0.12167769E+03</rscale>
<asrwt>0</asrwt>
<pdfrwt beam="1">  1        2 0.45039868E-02 0.13046249E+03</pdfrwt>
<pdfrwt beam="2">  1       -2 0.69012596E-01 0.13046249E+03</pdfrwt>
<totfact> 0.33790156E+03</totfact>
</mgrwt>
</event>
<event>
 8    1  0.8504141E-006  0.1320734E+03  0.7546771E-02  0.1237799E+00
         -1   -1    0    0    0  501 -0.00000000000E+00  0.00000000000E+00  0.35468823766E+02  0.35468823766E+02  0.00000000000E+00 0.  1.
          1   -1    0    0  501    0  0.00000000000E+00 -0.00000000000E+00 -0.41993622286E+03  0.41993622286E+03  0.00000000000E+00 0. -1.
         23    2    1    2    0    0  0.41012141723E+02 -0.11678216041E+02 -0.14679254946E+03  0.19746247213E+03  0.12499999529E+03 0.  0.
         23    2    1    2    0    0 -0.41012141723E+02  0.11678216041E+02 -0.23767484963E+03  0.25794257450E+03  0.90700943170E+02 0.  0.
          5    1    3    3  502    0 -0.32684772057E+02  0.20948240602E+02 -0.91792514207E+02  0.99775141058E+02  0.47000000000E+01 0.  1.
         -5    1    3    3    0  502  0.73696913780E+02 -0.32626456643E+02 -0.55000035256E+02  0.97687331072E+02  0.47000000000E+01 0.  1.
        -11    1    4    4    0    0  0.10725324779E+02 -0.31085903962E+02 -0.86309454592E+02  0.92361723505E+02  0.00000000000E+00 0.  1.
         11    1    4    4    0    0 -0.51737466502E+02  0.42764120003E+02 -0.15136539504E+03  0.16558085099E+03  0.00000000000E+00 0. -1.
<mgrwt>
<rscale>  0 0.12326943E+03</rscale>
<asrwt>0</asrwt>
<pdfrwt beam="2">  1        1 0.64605572E-01 0.13207337E+03</pdfrwt>
<pdfrwt beam="1">  1       -1 0.54567422E-02 0.13207337E+03</pdfrwt>
<totfact> 0.83446091E+03</totfact>
</mgrwt>
</event>
<event>
 8    1  0.8504141E-006  0.2105596E+03  0.7546771E-02  0.1144964E+00
         -2   -1    0    0    0  501 -0.00000000000E+00  0.00000000000E+00  0.10360430807E+04  0.10360430807E+04  0.00000000000E+00 0.  1.
          2   -1    0    0  501    0  0.00000000000E+00 -0.00000000000E+00 -0.40496657026E+02  0.40496657026E+02  0.00000000000E+00 0. -1.
         23    2    1    2    0    0 -0.98796684030E+01  0.16915112212E+03  0.61942441807E+03  0.65423386967E+03  0.12500254620E+03 0.  0.
         23    2    1    2    0    0  0.98796684030E+01 -0.16915112212E+03  0.37612200560E+03  0.42230586805E+03  0.90359134199E+02 0.  0.
          5    1    3    3  502    0  0.10616911262E+02  0.13848266537E+02  0.31495351037E+01  0.18344014342E+02  0.47000000000E+01 0.  1.
         -5    1    3    3    0  502 -0.20496579665E+02  0.15530285558E+03  0.61627488296E+03  0.63588985532E+03  0.47000000000E+01 0.  1.
        -11    1    4    4    0    0  0.34926633230E+02 -0.81297694276E+02  0.25945410127E+03  0.27412700610E+03  0.00000000000E+00 0.  1.
         11    1    4    4    0    0 -0.25046964827E+02 -0.87853427845E+02  0.11666790433E+03  0.14817886196E+03  0.00000000000E+00 0. -1.
<mgrwt>
<rscale>  0 0.20576525E+03</rscale>
<asrwt>0</asrwt>
<pdfrwt beam="2">  1        2 0.62302557E-02 0.21055960E+03</pdfrwt>
<pdfrwt beam="1">  1       -2 0.15939122E+00 0.21055960E+03</pdfrwt>
<totfact> 0.31681940E+02</totfact>
</mgrwt>
</event>
<event>
 8    1  0.8504141E-006  0.1584410E+03  0.7546771E-02  0.1198375E+00
          2   -1    0    0  501    0  0.00000000000E+00  0.00000000000E+00  0.64818641127E+03  0.64818641127E+03  0.00000000000E+00 0. -1.
         -2   -1    0    0    0  501 -0.00000000000E+00 -0.00000000000E+00 -0.34358875392E+02  0.34358875392E+02  0.00000000000E+00 0.  1.
         23    2    1    2    0    0  0.89396692161E+02 -0.38570075663E+02  0.26004105614E+03  0.30450766020E+03  0.12499657971E+03 0.  0.
         23    2    1    2    0    0 -0.89396692161E+02  0.38570075663E+02  0.35378647974E+03  0.37803762646E+03  0.90929392741E+02 0.  0.
          5    1    3    3  502    0  0.57378536540E+02  0.42229505588E+02  0.11617445141E+03  0.13636062760E+03  0.47000000000E+01 0.  1.
         -5    1    3    3    0  502  0.32018155621E+02 -0.80799581251E+02  0.14386660472E+03  0.16814703261E+03  0.47000000000E+01 0.  1.
        -11    1    4    4    0    0 -0.35444400602E+01  0.17433458680E+02  0.53776352512E+01  0.18585141855E+02  0.00000000000E+00 0.  1.
         11    1    4    4    0    0 -0.85852252100E+02  0.21136616984E+02  0.34840884449E+03  0.35945248460E+03  0.00000000000E+00 0. -1.
<mgrwt>
<rscale>  0 0.15172011E+03</rscale>
<asrwt>0</asrwt>
<pdfrwt beam="1">  1        2 0.99720977E-01 0.15844104E+03</pdfrwt>
<pdfrwt beam="2">  1       -2 0.52859813E-02 0.15844104E+03</pdfrwt>
<totfact> 0.80200765E+03</totfact>
</mgrwt>
</event>
<event>
 8    1  0.8504141E-006  0.1263032E+03  0.7546771E-02  0.1246983E+00
         -1   -1    0    0    0  501 -0.00000000000E+00  0.00000000000E+00  0.21087634595E+03  0.21087634595E+03  0.00000000000E+00 0.  1.
          1   -1    0    0  501    0  0.00000000000E+00 -0.00000000000E+00 -0.58661448055E+02  0.58661448055E+02  0.00000000000E+00 0. -1.
         23    2    1    2    0    0  0.17864099533E+02 -0.30250856986E+01  0.99184177236E+02  0.16059261553E+03  0.12499683977E+03 0.  0.
         23    2    1    2    0    0 -0.17864099533E+02  0.30250856986E+01  0.53030720660E+02  0.10894517848E+03  0.93426534691E+02 0.  0.
          5    1    3    3  502    0 -0.51267430460E+02 -0.26810110306E+01  0.66047830078E+02  0.83785100729E+02  0.47000000000E+01 0.  1.
         -5    1    3    3    0  502  0.69131529993E+02 -0.34407466805E+00  0.33136347157E+02  0.76807514798E+02  0.47000000000E+01 0.  1.
        -11    1    4    4    0    0 -0.31890650131E+02 -0.76333139425E+01  0.74367216822E+02  0.81275851182E+02  0.00000000000E+00 0.  1.
         11    1    4    4    0    0  0.14026550598E+02  0.10658399641E+02 -0.21336496162E+02  0.27669327297E+02  0.00000000000E+00 0. -1.
<mgrwt>
<rscale>  0 0.11767453E+03</rscale>
<asrwt>0</asrwt>
<pdfrwt beam="2">  1        1 0.90248383E-02 0.12630316E+03</pdfrwt>
<pdfrwt beam="1">  1       -1 0.32442514E-01 0.12630316E+03</pdfrwt>
<totfact> 0.62171601E+03</totfact>
</mgrwt>
</event>
<event>
 8    1  0.8504141E-006  0.2239591E+03  0.7546771E-02  0.1133570E+00
         -2   -1    0    0    0  501 -0.00000000000E+00  0.00000000000E+00  0.75046287614E+03  0.75046287614E+03  0.00000000000E+00 0. -1.
          2   -1    0    0  501    0  0.00000000000E+00 -0.00000000000E+00 -0.66865899514E+02  0.66865899514E+02  0.00000000000E+00 0.  1.
         23    2    1    2    0    0  0.15457529943E+03 -0.10316802681E+03  0.45305591690E+03  0.50538829806E+03  0.12498201080E+03 0.  0.
         23    2    1    2    0    0 -0.15457529943E+03  0.10316802681E+03  0.23054105972E+03  0.31194047760E+03  0.98084231136E+02 0.  0.
          5    1    3    3  502    0  0.12024961146E+03 -0.37586733917E+02  0.16338362738E+03  0.20637110097E+03  0.47000000000E+01 0.  1.
         -5    1    3    3    0  502  0.34325687969E+02 -0.65581292893E+02  0.28967228953E+03  0.29901719708E+03  0.47000000000E+01 0.  1.
        -11    1    4    4    0    0 -0.98686571086E+02  0.11482305686E+03  0.18398950234E+03  0.23827612275E+03  0.00000000000E+00 0.  1.
         11    1    4    4    0    0 -0.55888728339E+02 -0.11655030051E+02  0.46551557379E+02  0.73664354849E+02  0.00000000000E+00 0. -1.
<mgrwt>
<rscale>  0 0.22042065E+03</rscale>
<asrwt>0</asrwt>
<pdfrwt beam="2">  1        2 0.10287062E-01 0.22395908E+03</pdfrwt>
<pdfrwt beam="1">  1       -2 0.11545582E+00 0.22395908E+03</pdfrwt>
<totfact> 0.37652634E+02</totfact>
</mgrwt>
</event>
<event>
 8    1  0.8504141E-006  0.1348995E+03  0.7546771E-02  0.1235701E+00
          1   -1    0    0  501    0  0.00000000000E+00  0.00000000000E+00  0.11453010296E+04  0.11453010296E+04  0.00000000000E+00 0. -1.
         -1   -1    0    0    0  501 -0.00000000000E+00 -0.00000000000E+00 -0.11919058460E+02  0.11919058460E+02  0.00000000000E+00 0.  1.
         23    2    1    2    0    0  0.16886627210E+02 -0.45640829534E+02  0.69649464198E+03  0.70943826324E+03  0.12581581596E+03 0.  0.
         23    2    1    2    0    0 -0.16886627210E+02  0.45640829534E+02  0.43688732912E+03  0.44778182478E+03  0.85263009308E+02 0.  0.
          5    1    3    3  502    0 -0.98051943250E+01 -0.72119055623E+02  0.61787426131E+03  0.62216395975E+03  0.47000000000E+01 0. -1.
         -5    1    3    3    0  502  0.26691821535E+02  0.26478226089E+02  0.78620380667E+02  0.87274303491E+02  0.47000000000E+01 0.  1.
        -11    1    4    4    0    0 -0.44446639374E+02  0.13292422915E+01  0.16236684073E+03  0.16834566108E+03  0.00000000000E+00 0. -1.
         11    1    4    4    0    0  0.27560012164E+02  0.44311587243E+02  0.27452048839E+03  0.27943616370E+03  0.00000000000E+00 0.  1.
<mgrwt>
<rscale>  0 0.12459659E+03</rscale>
<asrwt>0</asrwt>
<pdfrwt beam="1">  1        1 0.17620007E+00 0.13489946E+03</pdfrwt>
<pdfrwt beam="2">  1       -1 0.18337022E-02 0.13489946E+03</pdfrwt>
<totfact> 0.94332396E+03</totfact>
</mgrwt>
</event>
<event>
 8    1  0.8504141E-006  0.1469761E+03  0.7546771E-02  0.1214059E+00
         -2   -1    0    0    0  501 -0.00000000000E+00  0.00000000000E+00  0.16326541926E+03  0.16326541926E+03  0.00000000000E+00 0.  1.
          2   -1    0    0  501    0  0.00000000000E+00 -0.00000000000E+00 -0.13808585199E+03  0.13808585199E+03  0.00000000000E+00 0. -1.
         23    2    1    2    0    0  0.63192552722E+02  0.44540324981E+02  0.83142934991E+02  0.16886305252E+03  0.12499937439E+03 0.  0.
         23    2    1    2    0    0 -0.63192552722E+02 -0.44540324981E+02 -0.57963367719E+02  0.13248821873E+03  0.90643459972E+02 0.  0.
          5    1    3    3  502    0  0.31725214306E+01  0.77223618670E+02  0.54093325813E+02  0.94454910249E+02  0.47000000000E+01 0. -1.
         -5    1    3    3    0  502  0.60020031291E+02 -0.32683293688E+02  0.29049609178E+02  0.74408142269E+02  0.47000000000E+01 0. -1.
        -11    1    4    4    0    0 -0.23753015590E+02 -0.40357578118E+02  0.15227430568E+02  0.49242405535E+02  0.00000000000E+00 0.  1.
         11    1    4    4    0    0 -0.39439537131E+02 -0.41827468631E+01 -0.73190798287E+02  0.83245813194E+02  0.00000000000E+00 0. -1.
<mgrwt>
<rscale>  0 0.13945877E+03</rscale>
<asrwt>0</asrwt>
<pdfrwt beam="2">  1        2 0.21243977E-01 0.14697613E+03</pdfrwt>
<pdfrwt beam="1">  1       -2 0.25117757E-01 0.14697613E+03</pdfrwt>
<totfact> 0.35237974E+03</totfact>
</mgrwt>
</event>
<event>
 8    1  0.8504141E-006  0.1324592E+03  0.7546771E-02  0.1237651E+00
          1   -1    0    0  501    0  0.00000000000E+00  0.00000000000E+00  0.79767080911E+02  0.79767080911E+02  0.00000000000E+00 0. -1.
         -1   -1    0    0    0  501 -0.00000000000E+00 -0.00000000000E+00 -0.17294025096E+03  0.17294025096E+03  0.00000000000E+00 0.  1.
         23    2    1    2    0    0 -0.34346634893E+02  0.27258740994E+02 -0.72251096655E+02  0.15088292738E+03  0.12499082573E+03 0.  0.
         23    2    1    2    0    0  0.34346634893E+02 -0.27258740994E+02 -0.20922073397E+02  0.10182440450E+03  0.89486009559E+02 0.  0.
          5    1    3    3  502    0 -0.18095792293E+01 -0.22726758794E+02 -0.86336801263E+02  0.89419871363E+02  0.47000000000E+01 0. -1.
         -5    1    3    3    0  502 -0.32537055664E+02  0.49985499788E+02  0.14085704607E+02  0.61463056014E+02  0.47000000000E+01 0. -1.
        -11    1    4    4    0    0 -0.97573917732E+01  0.27447660393E+02 -0.28654937134E+01  0.29271006294E+02  0.00000000000E+00 0.  1.
         11    1    4    4    0    0  0.44104026666E+02 -0.54706401387E+02 -0.18056579683E+02  0.72553398203E+02  0.00000000000E+00 0. -1.
<mgrwt>
<rscale>  0 0.12336241E+03</rscale>
<asrwt>0</asrwt>
<pdfrwt beam="1">  1        1 0.12271859E-01 0.13245919E+03</pdfrwt>
<pdfrwt beam="2">  1       -1 0.26606192E-01 0.13245919E+03</pdfrwt>
<totfact> 0.57949472E+03</totfact>
</mgrwt>
</event>
<event>
 8    1  0.8504141E-006  0.1283840E+03  0.7546771E-02  0.1240975E+00
          1   -1    0    0  501    0  0.00000000000E+00  0.00000000000E+00  0.15867995706E+03  0.15867995706E+03  0.00000000000E+00 0. -1.
         -1   -1    0    0    0  501 -0.00000000000E+00 -0.00000000000E+00 -0.89288413648E+02  0.89288413648E+02  0.00000000000E+00 0.  1.
         23    2    1    2    0    0  0.19820912097E+02 -0.21542107650E+02  0.68837339144E+02  0.14567436610E+03  0.12500204287E+03 0.  0.
         23    2    1    2    0    0 -0.19820912097E+02  0.21542107650E+02  0.55420426896E+00  0.10229400461E+03  0.98014413623E+02 0.  0.
          5    1    3    3  502    0  0.32485367139E+02 -0.63068003578E+02  0.72884973520E+02  0.10181935729E+03  0.47000000000E+01 0.  1.
         -5    1    3    3    0  502 -0.12664455042E+02  0.41525895928E+02 -0.40476343755E+01  0.43855008815E+02  0.47000000000E+01 0.  1.
        -11    1    4    4    0    0 -0.53096644450E+02 -0.11766201181E+01  0.21001089083E+02  0.57111153284E+02  0.00000000000E+00 0. -1.
         11    1    4    4    0    0  0.33275732353E+02  0.22718727768E+02 -0.20446884814E+02  0.45182851323E+02  0.00000000000E+00 0.  1.
<mgrwt>
<rscale>  0 0.12129532E+03</rscale>
<asrwt>0</asrwt>
<pdfrwt beam="1">  1        1 0.24412301E-01 0.12838396E+03</pdfrwt>
<pdfrwt beam="2">  1       -1 0.13736679E-01 0.12838396E+03</pdfrwt>
<totfact> 0.68947294E+03</totfact>
</mgrwt>
</event>
<event>
 7    1  0.8504141E-006  0.4235525E+03  0.7546771E-02  0.1074865E+00
         -2   -1    0    0    0  501 -0.00000000000E+00  0.00000000000E+00  0.19326844365E+03  0.19326844365E+03  0.00000000000E+00 0.  1.
          2   -1    0    0  501    0  0.00000000000E+00 -0.00000000000E+00 -0.42734929592E+03  0.42734929592E+03  0.00000000000E+00 0. -1.
         23    2    1    2    0    0  0.90418372328E+01  0.10715527107E+03 -0.11134159223E+03  0.17963965959E+03  0.91156185749E+02 0.  0.
          5    1    1    2  502    0  0.17854783156E+03 -0.13243576770E+03 -0.11766453243E+03  0.25156627936E+03  0.47000000000E+01 0. -1.
         -5    1    1    2    0  502 -0.18758966879E+03  0.25280496632E+02 -0.50747276076E+01  0.18941180060E+03  0.47000000000E+01 0.  1.
        -11    1    3    3    0    0 -0.32692741028E+02  0.75785906992E+02 -0.92900659095E+02  0.12426927003E+03  0.00000000000E+00 0.  1.
         11    1    3    3    0    0  0.41734578260E+02  0.31369364077E+02 -0.18440933137E+02  0.55370389561E+02  0.00000000000E+00 0. -1.
<mgrwt>
<rscale>  0 0.32171005E+03</rscale>
<asrwt>0</asrwt>
<pdfrwt beam="2">  1        2 0.65746044E-01 0.42355252E+03</pdfrwt>
<pdfrwt beam="1">  1       -2 0.29733607E-01 0.42355252E+03</pdfrwt>
<totfact> 0.77355355E+02</totfact>
</mgrwt>
</event>
<event>
 8    1  0.8504141E-006  0.1284494E+03  0.7546771E-02  0.1244166E+00
         -4   -1    0    0    0  501 -0.00000000000E+00  0.00000000000E+00  0.10805586765E+03  0.10805586765E+03  0.00000000000E+00 0.  1.
          4   -1    0    0  501    0  0.00000000000E+00 -0.00000000000E+00 -0.11671830341E+03  0.11671830341E+03  0.00000000000E+00 0. -1.
         23    2    1    2    0    0 -0.21792356543E+02 -0.19980527835E+02 -0.11624042423E+02  0.12897426613E+03  0.12500045866E+03 0.  0.
         23    2    1    2    0    0  0.21792356543E+02  0.19980527835E+02  0.29616066668E+01  0.95799904934E+02  0.91075366456E+02 0.  0.
          5    1    3    3  502    0 -0.22776358724E+02  0.12194952654E+02  0.51585369074E+02  0.57884537568E+02  0.47000000000E+01 0.  1.
         -5    1    3    3    0  502  0.98400218119E+00 -0.32175480489E+02 -0.63209411497E+02  0.71089728561E+02  0.47000000000E+01 0.  1.
        -11    1    4    4    0    0  0.22813126816E+02  0.42089359130E+02  0.33249014284E+02  0.58287647559E+02  0.00000000000E+00 0.  1.
         11    1    4    4    0    0 -0.10207702727E+01 -0.22108831296E+02 -0.30287407617E+02  0.37512257375E+02  0.00000000000E+00 0. -1.
<mgrwt>
<rscale>  0 0.11935438E+03</rscale>
<asrwt>0</asrwt>
<pdfrwt beam="2">  1        4 0.17956662E-01 0.12844938E+03</pdfrwt>
<pdfrwt beam="1">  1       -4 0.16623980E-01 0.12844938E+03</pdfrwt>
<totfact> 0.14009196E+03</totfact>
</mgrwt>
</event>
<event>
 8    1  0.8504141E-006  0.1600177E+03  0.7546771E-02  0.1194489E+00
         -2   -1    0    0    0  501 -0.00000000000E+00  0.00000000000E+00  0.12303912594E+04  0.12303912594E+04  0.00000000000E+00 0.  1.
          2   -1    0    0  501    0  0.00000000000E+00 -0.00000000000E+00 -0.22632336350E+02  0.22632336350E+02  0.00000000000E+00 0. -1.
         23    2    1    2    0    0 -0.87400128553E+02  0.48907418735E+02  0.90622601288E+03  0.92024521744E+03  0.12479966240E+03 0.  0.
         23    2    1    2    0    0  0.87400128553E+02 -0.48907418735E+02  0.30153291015E+03  0.33277837829E+03  0.98937531159E+02 0.  0.
          5    1    3    3  502    0 -0.10490335626E+02 -0.28238834751E+02  0.62900946227E+02  0.69900629224E+02  0.47000000000E+01 0.  1.
         -5    1    3    3    0  502 -0.76909792927E+02  0.77146253485E+02  0.84332506665E+03  0.85034458822E+03  0.47000000000E+01 0.  1.
        -11    1    4    4    0    0  0.41092482246E+02 -0.76155396643E+02  0.19962663345E+03  0.21757534171E+03  0.00000000000E+00 0. -1.
         11    1    4    4    0    0  0.46307646307E+02  0.27247977908E+02  0.10190627670E+03  0.11520303658E+03  0.00000000000E+00 0.  1.
<mgrwt>
<rscale>  0 0.15497522E+03</rscale>
<asrwt>0</asrwt>
<pdfrwt beam="2">  1        2 0.34818989E-02 0.16001773E+03</pdfrwt>
<pdfrwt beam="1">  1       -2 0.18929091E+00 0.16001773E+03</pdfrwt>
<totfact> 0.42627761E+02</totfact>
</mgrwt>
</event>
<event>
 8    1  0.8504141E-006  0.1336178E+03  0.7546771E-02  0.1233675E+00
          1   -1    0    0  501    0  0.00000000000E+00  0.00000000000E+00  0.41001392826E+02  0.41001392826E+02  0.00000000000E+00 0. -1.
         -1   -1    0    0    0  501 -0.00000000000E+00 -0.00000000000E+00 -0.34823313739E+03  0.34823313739E+03  0.00000000000E+00 0.  1.
         23    2    1    2    0    0 -0.31438294036E+02 -0.49170311557E+02 -0.16763377925E+03  0.21437071788E+03  0.12019831476E+03 0.  0.
         23    2    1    2    0    0  0.31438294036E+02  0.49170311557E+02 -0.13959796532E+03  0.17486381233E+03  0.87656574614E+02 0.  0.
          5    1    3    3  502    0 -0.45592080219E+02 -0.83506956684E+02 -0.13118136442E+03  0.16211936949E+03  0.47000000000E+01 0. -1.
         -5    1    3    3    0  502  0.14153786183E+02  0.34336645127E+02 -0.36452414831E+02  0.52251348393E+02  0.47000000000E+01 0.  1.
        -11    1    4    4    0    0  0.12539733640E+02  0.51994078159E+02 -0.25636640845E+02  0.59311604574E+02  0.00000000000E+00 0. -1.
         11    1    4    4    0    0  0.18898560396E+02 -0.28237666022E+01 -0.11396132447E+03  0.11555220776E+03  0.00000000000E+00 0.  1.
<mgrwt>
<rscale>  0 0.12589647E+03</rscale>
<asrwt>0</asrwt>
<pdfrwt beam="1">  1        1 0.63079067E-02 0.13361782E+03</pdfrwt>
<pdfrwt beam="2">  1       -1 0.53574328E-01 0.13361782E+03</pdfrwt>
<totfact> 0.41632552E+03</totfact>
</mgrwt>
</event>
<event>
 7    1  0.8504141E-006  0.1515293E+03  0.7546771E-02  0.1230548E+00
          2   -1    0    0  501    0  0.00000000000E+00  0.00000000000E+00  0.44053085725E+03  0.44053085725E+03  0.00000000000E+00 0. -1.
         -2   -1    0    0    0  501 -0.00000000000E+00 -0.00000000000E+00 -0.44634555736E+02  0.44634555736E+02  0.00000000000E+00 0.  1.
         23    2    1    2    0    0  0.85502998679E+01  0.36317604448E+02  0.29063570907E+03  0.30066355741E+03  0.67360102047E+02 0.  0.
          5    1    1    2  502    0  0.47854398411E+02 -0.51210155833E+02  0.10456626012E+03  0.12597109296E+03  0.47000000000E+01 0. -1.
         -5    1    1    2    0  502 -0.56404698279E+02  0.14892551386E+02  0.69433232893E+00  0.58530762613E+02  0.47000000000E+01 0.  1.
        -11    1    3    3    0    0  0.85724111900E+01 -0.17363038425E+02  0.41292157252E+02  0.45607056335E+02  0.00000000000E+00 0. -1.
         11    1    3    3    0    0 -0.22111322172E-01  0.53680642873E+02  0.24934355181E+03  0.25505650107E+03  0.00000000000E+00 0.  1.
<mgrwt>
<rscale>  0 0.12793797E+03</rscale>
<asrwt>0</asrwt>
<pdfrwt beam="1">  1        2 0.67773975E-01 0.15152934E+03</pdfrwt>
<pdfrwt beam="2">  1       -2 0.68668550E-02 0.15152934E+03</pdfrwt>
<totfact> 0.82760109E+03</totfact>
</mgrwt>
</event>
<event>
 8    1  0.8504141E-006  0.1290123E+03  0.7546771E-02  0.1238453E+00
          2   -1    0    0  501    0  0.00000000000E+00  0.00000000000E+00  0.23636119786E+03  0.23636119786E+03  0.00000000000E+00 0. -1.
         -2   -1    0    0    0  501 -0.00000000000E+00 -0.00000000000E+00 -0.11244201421E+03  0.11244201421E+03  0.00000000000E+00 0.  1.
         23    2    1    2    0    0  0.52722135368E+02 -0.69071810695E+01 -0.55431019382E+02  0.14041645093E+03  0.11754509378E+03 0.  0.
         23    2    1    2    0    0 -0.52722135368E+02  0.69071810695E+01  0.17935020303E+03  0.20838676114E+03  0.91821643314E+02 0.  0.
          5    1    3    3  502    0 -0.15370468861E+02 -0.41458353634E+02  0.23790454543E+01  0.44528600431E+02  0.47000000000E+01 0. -1.
         -5    1    3    3    0  502  0.68092604229E+02  0.34551172564E+02 -0.57810064836E+02  0.95887850495E+02  0.47000000000E+01 0.  1.
        -11    1    4    4    0    0 -0.40374627277E+02  0.44517795243E+02  0.70940321567E+02  0.92975662649E+02  0.00000000000E+00 0. -1.
         11    1    4    4    0    0 -0.12347508091E+02 -0.37610614173E+02  0.10840988147E+03  0.11541109849E+03  0.00000000000E+00 0.  1.
<mgrwt>
<rscale>  0 0.12285949E+03</rscale>
<asrwt>0</asrwt>
<pdfrwt beam="1">  1        2 0.36363261E-01 0.12901233E+03</pdfrwt>
<pdfrwt beam="2">  1       -2 0.17298771E-01 0.12901233E+03</pdfrwt>
<totfact> 0.36699064E+03</totfact>
</mgrwt>
</event>
<event>
 8    1  0.8504141E-006  0.1517969E+03  0.7546771E-02  0.1207190E+00
         -2   -1    0    0    0  501 -0.00000000000E+00  0.00000000000E+00  0.15789162884E+03  0.15789162884E+03  0.00000000000E+00 0.  1.
          2   -1    0    0  501    0  0.00000000000E+00 -0.00000000000E+00 -0.17502608528E+03  0.17502608528E+03  0.00000000000E+00 0. -1.
         23    2    1    2    0    0 -0.49394452742E+02  0.70548145359E+02  0.82625450638E+02  0.17282726184E+03  0.12500177826E+03 0.  0.
         23    2    1    2    0    0  0.49394452742E+02 -0.70548145359E+02 -0.99759907082E+02  0.16009045228E+03  0.90884878136E+02 0.  0.
          5    1    3    3  502    0 -0.20919204896E+02  0.93679580386E+02  0.93697508408E+02  0.13421918640E+03  0.47000000000E+01 0. -1.
         -5    1    3    3    0  502 -0.28475247847E+02 -0.23131435027E+02 -0.11072057770E+02  0.38608075445E+02  0.47000000000E+01 0. -1.
        -11    1    4    4    0    0  0.31023266868E+01  0.12441786292E+02  0.89985012025E+01  0.15665104561E+02  0.00000000000E+00 0.  1.
         11    1    4    4    0    0  0.46292126055E+02 -0.82989931651E+02 -0.10875840828E+03  0.14442534772E+03  0.00000000000E+00 0. -1.
<mgrwt>
<rscale>  0 0.14466209E+03</rscale>
<asrwt>0</asrwt>
<pdfrwt beam="2">  1        2 0.26927090E-01 0.15179690E+03</pdfrwt>
<pdfrwt beam="1">  1       -2 0.24291020E-01 0.15179690E+03</pdfrwt>
<totfact> 0.28752456E+03</totfact>
</mgrwt>
</event>
<event>
 8    1  0.8504141E-006  0.1253012E+03  0.7546771E-02  0.1264818E+00
         -1   -1    0    0    0  501 -0.00000000000E+00  0.00000000000E+00  0.23391605588E+02  0.23391605588E+02  0.00000000000E+00 0. -1.
          1   -1    0    0  501    0  0.00000000000E+00 -0.00000000000E+00 -0.44149650285E+03  0.44149650285E+03  0.00000000000E+00 0.  1.
         23    2    1    2    0    0  0.14883666503E+01 -0.86064359541E+01 -0.19747559985E+03  0.23387390322E+03  0.12499641633E+03 0.  0.
         23    2    1    2    0    0 -0.14883666503E+01  0.86064359541E+01 -0.22062929741E+03  0.23101420522E+03  0.67926358372E+02 0.  0.
          5    1    3    3  502    0 -0.51203511783E+02 -0.21792910293E+02 -0.15502222277E+03  0.16477472533E+03  0.47000000000E+01 0. -1.
         -5    1    3    3    0  502  0.52691878433E+02  0.13186474339E+02 -0.42453377083E+02  0.69099177883E+02  0.47000000000E+01 0. -1.
        -11    1    4    4    0    0 -0.26162530362E+02  0.26359663953E+02 -0.14009590103E+03  0.14493505913E+03  0.00000000000E+00 0. -1.
         11    1    4    4    0    0  0.24674163711E+02 -0.17753227999E+02 -0.80533396377E+02  0.86079146089E+02  0.00000000000E+00 0.  1.
<mgrwt>
<rscale>  0 0.10773733E+03</rscale>
<asrwt>0</asrwt>
<pdfrwt beam="2">  1        1 0.67922535E-01 0.12530120E+03</pdfrwt>
<pdfrwt beam="1">  1       -1 0.35987088E-02 0.12530120E+03</pdfrwt>
<totfact> 0.14388926E+04</totfact>
</mgrwt>
</event>
<event>
 8    1  0.8504141E-006  0.1254877E+03  0.7546771E-02  0.1249929E+00
          1   -1    0    0  501    0  0.00000000000E+00  0.00000000000E+00  0.18883342720E+02  0.18883342720E+02  0.00000000000E+00 0. -1.
         -1   -1    0    0    0  501 -0.00000000000E+00 -0.00000000000E+00 -0.62459899334E+03  0.62459899334E+03  0.00000000000E+00 0.  1.
         23    2    1    2    0    0 -0.94342395983E+00  0.11041239058E+02 -0.36523950655E+03  0.38619563793E+03  0.12499749839E+03 0.  0.
         23    2    1    2    0    0  0.94342395983E+00 -0.11041239058E+02 -0.24047614408E+03  0.25728669814E+03  0.90801267385E+02 0.  0.
          5    1    3    3  502    0 -0.59648771752E+02 -0.13544077897E+02 -0.16522249819E+03  0.17624409756E+03  0.47000000000E+01 0.  1.
         -5    1    3    3    0  502  0.58705347792E+02  0.24585316956E+02 -0.20001700836E+03  0.20995154037E+03  0.47000000000E+01 0.  1.
        -11    1    4    4    0    0  0.41640267956E+02 -0.63471868183E+01 -0.67810452229E+02  0.79827665176E+02  0.00000000000E+00 0.  1.
         11    1    4    4    0    0 -0.40696843996E+02 -0.46940522402E+01 -0.17266569185E+03  0.17745903296E+03  0.00000000000E+00 0. -1.
<mgrwt>
<rscale>  0 0.11595155E+03</rscale>
<asrwt>0</asrwt>
<pdfrwt beam="1">  1        1 0.29051303E-02 0.12548774E+03</pdfrwt>
<pdfrwt beam="2">  1       -1 0.96092132E-01 0.12548774E+03</pdfrwt>
<totfact> 0.37488779E+03</totfact>
</mgrwt>
</event>
<event>
 8    1  0.8504141E-006  0.1289712E+03  0.7546771E-02  0.1243886E+00
          1   -1    0    0  501    0  0.00000000000E+00  0.00000000000E+00  0.65178674260E+02  0.65178674260E+02  0.00000000000E+00 0. -1.
         -1   -1    0    0    0  501 -0.00000000000E+00 -0.00000000000E+00 -0.19406549864E+03  0.19406549864E+03  0.00000000000E+00 0.  1.
         23    2    1    2    0    0  0.27819101895E+02  0.15355732667E+02 -0.85104320225E+02  0.15451963285E+03  0.12499548255E+03 0.  0.
         23    2    1    2    0    0 -0.27819101895E+02 -0.15355732667E+02 -0.43782504157E+02  0.10472454005E+03  0.89669507991E+02 0.  0.
          5    1    3    3  502    0  0.34601399715E+02  0.48696306484E+02 -0.10039909674E+03  0.11692157951E+03  0.47000000000E+01 0.  1.
         -5    1    3    3    0  502 -0.67822978208E+01 -0.33340573817E+02  0.15294776520E+02  0.37598053340E+02  0.47000000000E+01 0.  1.
        -11    1    4    4    0    0 -0.48176605070E+02 -0.27756015230E+02 -0.83615734116E+00  0.55606481786E+02  0.00000000000E+00 0. -1.
         11    1    4    4    0    0  0.20357503176E+02  0.12400282563E+02 -0.42946346816E+02  0.49118058268E+02  0.00000000000E+00 0.  1.
<mgrwt>
<rscale>  0 0.11952330E+03</rscale>
<asrwt>0</asrwt>
<pdfrwt beam="1">  1        1 0.10027488E-01 0.12897120E+03</pdfrwt>
<pdfrwt beam="2">  1       -1 0.29856231E-01 0.12897120E+03</pdfrwt>
<totfact> 0.62282312E+03</totfact>
</mgrwt>
</event>
<event>
 8    1  0.8504141E-006  0.1538597E+03  0.7546771E-02  0.1204463E+00
          2   -1    0    0  501    0  0.00000000000E+00  0.00000000000E+00  0.12897511936E+03  0.12897511936E+03  0.00000000000E+00 0. -1.
         -2   -1    0    0    0  501 -0.00000000000E+00 -0.00000000000E+00 -0.15858743184E+03  0.15858743184E+03  0.00000000000E+00 0.  1.
         23    2    1    2    0    0 -0.70009324278E+02  0.56098389865E+02 -0.41921014747E+02  0.15946838390E+03  0.12499783661E+03 0.  0.
         23    2    1    2    0    0  0.70009324278E+02 -0.56098389865E+02  0.12308702274E+02  0.12809416730E+03  0.90599540358E+02 0.  0.
          5    1    3    3  502    0 -0.29055671490E+02  0.87276925227E+02 -0.53479064731E+02  0.10650631008E+03  0.47000000000E+01 0. -1.
         -5    1    3    3    0  502 -0.40953652788E+02 -0.31178535362E+02  0.11558049984E+02  0.52962073821E+02  0.47000000000E+01 0. -1.
        -11    1    4    4    0    0  0.36556520463E+02 -0.67299565205E+02  0.36977222504E+02  0.85046608688E+02  0.00000000000E+00 0. -1.
         11    1    4    4    0    0  0.33452803815E+02  0.11201175340E+02 -0.24668520230E+02  0.43047558612E+02  0.00000000000E+00 0.  1.
<mgrwt>
<rscale>  0 0.14679874E+03</rscale>
<asrwt>0</asrwt>
<pdfrwt beam="1">  1        2 0.19842326E-01 0.15385966E+03</pdfrwt>
<pdfrwt beam="2">  1       -2 0.24398066E-01 0.15385966E+03</pdfrwt>
<totfact> 0.40151198E+03</totfact>
</mgrwt>
</event>
<event>
 8    1  0.8504141E-006  0.1567742E+03  0.7546771E-02  0.1199920E+00
         -1   -1    0    0    0  501 -0.00000000000E+00  0.00000000000E+00  0.52317911703E+02  0.52317911703E+02  0.00000000000E+00 0.  1.
          1   -1    0    0  501    0  0.00000000000E+00 -0.00000000000E+00 -0.43760366152E+03  0.43760366152E+03  0.00000000000E+00 0. -1.
         23    2    1    2    0    0  0.86997262859E+02  0.43398789571E+02 -0.13668169700E+03  0.20799045038E+03  0.12298846481E+03 0.  0.
         23    2    1    2    0    0 -0.86997262859E+02 -0.43398789571E+02 -0.24860405282E+03  0.28193112284E+03  0.90714961640E+02 0.  0.
          5    1    3    3  502    0  0.14944877414E+02 -0.42064735141E+02 -0.39844753856E+02  0.60020710703E+02  0.47000000000E+01 0.  1.
         -5    1    3    3    0  502  0.72052385445E+02  0.85463524712E+02 -0.96836943139E+02  0.14796973968E+03  0.47000000000E+01 0.  1.
        -11    1    4    4    0    0 -0.17713073473E+02  0.24403665736E+02 -0.28794341430E+02  0.41694195898E+02  0.00000000000E+00 0.  1.
         11    1    4    4    0    0 -0.69284189386E+02 -0.67802455307E+02 -0.21980971139E+03  0.24023692694E+03  0.00000000000E+00 0. -1.
<mgrwt>
<rscale>  0 0.15045090E+03</rscale>
<asrwt>0</asrwt>
<pdfrwt beam="2">  1        1 0.67323637E-01 0.15677417E+03</pdfrwt>
<pdfrwt beam="1">  1       -1 0.80489099E-02 0.15677417E+03</pdfrwt>
<totfact> 0.44667474E+03</totfact>
</mgrwt>
</event>
<event>
 8    1  0.8504141E-006  0.1719186E+03  0.7546771E-02  0.1183023E+00
         -1   -1    0    0    0  501 -0.00000000000E+00  0.00000000000E+00  0.86063380924E+03  0.86063380924E+03  0.00000000000E+00 0.  1.
          1   -1    0    0  501    0  0.00000000000E+00 -0.00000000000E+00 -0.29434754384E+02  0.29434754384E+02  0.00000000000E+00 0. -1.
         23    2    1    2    0    0 -0.11705520547E+03 -0.15174468628E+02  0.45845477592E+03  0.48962922826E+03  0.12499525579E+03 0.  0.
         23    2    1    2    0    0  0.11705520547E+03  0.15174468628E+02  0.37274427893E+03  0.40043933537E+03  0.86493804430E+02 0.  0.
          5    1    3    3  502    0 -0.99021348459E+02 -0.40243895109E+02  0.44110922701E+03  0.45389893005E+03  0.47000000000E+01 0. -1.
         -5    1    3    3    0  502 -0.18033857015E+02  0.25069426481E+02  0.17345548909E+02  0.35730298206E+02  0.47000000000E+01 0. -1.
        -11    1    4    4    0    0  0.56075122806E+01 -0.20524999130E+02  0.21650091518E+02  0.30355333074E+02  0.00000000000E+00 0. -1.
         11    1    4    4    0    0  0.11144769319E+03  0.35699467758E+02  0.35109418742E+03  0.37008400229E+03  0.00000000000E+00 0.  1.
<mgrwt>
<rscale>  0 0.16513067E+03</rscale>
<asrwt>0</asrwt>
<pdfrwt beam="2">  1        1 0.45284244E-02 0.17191858E+03</pdfrwt>
<pdfrwt beam="1">  1       -1 0.13240518E+00 0.17191858E+03</pdfrwt>
<totfact> 0.98391239E+02</totfact>
</mgrwt>
</event>
<event>
 8    1  0.8504141E-006  0.1816457E+03  0.7546771E-02  0.1172043E+00
         -1   -1    0    0    0  501 -0.00000000000E+00  0.00000000000E+00  0.29657368283E+03  0.29657368283E+03  0.00000000000E+00 0.  1.
          1   -1    0    0  501    0  0.00000000000E+00 -0.00000000000E+00 -0.10708601987E+03  0.10708601987E+03  0.00000000000E+00 0. -1.
         23    2    1    2    0    0  0.13174009890E+03 -0.36986444257E+01  0.15983656867E+03  0.24195638555E+03  0.12500412072E+03 0.  0.
         23    2    1    2    0    0 -0.13174009890E+03  0.36986444257E+01  0.29651094292E+02  0.16170331715E+03  0.88879928870E+02 0.  0.
          5    1    3    3  502    0  0.92290708922E+02  0.53608980644E+02  0.12359660577E+03  0.16336985254E+03  0.47000000000E+01 0.  1.
         -5    1    3    3    0  502  0.39449389975E+02 -0.57307625070E+02  0.36239962900E+02  0.78586533017E+02  0.47000000000E+01 0.  1.
        -11    1    4    4    0    0 -0.57099958958E+02  0.43823695761E+02  0.27137024748E+02  0.76924246733E+02  0.00000000000E+00 0.  1.
         11    1    4    4    0    0 -0.74640139939E+02 -0.40125051335E+02  0.25140695439E+01  0.84779070416E+02  0.00000000000E+00 0. -1.
<mgrwt>
<rscale>  0 0.17568791E+03</rscale>
<asrwt>0</asrwt>
<pdfrwt beam="2">  1        1 0.16474772E-01 0.18164571E+03</pdfrwt>
<pdfrwt beam="1">  1       -1 0.45626720E-01 0.18164571E+03</pdfrwt>
<totfact> 0.15819108E+03</totfact>
</mgrwt>
</event>
<event>
 8    1  0.8504141E-006  0.1643576E+03  0.7546771E-02  0.1191235E+00
         -2   -1    0    0    0  501 -0.00000000000E+00  0.00000000000E+00  0.11789581239E+03  0.11789581239E+03  0.00000000000E+00 0. -1.
          2   -1    0    0  501    0  0.00000000000E+00 -0.00000000000E+00 -0.20031017165E+03  0.20031017165E+03  0.00000000000E+00 0.  1.
         23    2    1    2    0    0  0.67514665933E+02 -0.82647454588E+02 -0.68133904597E+02  0.17792035637E+03  0.12499836955E+03 0.  0.
         23    2    1    2    0    0 -0.67514665933E+02  0.82647454588E+02 -0.14280454662E+02  0.14028562766E+03  0.89929383836E+02 0.  0.
          5    1    3    3  502    0  0.21947909008E+02  0.28306601838E+02  0.63090288391E+01  0.36672445546E+02  0.47000000000E+01 0. -1.
         -5    1    3    3    0  502  0.45566756925E+02 -0.11095405643E+03 -0.74442933436E+02  0.14124791083E+03  0.47000000000E+01 0. -1.
        -11    1    4    4    0    0 -0.51602736772E+02 -0.37183519436E+01 -0.55492529032E+01  0.52033285417E+02  0.00000000000E+00 0.  1.
         11    1    4    4    0    0 -0.15911929161E+02  0.86365806532E+02 -0.87312017584E+01  0.88252342244E+02  0.00000000000E+00 0. -1.
<mgrwt>
<rscale>  0 0.15777209E+03</rscale>
<asrwt>0</asrwt>
<pdfrwt beam="2">  1        2 0.30816949E-01 0.16435761E+03</pdfrwt>
<pdfrwt beam="1">  1       -2 0.18137817E-01 0.16435761E+03</pdfrwt>
<totfact> 0.41047099E+03</totfact>
</mgrwt>
</event>
<event>
 8    1  0.8504141E-006  0.2300893E+03  0.7546771E-02  0.1129572E+00
         -1   -1    0    0    0  501 -0.00000000000E+00  0.00000000000E+00  0.26089013236E+03  0.26089013236E+03  0.00000000000E+00 0.  1.
          1   -1    0    0  501    0  0.00000000000E+00 -0.00000000000E+00 -0.30335379204E+03  0.30335379204E+03  0.00000000000E+00 0. -1.
         23    2    1    2    0    0 -0.16121936389E+02 -0.19249857055E+03  0.15161749973E+03  0.27555205531E+03  0.12500180985E+03 0.  0.
         23    2    1    2    0    0  0.16121936389E+02  0.19249857055E+03 -0.19408115941E+03  0.28869186909E+03  0.91432392209E+02 0.  0.
          5    1    3    3  502    0  0.39855296983E+02 -0.99638591481E+02  0.27905589964E+02  0.11098245610E+03  0.47000000000E+01 0.  1.
         -5    1    3    3    0  502 -0.55977233372E+02 -0.92859979070E+02  0.12371190976E+03  0.16456959922E+03  0.47000000000E+01 0.  1.
        -11    1    4    4    0    0 -0.36871895561E+02  0.10639964763E+03 -0.10366601059E+03  0.15305901950E+03  0.00000000000E+00 0.  1.
         11    1    4    4    0    0  0.52993831950E+02  0.86098922922E+02 -0.90415148812E+02  0.13563284959E+03  0.00000000000E+00 0. -1.
<mgrwt>
<rscale>  0 0.22588255E+03</rscale>
<asrwt>0</asrwt>
<pdfrwt beam="2">  1        1 0.46669814E-01 0.23008926E+03</pdfrwt>
<pdfrwt beam="1">  1       -1 0.40136944E-01 0.23008926E+03</pdfrwt>
<totfact> 0.53302258E+02</totfact>
</mgrwt>
</event>
<event>
 8    1  0.8504141E-006  0.1274033E+03  0.7546771E-02  0.1245028E+00
          2   -1    0    0  501    0  0.00000000000E+00  0.00000000000E+00  0.24371681480E+03  0.24371681480E+03  0.00000000000E+00 0. -1.
         -2   -1    0    0    0  501 -0.00000000000E+00 -0.00000000000E+00 -0.55193248894E+02  0.55193248894E+02  0.00000000000E+00 0.  1.
         23    2    1    2    0    0 -0.20977979102E+02  0.12705675572E+02  0.67564137486E+02  0.14420993199E+03  0.12502032639E+03 0.  0.
         23    2    1    2    0    0  0.20977979102E+02 -0.12705675572E+02  0.12095942841E+03  0.15470013170E+03  0.93270775852E+02 0.  0.
          5    1    3    3  502    0 -0.68895501944E+02  0.77376596493E+01  0.11994019102E+02  0.70515303723E+02  0.47000000000E+01 0. -1.
         -5    1    3    3    0  502  0.47917522842E+02  0.49680159230E+01  0.55570118384E+02  0.73694628263E+02  0.47000000000E+01 0. -1.
        -11    1    4    4    0    0  0.39699985857E+02 -0.41230378576E+02  0.50150186301E+02  0.76099107620E+02  0.00000000000E+00 0.  1.
         11    1    4    4    0    0 -0.18722006755E+02  0.28524703003E+02  0.70809242114E+02  0.78601024085E+02  0.00000000000E+00 0. -1.
<mgrwt>
<rscale>  0 0.11883690E+03</rscale>
<asrwt>0</asrwt>
<pdfrwt beam="1">  1        2 0.37494894E-01 0.12740326E+03</pdfrwt>
<pdfrwt beam="2">  1       -2 0.84912692E-02 0.12740326E+03</pdfrwt>
<totfact> 0.11070339E+04</totfact>
</mgrwt>
</event>
<event>
 8    1  0.8504141E-006  0.1561719E+03  0.7546771E-02  0.1201250E+00
         -3   -1    0    0    0  501 -0.00000000000E+00  0.00000000000E+00  0.50881822496E+03  0.50881822496E+03  0.00000000000E+00 0.  1.
          3   -1    0    0  501    0  0.00000000000E+00 -0.00000000000E+00 -0.41659935135E+02  0.41659935135E+02  0.00000000000E+00 0. -1.
         23    2    1    2    0    0 -0.10566795040E+02  0.93010276262E+02  0.30080158060E+03  0.33892660422E+03  0.12500833375E+03 0.  0.
         23    2    1    2    0    0  0.10566795040E+02 -0.93010276262E+02  0.16635670923E+03  0.21155155588E+03  0.91197244706E+02 0.  0.
          5    1    3    3  502    0  0.20808732968E+01  0.88448570998E+02  0.85403805587E+02  0.12305844040E+03  0.47000000000E+01 0. -1.
         -5    1    3    3    0  502 -0.12647668336E+02  0.45617052644E+01  0.21539777501E+03  0.21586816382E+03  0.47000000000E+01 0. -1.
        -11    1    4    4    0    0 -0.28323500631E+02 -0.86515136173E+02  0.11025081866E+03  0.14297668513E+03  0.00000000000E+00 0. -1.
         11    1    4    4    0    0  0.38890295670E+02 -0.64951400894E+01  0.56105890570E+02  0.68574870753E+02  0.00000000000E+00 0.  1.
<mgrwt>
<rscale>  0 0.14936936E+03</rscale>
<asrwt>0</asrwt>
<pdfrwt beam="2">  1        3 0.64092212E-02 0.15617187E+03</pdfrwt>
<pdfrwt beam="1">  1       -3 0.78279722E-01 0.15617187E+03</pdfrwt>
<totfact> 0.56572054E+02</totfact>
</mgrwt>
</event>
<event>
 8    1  0.8504141E-006  0.1278923E+03  0.7546771E-02  0.1246056E+00
         -2   -1    0    0    0  501 -0.00000000000E+00  0.00000000000E+00  0.16649579779E+03  0.16649579779E+03  0.00000000000E+00 0.  1.
          2   -1    0    0  501    0  0.00000000000E+00 -0.00000000000E+00 -0.75593834633E+02  0.75593834633E+02  0.00000000000E+00 0. -1.
         23    2    1    2    0    0  0.72265895689E+01 -0.26050020816E+02  0.72139376141E+02  0.14683506677E+03  0.12500248022E+03 0.  0.
         23    2    1    2    0    0 -0.72265895689E+01  0.26050020816E+02  0.18762587017E+02  0.95254565655E+02  0.89389990632E+02 0.  0.
          5    1    3    3  502    0  0.26545973618E+02  0.20658420723E+02  0.87448607429E+02  0.93812621770E+02  0.47000000000E+01 0. -1.
         -5    1    3    3    0  502 -0.19319384049E+02 -0.46708441540E+02 -0.15309231288E+02  0.53022445000E+02  0.47000000000E+01 0. -1.
        -11    1    4    4    0    0  0.12835049269E+02 -0.30579014616E+02  0.41207249587E+01  0.33418482892E+02  0.00000000000E+00 0.  1.
         11    1    4    4    0    0 -0.20061638838E+02  0.56629035432E+02  0.14641862059E+02  0.61836082763E+02  0.00000000000E+00 0. -1.
<mgrwt>
<rscale>  0 0.11822427E+03</rscale>
<asrwt>0</asrwt>
<pdfrwt beam="2">  1        2 0.11629821E-01 0.12789233E+03</pdfrwt>
<pdfrwt beam="1">  1       -2 0.25614738E-01 0.12789233E+03</pdfrwt>
<totfact> 0.68060171E+03</totfact>
</mgrwt>
</event>
<event>
 8    1  0.8504141E-006  0.1253751E+03  0.7546771E-02  0.1253491E+00
          2   -1    0    0  501    0  0.00000000000E+00  0.00000000000E+00  0.22820018613E+03  0.22820018613E+03  0.00000000000E+00 0. -1.
         -2   -1    0    0    0  501 -0.00000000000E+00 -0.00000000000E+00 -0.64298426494E+02  0.64298426494E+02  0.00000000000E+00 0.  1.
         23    2    1    2    0    0  0.93044550923E+01 -0.98869102503E+00  0.22631767434E+02  0.12740138206E+03  0.12502545684E+03 0.  0.
         23    2    1    2    0    0 -0.93044550923E+01  0.98869102503E+00  0.14126999220E+03  0.16509723056E+03  0.84925464076E+02 0.  0.
          5    1    3    3  502    0  0.32556417203E+02  0.29453320339E+02  0.59456489141E+02  0.74057967033E+02  0.47000000000E+01 0. -1.
         -5    1    3    3    0  502 -0.23251962110E+02 -0.30442011364E+02 -0.36824721707E+02  0.53343415026E+02  0.47000000000E+01 0. -1.
        -11    1    4    4    0    0 -0.65863565693E+01 -0.41784335989E+02  0.63499107918E+02  0.76298411080E+02  0.00000000000E+00 0.  1.
         11    1    4    4    0    0 -0.27180985229E+01  0.42773027014E+02  0.77770884279E+02  0.88798819480E+02  0.00000000000E+00 0. -1.
<mgrwt>
<rscale>  0 0.11391292E+03</rscale>
<asrwt>0</asrwt>
<pdfrwt beam="1">  1        2 0.35107720E-01 0.12537510E+03</pdfrwt>
<pdfrwt beam="2">  1       -2 0.98920658E-02 0.12537510E+03</pdfrwt>
<totfact> 0.93495515E+03</totfact>
</mgrwt>
</event>
<event>
 8    1  0.8504141E-006  0.1855496E+03  0.7546771E-02  0.1167797E+00
          1   -1    0    0  501    0  0.00000000000E+00  0.00000000000E+00  0.92469313642E+03  0.92469313642E+03  0.00000000000E+00 0. -1.
         -1   -1    0    0    0  501 -0.00000000000E+00 -0.00000000000E+00 -0.36558246149E+02  0.36558246149E+02  0.00000000000E+00 0.  1.
         23    2    1    2    0    0  0.83921216496E+02  0.10845034726E+03  0.32085272713E+03  0.37064150501E+03  0.12499761730E+03 0.  0.
         23    2    1    2    0    0 -0.83921216496E+02 -0.10845034726E+03  0.56728216314E+03  0.59060987756E+03  0.90590984413E+02 0.  0.
          5    1    3    3  502    0  0.57707295208E+02  0.12891630591E+03  0.19786902030E+03  0.24315383000E+03  0.47000000000E+01 0. -1.
         -5    1    3    3    0  502  0.26213921287E+02 -0.20465958656E+02  0.12298370683E+03  0.12748767501E+03  0.47000000000E+01 0. -1.
        -11    1    4    4    0    0 -0.80651801712E+02 -0.50933536210E+02  0.44929626003E+03  0.45931042608E+03  0.00000000000E+00 0. -1.
         11    1    4    4    0    0 -0.32694147834E+01 -0.57516811046E+02  0.11798590311E+03  0.13129945148E+03  0.00000000000E+00 0.  1.
<mgrwt>
<rscale>  0 0.18000623E+03</rscale>
<asrwt>0</asrwt>
<pdfrwt beam="1">  1        1 0.14226047E+00 0.18554960E+03</pdfrwt>
<pdfrwt beam="2">  1       -1 0.56243462E-02 0.18554960E+03</pdfrwt>
<totfact> 0.26707598E+03</totfact>
</mgrwt>
</event>
<event>
 8    1  0.8504141E-006  0.1610261E+03  0.7546771E-02  0.1195186E+00
         -1   -1    0    0    0  501 -0.00000000000E+00  0.00000000000E+00  0.69936640865E+02  0.69936640865E+02  0.00000000000E+00 0.  1.
          1   -1    0    0  501    0  0.00000000000E+00 -0.00000000000E+00 -0.31560349489E+03  0.31560349489E+03  0.00000000000E+00 0. -1.
         23    2    1    2    0    0 -0.96891746788E+02  0.30265811540E+02 -0.12972797200E+03  0.20678188191E+03  0.12500148008E+03 0.  0.
         23    2    1    2    0    0  0.96891746788E+02 -0.30265811540E+02 -0.11593888202E+03  0.17875825384E+03  0.90601650144E+02 0.  0.
          5    1    3    3  502    0  0.50415810719E+01  0.32575482760E+02  0.90562098753E+01  0.34506297310E+02  0.47000000000E+01 0.  1.
         -5    1    3    3    0  502 -0.10193332786E+03 -0.23096712208E+01 -0.13878418187E+03  0.17227558460E+03  0.47000000000E+01 0.  1.
        -11    1    4    4    0    0 -0.81939755732E+01 -0.29673530647E+02 -0.30310616119E+02  0.43201772027E+02  0.00000000000E+00 0. -1.
         11    1    4    4    0    0  0.10508572236E+03 -0.59228089208E+00 -0.85628265904E+02  0.13555648182E+03  0.00000000000E+00 0.  1.
<mgrwt>
<rscale>  0 0.15438527E+03</rscale>
<asrwt>0</asrwt>
<pdfrwt beam="2">  1        1 0.48554384E-01 0.16102608E+03</pdfrwt>
<pdfrwt beam="1">  1       -1 0.10759483E-01 0.16102608E+03</pdfrwt>
<totfact> 0.43361007E+03</totfact>
</mgrwt>
</event>
<event>
 8    1  0.8504141E-006  0.1695778E+03  0.7546771E-02  0.1184745E+00
          1   -1    0    0  501    0  0.00000000000E+00  0.00000000000E+00  0.17601945000E+03  0.17601945000E+03  0.00000000000E+00 0. -1.
         -1   -1    0    0    0  501 -0.00000000000E+00 -0.00000000000E+00 -0.21591301781E+03  0.21591301781E+03  0.00000000000E+00 0.  1.
         23    2    1    2    0    0  0.15396073855E+02 -0.11355101370E+03 -0.13527879304E+03  0.21692623931E+03  0.12500307858E+03 0.  0.
         23    2    1    2    0    0 -0.15396073855E+02  0.11355101370E+03  0.95385225234E+02  0.17500622849E+03  0.91640422393E+02 0.  0.
          5    1    3    3  502    0  0.17027302411E+02 -0.46765972382E+02  0.15172868521E+02  0.52242618038E+02  0.47000000000E+01 0. -1.
         -5    1    3    3    0  502 -0.16312285561E+01 -0.66785041317E+02 -0.15045166156E+03  0.16468362128E+03  0.47000000000E+01 0. -1.
        -11    1    4    4    0    0  0.29071945208E+02  0.44978324670E+02  0.60027070789E+01  0.53891188338E+02  0.00000000000E+00 0.  1.
         11    1    4    4    0    0 -0.44468019063E+02  0.68572689030E+02  0.89382518155E+02  0.12111504016E+03  0.00000000000E+00 0. -1.
<mgrwt>
<rscale>  0 0.16355145E+03</rscale>
<asrwt>0</asrwt>
<pdfrwt beam="1">  1        1 0.27079915E-01 0.16957783E+03</pdfrwt>
<pdfrwt beam="2">  1       -1 0.33217387E-01 0.16957783E+03</pdfrwt>
<totfact> 0.14621905E+03</totfact>
</mgrwt>
</event>
<event>
 8    1  0.8504141E-006  0.1834656E+03  0.7546771E-02  0.1169783E+00
          2   -1    0    0  501    0  0.00000000000E+00  0.00000000000E+00  0.46068684311E+03  0.46068684311E+03  0.00000000000E+00 0. -1.
         -2   -1    0    0    0  501 -0.00000000000E+00 -0.00000000000E+00 -0.65257428615E+02  0.65257428615E+02  0.00000000000E+00 0.  1.
         23    2    1    2    0    0  0.10345066468E+03  0.85625572963E+02  0.19119813844E+03  0.26498365481E+03  0.12500332157E+03 0.  0.
         23    2    1    2    0    0 -0.10345066468E+03 -0.85625572963E+02  0.20423127605E+03  0.26096061692E+03  0.91412530306E+02 0.  0.
          5    1    3    3  502    0  0.11174979502E+03  0.63251408394E+02  0.80462182117E+02  0.15160808059E+03  0.47000000000E+01 0. -1.
         -5    1    3    3    0  502 -0.82991303401E+01  0.22374164569E+02  0.11073595633E+03  0.11337557421E+03  0.47000000000E+01 0. -1.
        -11    1    4    4    0    0 -0.78823984432E+02 -0.54870749950E+02  0.19932510170E+03  0.22125667422E+03  0.00000000000E+00 0. -1.
         11    1    4    4    0    0 -0.24626680246E+02 -0.30754823013E+02  0.49061743508E+01  0.39703942691E+02  0.00000000000E+00 0.  1.
<mgrwt>
<rscale>  0 0.17796962E+03</rscale>
<asrwt>0</asrwt>
<pdfrwt beam="1">  1        2 0.70874897E-01 0.18346555E+03</pdfrwt>
<pdfrwt beam="2">  1       -2 0.10039605E-01 0.18346555E+03</pdfrwt>
<totfact> 0.44081305E+03</totfact>
</mgrwt>
</event>
<event>
 7    1  0.8504141E-006  0.2122119E+03  0.7546771E-02  0.1154547E+00
          2   -1    0    0  501    0  0.00000000000E+00  0.00000000000E+00  0.28375800386E+02  0.28375800386E+02  0.00000000000E+00 0. -1.
         -2   -1    0    0    0  501 -0.00000000000E+00 -0.00000000000E+00 -0.14842528615E+04  0.14842528615E+04  0.00000000000E+00 0.  1.
         23    2    1    2    0    0  0.93496504563E+02  0.71934452468E+02 -0.27647687177E+03  0.31428868314E+03  0.91770114480E+02 0.  0.
          5    1    1    2  502    0 -0.18587349626E+02  0.17782298336E+02 -0.19659452035E+02  0.32715191495E+02  0.47000000000E+01 0. -1.
         -5    1    1    2    0  502 -0.74909154937E+02 -0.89716750804E+02 -0.11597407373E+04  0.11656247872E+04  0.47000000000E+01 0.  1.
        -11    1    3    3    0    0  0.10416685419E+03  0.43364198659E+02 -0.24843978084E+03  0.27286170846E+03  0.00000000000E+00 0. -1.
         11    1    3    3    0    0 -0.10670349631E+02  0.28570253810E+02 -0.28037090929E+02  0.41426974687E+02  0.00000000000E+00 0.  1.
<mgrwt>
<rscale>  0 0.19440510E+03</rscale>
<asrwt>0</asrwt>
<pdfrwt beam="1">  1        2 0.43655048E-02 0.21221192E+03</pdfrwt>
<pdfrwt beam="2">  1       -2 0.22834675E+00 0.21221192E+03</pdfrwt>
<totfact> 0.18155397E+02</totfact>
</mgrwt>
</event>
<event>
 8    1  0.8504141E-006  0.1284747E+03  0.7546771E-02  0.1247135E+00
          2   -1    0    0  501    0  0.00000000000E+00  0.00000000000E+00  0.10464586051E+03  0.10464586051E+03  0.00000000000E+00 0. -1.
         -2   -1    0    0    0  501 -0.00000000000E+00 -0.00000000000E+00 -0.11583025889E+03  0.11583025889E+03  0.00000000000E+00 0.  1.
         23    2    1    2    0    0 -0.24436811342E+02  0.16675437944E+02 -0.19495906339E+02  0.12994552508E+03  0.12502208263E+03 0.  0.
         23    2    1    2    0    0  0.24436811342E+02 -0.16675437944E+02  0.83115079519E+01  0.90530594318E+02  0.85155618510E+02 0.  0.
          5    1    3    3  502    0 -0.32710135145E+02 -0.28164043026E+02 -0.56344090268E+02  0.71133063823E+02  0.47000000000E+01 0.  1.
         -5    1    3    3    0  502  0.82733238024E+01  0.44839480970E+02  0.36848183929E+02  0.58812461258E+02  0.47000000000E+01 0.  1.
        -11    1    4    4    0    0 -0.15354173750E+02  0.26989275160E+02  0.19243278450E+01  0.31110684062E+02  0.00000000000E+00 0.  1.
         11    1    4    4    0    0  0.39790985092E+02 -0.43664713104E+02  0.63871801069E+01  0.59419910255E+02  0.00000000000E+00 0. -1.
<mgrwt>
<rscale>  0 0.11758517E+03</rscale>
<asrwt>0</asrwt>
<pdfrwt beam="1">  1        2 0.16099363E-01 0.12847470E+03</pdfrwt>
<pdfrwt beam="2">  1       -2 0.17820040E-01 0.12847470E+03</pdfrwt>
<totfact> 0.86096684E+03</totfact>
</mgrwt>
</event>
<event>
 8    1  0.8504141E-006  0.1693354E+03  0.7546771E-02  0.1183887E+00
          2   -1    0    0  501    0  0.00000000000E+00  0.00000000000E+00  0.68513055771E+03  0.68513055771E+03  0.00000000000E+00 0. -1.
         -2   -1    0    0    0  501 -0.00000000000E+00 -0.00000000000E+00 -0.37888612933E+02  0.37888612933E+02  0.00000000000E+00 0.  1.
         23    2    1    2    0    0 -0.11061623938E+03 -0.28543079883E+02  0.29610018397E+03  0.34110088432E+03  0.12499533796E+03 0.  0.
         23    2    1    2    0    0  0.11061623938E+03  0.28543079883E+02  0.35114176081E+03  0.38191828632E+03  0.97521184470E+02 0.  0.
          5    1    3    3  502    0 -0.12808765511E+03 -0.28355905414E+01  0.27448778678E+03  0.30295234453E+03  0.47000000000E+01 0.  1.
         -5    1    3    3    0  502  0.17471415728E+02 -0.25707489342E+02  0.21612397196E+02  0.38148539794E+02  0.47000000000E+01 0.  1.
        -11    1    4    4    0    0  0.23303918982E+02 -0.34027160972E+02  0.74499475119E+02  0.85153344718E+02  0.00000000000E+00 0.  1.
         11    1    4    4    0    0  0.87312320402E+02  0.62570240856E+02  0.27664228569E+03  0.29676494160E+03  0.00000000000E+00 0. -1.
<mgrwt>
<rscale>  0 0.16433528E+03</rscale>
<asrwt>0</asrwt>
<pdfrwt beam="1">  1        2 0.10540469E+00 0.16933545E+03</pdfrwt>
<pdfrwt beam="2">  1       -2 0.58290179E-02 0.16933545E+03</pdfrwt>
<totfact> 0.64992896E+03</totfact>
</mgrwt>
</event>
<event>
 8    1  0.8504141E-006  0.1272089E+03  0.7546771E-02  0.1242968E+00
          2   -1    0    0  501    0  0.00000000000E+00  0.00000000000E+00  0.23491178705E+03  0.23491178705E+03  0.00000000000E+00 0. -1.
         -2   -1    0    0    0  501 -0.00000000000E+00 -0.00000000000E+00 -0.56715458097E+02  0.56715458097E+02  0.00000000000E+00 0.  1.
         23    2    1    2    0    0 -0.18963870786E+02 -0.14127488250E+02  0.77223083811E+02  0.14881368901E+03  0.12499157989E+03 0.  0.
         23    2    1    2    0    0  0.18963870786E+02  0.14127488250E+02  0.10097324514E+03  0.14281355614E+03  0.98188091248E+02 0.  0.
          5    1    3    3  502    0  0.23789437224E+02  0.39651894378E+02  0.63341905958E+02  0.78565241052E+02  0.47000000000E+01 0.  1.
         -5    1    3    3    0  502 -0.42753308011E+02 -0.53779382628E+02  0.13881177852E+02  0.70248447956E+02  0.47000000000E+01 0.  1.
        -11    1    4    4    0    0  0.87483819558E+01 -0.33186469447E+02  0.41564579500E+01  0.34570971694E+02  0.00000000000E+00 0.  1.
         11    1    4    4    0    0  0.10215488831E+02  0.47313957696E+02  0.96816787194E+02  0.10824258445E+03  0.00000000000E+00 0. -1.
<mgrwt>
<rscale>  0 0.12007810E+03</rscale>
<asrwt>0</asrwt>
<pdfrwt beam="1">  1        2 0.36140274E-01 0.12720892E+03</pdfrwt>
<pdfrwt beam="2">  1       -2 0.87254552E-02 0.12720892E+03</pdfrwt>
<totfact> 0.11036410E+04</totfact>
</mgrwt>
</event>
<event>
 8    1  0.8504141E-006  0.1831922E+03  0.7546771E-02  0.1170232E+00
         -1   -1    0    0    0  501 -0.00000000000E+00  0.00000000000E+00  0.16527994014E+02  0.16527994014E+02  0.00000000000E+00 0.  1.
          1   -1    0    0  501    0  0.00000000000E+00 -0.00000000000E+00 -0.17982775044E+04  0.17982775044E+04  0.00000000000E+00 0. -1.
         23    2    1    2    0    0  0.13382272542E+03  0.51104838480E+01 -0.92504853633E+03  0.94301334790E+03  0.12499896347E+03 0.  0.
         23    2    1    2    0    0 -0.13382272542E+03 -0.51104838480E+01 -0.85670097409E+03  0.87179215054E+03  0.90279321351E+02 0.  0.
          5    1    3    3  502    0  0.14622602345E+03 -0.24572614168E+02 -0.69320779811E+03  0.70890408707E+03  0.47000000000E+01 0.  1.
         -5    1    3    3    0  502 -0.12403298026E+02  0.29683098017E+02 -0.23184073822E+03  0.23410926083E+03  0.47000000000E+01 0.  1.
        -11    1    4    4    0    0 -0.12988874294E+03 -0.32151772644E+02 -0.73239026316E+03  0.74451347846E+03  0.00000000000E+00 0.  1.
         11    1    4    4    0    0 -0.39339824796E+01  0.27041288796E+02 -0.12431071092E+03  0.12727867208E+03  0.00000000000E+00 0. -1.
<mgrwt>
<rscale>  0 0.17751255E+03</rscale>
<asrwt>0</asrwt>
<pdfrwt beam="2">  1        1 0.27665794E+00 0.18319219E+03</pdfrwt>
<pdfrwt beam="1">  1       -1 0.25427696E-02 0.18319219E+03</pdfrwt>
<totfact> 0.21983555E+03</totfact>
</mgrwt>
</event>
<event>
 7    1  0.8504141E-006  0.1706890E+03  0.7546771E-02  0.1202143E+00
          2   -1    0    0  501    0  0.00000000000E+00  0.00000000000E+00  0.10165378363E+04  0.10165378363E+04  0.00000000000E+00 0. -1.
         -2   -1    0    0    0  501 -0.00000000000E+00 -0.00000000000E+00 -0.17833534659E+02  0.17833534659E+02  0.00000000000E+00 0.  1.
         23    2    1    2    0    0 -0.11366434165E+02 -0.29459345560E+02  0.39271412572E+03  0.40480102035E+03  0.92964685037E+02 0.  0.
          5    1    1    2  502    0  0.49516784171E+02  0.24882663240E+02  0.58064147868E+03  0.58329895903E+03  0.47000000000E+01 0. -1.
         -5    1    1    2    0  502 -0.38150350007E+02  0.45766823206E+01  0.25348697227E+02  0.46271391570E+02  0.47000000000E+01 0.  1.
        -11    1    3    3    0    0  0.40525781151E+02 -0.20864344141E+02  0.18282549800E+03  0.18842192683E+03  0.00000000000E+00 0. -1.
         11    1    3    3    0    0 -0.51892215316E+02 -0.85950014190E+01  0.20988862773E+03  0.21637909351E+03  0.00000000000E+00 0.  1.
<mgrwt>
<rscale>  0 0.14864861E+03</rscale>
<asrwt>0</asrwt>
<pdfrwt beam="1">  1        2 0.15639039E+00 0.17068900E+03</pdfrwt>
<pdfrwt beam="2">  1       -2 0.27436215E-02 0.17068900E+03</pdfrwt>
<totfact> 0.12095657E+04</totfact>
</mgrwt>
</event>
<event>
 8    1  0.8504141E-006  0.1581412E+03  0.7546771E-02  0.1198264E+00
         -1   -1    0    0    0  501 -0.00000000000E+00  0.00000000000E+00  0.29894619014E+03  0.29894619014E+03  0.00000000000E+00 0. -1.
          1   -1    0    0  501    0  0.00000000000E+00 -0.00000000000E+00 -0.71613031244E+02  0.71613031244E+02  0.00000000000E+00 0.  1.
         23    2    1    2    0    0  0.72024710093E+02 -0.64764779385E+02  0.11632161324E+03  0.19631439820E+03  0.12500635873E+03 0.  0.
         23    2    1    2    0    0 -0.72024710093E+02  0.64764779385E+02  0.11101154566E+03  0.17424482318E+03  0.93035797542E+02 0.  0.
          5    1    3    3  502    0  0.42541370714E+02  0.33930599985E+02  0.33642701461E+02  0.64148072451E+02  0.47000000000E+01 0.  1.
         -5    1    3    3    0  502  0.29483339379E+02 -0.98695379369E+02  0.82678911781E+02  0.13216632575E+03  0.47000000000E+01 0.  1.
        -11    1    4    4    0    0 -0.83017456553E+02  0.35011687389E+02  0.44351234251E+02  0.10042284763E+03  0.00000000000E+00 0. -1.
         11    1    4    4    0    0  0.10992746460E+02  0.29753091995E+02  0.66660311406E+02  0.73821975554E+02  0.00000000000E+00 0.  1.
<mgrwt>
<rscale>  0 0.15181207E+03</rscale>
<asrwt>0</asrwt>
<pdfrwt beam="2">  1        1 0.11017390E-01 0.15814116E+03</pdfrwt>
<pdfrwt beam="1">  1       -1 0.45991721E-01 0.15814116E+03</pdfrwt>
<totfact> 0.26291325E+03</totfact>
</mgrwt>
</event>
<event>
 8    1  0.8504141E-006  0.1309466E+03  0.7546771E-02  0.1238624E+00
         -1   -1    0    0    0  501 -0.00000000000E+00  0.00000000000E+00  0.11575076140E+04  0.11575076140E+04  0.00000000000E+00 0.  1.
          1   -1    0    0  501    0  0.00000000000E+00 -0.00000000000E+00 -0.11737387191E+02  0.11737387191E+02  0.00000000000E+00 0. -1.
         23    2    1    2    0    0 -0.36205094024E+02 -0.14538421983E+02  0.59084691805E+03  0.60518351246E+03  0.12499931457E+03 0.  0.
         23    2    1    2    0    0  0.36205094024E+02  0.14538421983E+02  0.55492330872E+03  0.56406148869E+03  0.93291531843E+02 0.  0.
          5    1    3    3  502    0 -0.58353666179E+01  0.26692713481E+02  0.50018677649E+03  0.50095454268E+03  0.47000000000E+01 0.  1.
         -5    1    3    3    0  502 -0.30369727406E+02 -0.41231135464E+02  0.90660141553E+02  0.10422896978E+03  0.47000000000E+01 0.  1.
        -11    1    4    4    0    0 -0.17780919817E+02 -0.27421483134E+02  0.18900956759E+03  0.19181427342E+03  0.00000000000E+00 0.  1.
         11    1    4    4    0    0  0.53986013841E+02  0.41959905117E+02  0.36591374113E+03  0.37224721527E+03  0.00000000000E+00 0. -1.
<mgrwt>
<rscale>  0 0.12275271E+03</rscale>
<asrwt>0</asrwt>
<pdfrwt beam="2">  1        1 0.18057528E-02 0.13094657E+03</pdfrwt>
<pdfrwt beam="1">  1       -1 0.17807800E+00 0.13094657E+03</pdfrwt>
<totfact> 0.16025391E+03</totfact>
</mgrwt>
</event>
<event>
 8    1  0.8504141E-006  0.1269667E+03  0.7546771E-02  0.1246598E+00
          2   -1    0    0  501    0  0.00000000000E+00  0.00000000000E+00  0.74082775363E+02  0.74082775363E+02  0.00000000000E+00 0. -1.
         -2   -1    0    0    0  501 -0.00000000000E+00 -0.00000000000E+00 -0.16551601271E+03  0.16551601271E+03  0.00000000000E+00 0.  1.
         23    2    1    2    0    0  0.22337810756E+02 -0.10892963872E+01 -0.55803140201E+02  0.13868861488E+03  0.12498150697E+03 0.  0.
         23    2    1    2    0    0 -0.22337810756E+02  0.10892963872E+01 -0.35630097146E+02  0.10091017319E+03  0.91723469598E+02 0.  0.
          5    1    3    3  502    0 -0.72286836957E+01  0.41175547422E+02  0.20238463084E+02  0.46683669109E+02  0.47000000000E+01 0. -1.
         -5    1    3    3    0  502  0.29566494452E+02 -0.42264843809E+02 -0.76041603285E+02  0.92004945772E+02  0.47000000000E+01 0. -1.
        -11    1    4    4    0    0  0.26786290231E+02 -0.58846613988E+01  0.13948597374E+02  0.30768457108E+02  0.00000000000E+00 0.  1.
         11    1    4    4    0    0 -0.49124100987E+02  0.69739577860E+01 -0.49578694519E+02  0.70141716084E+02  0.00000000000E+00 0. -1.
<mgrwt>
<rscale>  0 0.11790237E+03</rscale>
<asrwt>0</asrwt>
<pdfrwt beam="1">  1        2 0.11397350E-01 0.12696669E+03</pdfrwt>
<pdfrwt beam="2">  1       -2 0.25464002E-01 0.12696669E+03</pdfrwt>
<totfact> 0.70420667E+03</totfact>
</mgrwt>
</event>
<event>
 8    1  0.8504141E-006  0.1401510E+03  0.7546771E-02  0.1223312E+00
          1   -1    0    0  501    0  0.00000000000E+00  0.00000000000E+00  0.17449784745E+03  0.17449784745E+03  0.00000000000E+00 0. -1.
         -1   -1    0    0    0  501 -0.00000000000E+00 -0.00000000000E+00 -0.99873337233E+02  0.99873337233E+02  0.00000000000E+00 0.  1.
         23    2    1    2    0    0  0.47794133536E+02  0.41626464868E+02  0.23771984292E+01  0.14017120416E+03  0.12500109449E+03 0.  0.
         23    2    1    2    0    0 -0.47794133536E+02 -0.41626464868E+02  0.72247311785E+02  0.13419998052E+03  0.93663861409E+02 0.  0.
          5    1    3    3  502    0 -0.58270022810E+01  0.70441104689E+02  0.24912744712E+02  0.75090865187E+02  0.47000000000E+01 0. -1.
         -5    1    3    3    0  502  0.53621135818E+02 -0.28814639821E+02 -0.22535546283E+02  0.65080338971E+02  0.47000000000E+01 0. -1.
        -11    1    4    4    0    0 -0.74509961129E+02 -0.29405493011E+02  0.66843739363E+02  0.10432882065E+03  0.00000000000E+00 0. -1.
         11    1    4    4    0    0  0.26715827592E+02 -0.12220971858E+02  0.54035724219E+01  0.29871159870E+02  0.00000000000E+00 0.  1.
<mgrwt>
<rscale>  0 0.13283298E+03</rscale>
<asrwt>0</asrwt>
<pdfrwt beam="1">  1        1 0.26845823E-01 0.14015104E+03</pdfrwt>
<pdfrwt beam="2">  1       -1 0.15365129E-01 0.14015104E+03</pdfrwt>
<totfact> 0.51673147E+03</totfact>
</mgrwt>
</event>
<event>
 8    1  0.8504141E-006  0.1333221E+03  0.7546771E-02  0.1237381E+00
          2   -1    0    0  501    0  0.00000000000E+00  0.00000000000E+00  0.15534719701E+03  0.15534719701E+03  0.00000000000E+00 0. -1.
         -2   -1    0    0    0  501 -0.00000000000E+00 -0.00000000000E+00 -0.86651673520E+02  0.86651673520E+02  0.00000000000E+00 0.  1.
         23    2    1    2    0    0  0.70648039897E+01  0.45826276520E+02  0.32056044299E+02  0.13712174383E+03  0.12499929432E+03 0.  0.
         23    2    1    2    0    0 -0.70648039897E+01 -0.45826276520E+02  0.36639479189E+02  0.10487712670E+03  0.86641798191E+02 0.  0.
          5    1    3    3  502    0  0.30059418991E+02  0.29945203876E+02 -0.40736872042E+02  0.59007344027E+02  0.47000000000E+01 0.  1.
         -5    1    3    3    0  502 -0.22994615002E+02  0.15881072644E+02  0.72792916341E+02  0.78114399805E+02  0.47000000000E+01 0.  1.
        -11    1    4    4    0    0 -0.86594184755E+01 -0.66721564044E+02  0.57182553081E+01  0.67523707544E+02  0.00000000000E+00 0.  1.
         11    1    4    4    0    0  0.15946144858E+01  0.20895287523E+02  0.30921223881E+02  0.37353419152E+02  0.00000000000E+00 0. -1.
<mgrwt>
<rscale>  0 0.12353230E+03</rscale>
<asrwt>0</asrwt>
<pdfrwt beam="1">  1        2 0.23899569E-01 0.13332210E+03</pdfrwt>
<pdfrwt beam="2">  1       -2 0.13331027E-01 0.13332210E+03</pdfrwt>
<totfact> 0.88795135E+03</totfact>
</mgrwt>
</event>
<event>
 8    1  0.8504141E-006  0.1652931E+03  0.7546771E-02  0.1190280E+00
          2   -1    0    0  501    0  0.00000000000E+00  0.00000000000E+00  0.96407260188E+02  0.96407260188E+02  0.00000000000E+00 0. -1.
         -2   -1    0    0    0  501 -0.00000000000E+00 -0.00000000000E+00 -0.26879319785E+03  0.26879319785E+03  0.00000000000E+00 0.  1.
         23    2    1    2    0    0 -0.91772615447E+02 -0.57235990448E+02 -0.15017916701E+03  0.22332843793E+03  0.12499454963E+03 0.  0.
         23    2    1    2    0    0  0.91772615447E+02  0.57235990448E+02 -0.22206770656E+02  0.14187202011E+03  0.89086238435E+02 0.  0.
          5    1    3    3  502    0 -0.93283394592E+02 -0.32509389252E+02 -0.34206258081E+02  0.10464611884E+03  0.47000000000E+01 0. -1.
         -5    1    3    3    0  502  0.15107791457E+01 -0.24726601196E+02 -0.11597290892E+03  0.11868231909E+03  0.47000000000E+01 0. -1.
        -11    1    4    4    0    0  0.43152316549E+02  0.58068737220E+02  0.22552826759E+02  0.75780806677E+02  0.00000000000E+00 0. -1.
         11    1    4    4    0    0  0.48620298898E+02 -0.83274677208E+00 -0.44759597415E+02  0.66091213432E+02  0.00000000000E+00 0.  1.
<mgrwt>
<rscale>  0 0.15860563E+03</rscale>
<asrwt>0</asrwt>
<pdfrwt beam="1">  1        2 0.14831886E-01 0.16529310E+03</pdfrwt>
<pdfrwt beam="2">  1       -2 0.41352799E-01 0.16529310E+03</pdfrwt>
<totfact> 0.21559882E+03</totfact>
</mgrwt>
</event>
<event>
 8    1  0.8504141E-006  0.1451048E+03  0.7546771E-02  0.1217028E+00
         -3   -1    0    0    0  501 -0.00000000000E+00  0.00000000000E+00  0.55051293448E+03  0.55051293448E+03  0.00000000000E+00 0.  1.
          3   -1    0    0  501    0  0.00000000000E+00 -0.00000000000E+00 -0.37875650510E+02  0.37875650510E+02  0.00000000000E+00 0. -1.
         23    2    1    2    0    0 -0.38470842960E+02 -0.62857808638E+02  0.40398351175E+03  0.42925293436E+03  0.12499717608E+03 0.  0.
         23    2    1    2    0    0  0.38470842960E+02  0.62857808638E+02  0.10865377222E+03  0.15913565063E+03  0.89929990652E+02 0.  0.
          5    1    3    3  502    0 -0.55211037504E+02 -0.34671894451E+02  0.38614210952E+03  0.39163531209E+03  0.47000000000E+01 0. -1.
         -5    1    3    3    0  502  0.16740194544E+02 -0.28185914187E+02  0.17841402222E+02  0.37617622269E+02  0.47000000000E+01 0. -1.
        -11    1    4    4    0    0  0.28703608959E+02  0.17342317977E+02 -0.71815969105E+01  0.34296187751E+02  0.00000000000E+00 0. -1.
         11    1    4    4    0    0  0.97672340015E+01  0.45515490661E+02  0.11583536913E+03  0.12483946288E+03  0.00000000000E+00 0.  1.
<mgrwt>
<rscale>  0 0.13728638E+03</rscale>
<asrwt>0</asrwt>
<pdfrwt beam="2">  1        3 0.58270235E-02 0.14510480E+03</pdfrwt>
<pdfrwt beam="1">  1       -3 0.84694292E-01 0.14510480E+03</pdfrwt>
<totfact> 0.54920479E+02</totfact>
</mgrwt>
</event>
<event>
 8    1  0.8504141E-006  0.1421583E+03  0.7546771E-02  0.1220841E+00
          2   -1    0    0  501    0  0.00000000000E+00  0.00000000000E+00  0.33851905449E+02  0.33851905449E+02  0.00000000000E+00 0. -1.
         -2   -1    0    0    0  501 -0.00000000000E+00 -0.00000000000E+00 -0.49191873360E+03  0.49191873360E+03  0.00000000000E+00 0.  1.
         23    2    1    2    0    0  0.19752601687E+02  0.64711755623E+02 -0.28463587824E+03  0.31816123939E+03  0.12502485544E+03 0.  0.
         23    2    1    2    0    0 -0.19752601687E+02 -0.64711755623E+02 -0.17343094991E+03  0.20760939966E+03  0.91899901262E+02 0.  0.
          5    1    3    3  502    0 -0.12818684255E+01  0.89447273770E+02 -0.11705409189E+03  0.14739812889E+03  0.47000000000E+01 0. -1.
         -5    1    3    3    0  502  0.21034470113E+02 -0.24735518148E+02 -0.16758178635E+03  0.17076311050E+03  0.47000000000E+01 0. -1.
        -11    1    4    4    0    0 -0.15533903947E+02  0.21860107156E+02 -0.32222650869E+02  0.41922138372E+02  0.00000000000E+00 0.  1.
         11    1    4    4    0    0 -0.42186977405E+01 -0.86571862778E+02 -0.14120829904E+03  0.16568726129E+03  0.00000000000E+00 0. -1.
<mgrwt>
<rscale>  0 0.13456114E+03</rscale>
<asrwt>0</asrwt>
<pdfrwt beam="1">  1        2 0.52079854E-02 0.14215833E+03</pdfrwt>
<pdfrwt beam="2">  1       -2 0.75679806E-01 0.14215833E+03</pdfrwt>
<totfact> 0.23072762E+03</totfact>
</mgrwt>
</event>
<event>
 7    1  0.8504141E-006  0.4928658E+03  0.7546771E-02  0.1067115E+00
          2   -1    0    0  501    0  0.00000000000E+00  0.00000000000E+00  0.14929759557E+04  0.14929759557E+04  0.00000000000E+00 0. -1.
         -2   -1    0    0    0  501 -0.00000000000E+00 -0.00000000000E+00 -0.61620995815E+02  0.61620995815E+02  0.00000000000E+00 0.  1.
         23    2    1    2    0    0  0.54632100209E+02 -0.25820876061E+02  0.32821548899E+03  0.34636129167E+03  0.92678763152E+02 0.  0.
          5    1    1    2  502    0 -0.11745742330E+03  0.12731049452E+03  0.10704571573E+04  0.10843914533E+04  0.47000000000E+01 0. -1.
         -5    1    1    2    0  502  0.62825323091E+02 -0.10148961846E+03  0.32682313573E+02  0.12384420656E+03  0.47000000000E+01 0.  1.
        -11    1    3    3    0    0 -0.25782273592E+02 -0.34126033116E-02  0.64940494831E+02  0.69871263851E+02  0.00000000000E+00 0.  1.
         11    1    3    3    0    0  0.80414373801E+02 -0.25817463458E+02  0.26327499416E+03  0.27649002782E+03  0.00000000000E+00 0. -1.
<mgrwt>
<rscale>  0 0.33925204E+03</rscale>
<asrwt>0</asrwt>
<pdfrwt beam="1">  1        2 0.22968858E+00 0.49286582E+03</pdfrwt>
<pdfrwt beam="2">  1       -2 0.94801543E-02 0.49286582E+03</pdfrwt>
<totfact> 0.98204032E+02</totfact>
</mgrwt>
</event>
<event>
 8    1  0.8504141E-006  0.1320483E+03  0.7546771E-02  0.1239215E+00
          1   -1    0    0  501    0  0.00000000000E+00  0.00000000000E+00  0.43626900494E+02  0.43626900494E+02  0.00000000000E+00 0. -1.
         -1   -1    0    0    0  501 -0.00000000000E+00 -0.00000000000E+00 -0.35462948961E+03  0.35462948961E+03  0.00000000000E+00 0.  1.
         23    2    1    2    0    0  0.42272564512E+02 -0.45773885533E+01 -0.25159395067E+03  0.28414126411E+03  0.12501527812E+03 0.  0.
         23    2    1    2    0    0 -0.42272564512E+02  0.45773885533E+01 -0.59408638452E+02  0.11411512600E+03  0.87663866341E+02 0.  0.
          5    1    3    3  502    0  0.67614958461E+02 -0.37428231466E+02 -0.21536480043E+03  0.22885965652E+03  0.47000000000E+01 0. -1.
         -5    1    3    3    0  502 -0.25342393949E+02  0.32850842912E+02 -0.36229150242E+02  0.55281607595E+02  0.47000000000E+01 0. -1.
        -11    1    4    4    0    0 -0.84074668867E+01 -0.20277818487E+02 -0.67811015921E+02  0.71275587000E+02  0.00000000000E+00 0.  1.
         11    1    4    4    0    0 -0.33865097626E+02  0.24855207040E+02  0.84023774686E+01  0.42839538995E+02  0.00000000000E+00 0. -1.
<mgrwt>
<rscale>  0 0.12238388E+03</rscale>
<asrwt>0</asrwt>
<pdfrwt beam="1">  1        1 0.67118309E-02 0.13204826E+03</pdfrwt>
<pdfrwt beam="2">  1       -1 0.54558382E-01 0.13204826E+03</pdfrwt>
<totfact> 0.36983042E+03</totfact>
</mgrwt>
</event>
<event>
 8    1  0.8504141E-006  0.1725275E+03  0.7546771E-02  0.1181144E+00
          1   -1    0    0  501    0  0.00000000000E+00  0.00000000000E+00  0.40209798578E+03  0.40209798578E+03  0.00000000000E+00 0. -1.
         -1   -1    0    0    0  501 -0.00000000000E+00 -0.00000000000E+00 -0.70939302939E+02  0.70939302939E+02  0.00000000000E+00 0.  1.
         23    2    1    2    0    0  0.11875805458E+03 -0.60100033619E+01  0.10785785128E+03  0.20346757185E+03  0.12500456408E+03 0.  0.
         23    2    1    2    0    0 -0.11875805458E+03  0.60100033619E+01  0.22330083156E+03  0.26956971687E+03  0.93085848615E+02 0.  0.
          5    1    3    3  502    0 -0.69875806326E+01  0.40900913311E+00  0.71965870936E+02  0.72458057876E+02  0.47000000000E+01 0.  1.
         -5    1    3    3    0  502  0.12574563522E+03 -0.64190124950E+01  0.35891980347E+02  0.13100951397E+03  0.47000000000E+01 0.  1.
        -11    1    4    4    0    0 -0.54713798238E+02  0.32870567414E+02  0.44651745519E+02  0.77896420314E+02  0.00000000000E+00 0.  1.
         11    1    4    4    0    0 -0.64044256345E+02 -0.26860564052E+02  0.17864908604E+03  0.19167329656E+03  0.00000000000E+00 0. -1.
<mgrwt>
<rscale>  0 0.16687700E+03</rscale>
<asrwt>0</asrwt>
<pdfrwt beam="1">  1        1 0.61861227E-01 0.17252750E+03</pdfrwt>
<pdfrwt beam="2">  1       -1 0.10913739E-01 0.17252750E+03</pdfrwt>
<totfact> 0.31372787E+03</totfact>
</mgrwt>
</event>
<event>
 8    1  0.8504141E-006  0.1691558E+03  0.7546771E-02  0.1185072E+00
         -2   -1    0    0    0  501 -0.00000000000E+00  0.00000000000E+00  0.47210465071E+02  0.47210465071E+02  0.00000000000E+00 0.  1.
          2   -1    0    0  501    0  0.00000000000E+00 -0.00000000000E+00 -0.54138807831E+03  0.54138807831E+03  0.00000000000E+00 0. -1.
         23    2    1    2    0    0 -0.48270750661E+02 -0.10324167172E+03 -0.21885581329E+03  0.27660722112E+03  0.12499911846E+03 0.  0.
         23    2    1    2    0    0  0.48270750661E+02  0.10324167172E+03 -0.27532179995E+03  0.31199132226E+03  0.92453142126E+02 0.  0.
          5    1    3    3  502    0  0.88034311714E+01 -0.58508186937E+02 -0.18890344513E+03  0.19800835821E+03  0.47000000000E+01 0.  1.
         -5    1    3    3    0  502 -0.57074181833E+02 -0.44733484783E+02 -0.29952368162E+02  0.78598862913E+02  0.47000000000E+01 0.  1.
        -11    1    4    4    0    0 -0.86024215285E+01  0.70696764510E+02 -0.86056790938E+02  0.11170409766E+03  0.00000000000E+00 0.  1.
         11    1    4    4    0    0  0.56873172190E+02  0.32544907210E+02 -0.18926500901E+03  0.20028722460E+03  0.00000000000E+00 0. -1.
<mgrwt>
<rscale>  0 0.16325333E+03</rscale>
<asrwt>0</asrwt>
<pdfrwt beam="2">  1        2 0.83290471E-01 0.16915581E+03</pdfrwt>
<pdfrwt beam="1">  1       -2 0.72631487E-02 0.16915581E+03</pdfrwt>
<totfact> 0.60875657E+03</totfact>
</mgrwt>
</event>
<event>
 8    1  0.8504141E-006  0.1468996E+03  0.7546771E-02  0.1213885E+00
         -1   -1    0    0    0  501 -0.00000000000E+00  0.00000000000E+00  0.55531564177E+03  0.55531564177E+03  0.00000000000E+00 0.  1.
          1   -1    0    0  501    0  0.00000000000E+00 -0.00000000000E+00 -0.32643141891E+02  0.32643141891E+02  0.00000000000E+00 0. -1.
         23    2    1    2    0    0 -0.68738212833E+02 -0.35077429704E+02  0.24678477707E+03  0.28719717181E+03  0.12499648525E+03 0.  0.
         23    2    1    2    0    0  0.68738212833E+02  0.35077429704E+02  0.27588772281E+03  0.30076161185E+03  0.91586809028E+02 0.  0.
          5    1    3    3  502    0 -0.14625835953E+00  0.74488690389E+01  0.18560707302E+03  0.18581599123E+03  0.47000000000E+01 0. -1.
         -5    1    3    3    0  502 -0.68591954473E+02 -0.42526298743E+02  0.61177704048E+02  0.10138118058E+03  0.47000000000E+01 0. -1.
        -11    1    4    4    0    0  0.25693761406E+02  0.33298179729E+02  0.31348027993E+02  0.52456048340E+02  0.00000000000E+00 0. -1.
         11    1    4    4    0    0  0.43044451427E+02  0.17792499752E+01  0.24453969482E+03  0.24830556351E+03  0.00000000000E+00 0.  1.
<mgrwt>
<rscale>  0 0.13958777E+03</rscale>
<asrwt>0</asrwt>
<pdfrwt beam="2">  1        1 0.50220222E-02 0.14689959E+03</pdfrwt>
<pdfrwt beam="1">  1       -1 0.85433169E-01 0.14689959E+03</pdfrwt>
<totfact> 0.22855959E+03</totfact>
</mgrwt>
</event>
<event>
 8    1  0.8504141E-006  0.1274193E+03  0.7546771E-02  0.1245731E+00
          1   -1    0    0  501    0  0.00000000000E+00  0.00000000000E+00  0.50488335198E+02  0.50488335198E+02  0.00000000000E+00 0. -1.
         -1   -1    0    0    0  501 -0.00000000000E+00 -0.00000000000E+00 -0.26365961558E+03  0.26365961558E+03  0.00000000000E+00 0.  1.
         23    2    1    2    0    0  0.23896117960E+02  0.62842496601E+01 -0.16229502822E+03  0.20633794580E+03  0.12500062177E+03 0.  0.
         23    2    1    2    0    0 -0.23896117960E+02 -0.62842496601E+01 -0.50876252157E+02  0.10781000498E+03  0.91782830054E+02 0.  0.
          5    1    3    3  502    0 -0.37706458892E+02 -0.16128313210E+02 -0.12305322551E+03  0.12979247219E+03  0.47000000000E+01 0. -1.
         -5    1    3    3    0  502  0.61602576852E+02  0.22412562870E+02 -0.39241802711E+02  0.76545473604E+02  0.47000000000E+01 0. -1.
        -11    1    4    4    0    0 -0.13072154760E+02  0.42549398311E+02 -0.29591371520E+02  0.53450741764E+02  0.00000000000E+00 0. -1.
         11    1    4    4    0    0 -0.10823963200E+02 -0.48833647971E+02 -0.21284880637E+02  0.54359263215E+02  0.00000000000E+00 0.  1.
<mgrwt>
<rscale>  0 0.11841725E+03</rscale>
<asrwt>0</asrwt>
<pdfrwt beam="1">  1        1 0.77674360E-02 0.12741928E+03</pdfrwt>
<pdfrwt beam="2">  1       -1 0.40563019E-01 0.12741928E+03</pdfrwt>
<totfact> 0.51729845E+03</totfact>
</mgrwt>
</event>
<event>
 8    1  0.8504141E-006  0.1308260E+03  0.7546771E-02  0.1239738E+00
          1   -1    0    0  501    0  0.00000000000E+00  0.00000000000E+00  0.75328947767E+03  0.75328947767E+03  0.00000000000E+00 0. -1.
         -1   -1    0    0    0  501 -0.00000000000E+00 -0.00000000000E+00 -0.18171608507E+02  0.18171608507E+02  0.00000000000E+00 0.  1.
         23    2    1    2    0    0  0.34024154566E+02  0.18138755998E+02  0.34576889795E+03  0.36969117586E+03  0.12501510769E+03 0.  0.
         23    2    1    2    0    0 -0.34024154566E+02 -0.18138755998E+02  0.38934897121E+03  0.40176991032E+03  0.91322406308E+02 0.  0.
          5    1    3    3  502    0 -0.14324784129E+02 -0.48457899401E+01  0.29606923889E+03  0.29649243723E+03  0.47000000000E+01 0.  1.
         -5    1    3    3    0  502  0.48348938694E+02  0.22984545938E+02  0.49699659062E+02  0.73198738621E+02  0.47000000000E+01 0.  1.
        -11    1    4    4    0    0  0.26843690860E+02 -0.25342276653E+02  0.12078772033E+03  0.12630315953E+03  0.00000000000E+00 0.  1.
         11    1    4    4    0    0 -0.60867845426E+02  0.72035206553E+01  0.26856125088E+03  0.27546675079E+03  0.00000000000E+00 0. -1.
<mgrwt>
<rscale>  0 0.12205905E+03</rscale>
<asrwt>0</asrwt>
<pdfrwt beam="1">  1        1 0.11589066E+00 0.13082597E+03</pdfrwt>
<pdfrwt beam="2">  1       -1 0.27956327E-02 0.13082597E+03</pdfrwt>
<totfact> 0.10122439E+04</totfact>
</mgrwt>
</event>
<event>
 8    1  0.8504141E-006  0.1266049E+03  0.7546771E-02  0.1247170E+00
         -1   -1    0    0    0  501 -0.00000000000E+00  0.00000000000E+00  0.43505914708E+03  0.43505914708E+03  0.00000000000E+00 0.  1.
          1   -1    0    0  501    0  0.00000000000E+00 -0.00000000000E+00 -0.31740869877E+02  0.31740869877E+02  0.00000000000E+00 0. -1.
         23    2    1    2    0    0  0.31242203100E+01  0.19872256762E+02  0.30718675748E+03  0.33225365713E+03  0.12499648541E+03 0.  0.
         23    2    1    2    0    0 -0.31242203100E+01 -0.19872256762E+02  0.96131519722E+02  0.13454635983E+03  0.91960787931E+02 0.  0.
          5    1    3    3  502    0  0.24407360513E+02 -0.48264865522E+02  0.11458489512E+03  0.12679512878E+03  0.47000000000E+01 0.  1.
         -5    1    3    3    0  502 -0.21283140203E+02  0.68137122284E+02  0.19260186236E+03  0.20545852836E+03  0.47000000000E+01 0.  1.
        -11    1    4    4    0    0 -0.13303904344E+02  0.14950007935E+02  0.96207202386E+02  0.98266588416E+02  0.00000000000E+00 0.  1.
         11    1    4    4    0    0  0.10179684034E+02 -0.34822264697E+02 -0.75682663402E-01  0.36279771410E+02  0.00000000000E+00 0. -1.
<mgrwt>
<rscale>  0 0.11756441E+03</rscale>
<asrwt>0</asrwt>
<pdfrwt beam="2">  1        1 0.48832111E-02 0.12660485E+03</pdfrwt>
<pdfrwt beam="1">  1       -1 0.66932172E-01 0.12660485E+03</pdfrwt>
<totfact> 0.38520904E+03</totfact>
</mgrwt>
</event>
<event>
 8    1  0.8504141E-006  0.1425188E+03  0.7546771E-02  0.1220244E+00
         -1   -1    0    0    0  501 -0.00000000000E+00  0.00000000000E+00  0.47916903615E+03  0.47916903615E+03  0.00000000000E+00 0.  1.
          1   -1    0    0  501    0  0.00000000000E+00 -0.00000000000E+00 -0.39001437245E+02  0.39001437245E+02  0.00000000000E+00 0. -1.
         23    2    1    2    0    0 -0.13976335311E+02 -0.67018497779E+02  0.32858800873E+03  0.35816431464E+03  0.12499911921E+03 0.  0.
         23    2    1    2    0    0  0.13976335311E+02  0.67018497779E+02  0.11157959017E+03  0.16000615875E+03  0.92006243826E+02 0.  0.
          5    1    3    3  502    0  0.14291241976E+02 -0.73904931697E+02  0.88515343289E+02  0.11628944287E+03  0.47000000000E+01 0. -1.
         -5    1    3    3    0  502 -0.28267577287E+02  0.68864339173E+01  0.24007266545E+03  0.24187487177E+03  0.47000000000E+01 0. -1.
        -11    1    4    4    0    0  0.49643351162E+02  0.24053679350E+02  0.75570300485E+02  0.93562343495E+02  0.00000000000E+00 0.  1.
         11    1    4    4    0    0 -0.35667015850E+02  0.42964818429E+02  0.36009289681E+02  0.66443815255E+02  0.00000000000E+00 0. -1.
<mgrwt>
<rscale>  0 0.13498262E+03</rscale>
<asrwt>0</asrwt>
<pdfrwt beam="2">  1        1 0.60002214E-02 0.14251876E+03</pdfrwt>
<pdfrwt beam="1">  1       -1 0.73718309E-01 0.14251876E+03</pdfrwt>
<totfact> 0.24205027E+03</totfact>
</mgrwt>
</event>
<event>
 8    1  0.8504141E-006  0.1260742E+03  0.7546771E-02  0.1248240E+00
         -1   -1    0    0    0  501 -0.00000000000E+00  0.00000000000E+00  0.32581563989E+02  0.32581563989E+02  0.00000000000E+00 0.  1.
          1   -1    0    0  501    0  0.00000000000E+00 -0.00000000000E+00 -0.37521233277E+03  0.37521233277E+03  0.00000000000E+00 0. -1.
         23    2    1    2    0    0  0.15330159607E+02  0.58166486047E+01 -0.17115251264E+03  0.21257441122E+03  0.12500340206E+03 0.  0.
         23    2    1    2    0    0 -0.15330159607E+02 -0.58166486047E+01 -0.17147825613E+03  0.19521948553E+03  0.91853187267E+02 0.  0.
          5    1    3    3  502    0  0.63725681142E+02  0.29311271080E+02 -0.11408962555E+03  0.13400987168E+03  0.47000000000E+01 0.  1.
         -5    1    3    3    0  502 -0.48395521535E+02 -0.23494622476E+02 -0.57062887094E+02  0.78564539541E+02  0.47000000000E+01 0.  1.
        -11    1    4    4    0    0 -0.28172843554E+01  0.36624956678E+02 -0.31419343916E+02  0.48337353205E+02  0.00000000000E+00 0.  1.
         11    1    4    4    0    0 -0.12512875252E+02 -0.42441605282E+02 -0.14005891222E+03  0.14688213233E+03  0.00000000000E+00 0. -1.
<mgrwt>
<rscale>  0 0.11693541E+03</rscale>
<asrwt>0</asrwt>
<pdfrwt beam="2">  1        1 0.57724974E-01 0.12607418E+03</pdfrwt>
<pdfrwt beam="1">  1       -1 0.50125484E-02 0.12607418E+03</pdfrwt>
<totfact> 0.10863948E+04</totfact>
</mgrwt>
</event>
<event>
 8    1  0.8504141E-006  0.1475364E+03  0.7546771E-02  0.1212756E+00
         -3   -1    0    0    0  501 -0.00000000000E+00  0.00000000000E+00  0.64447467426E+03  0.64447467426E+03  0.00000000000E+00 0.  1.
          3   -1    0    0  501    0  0.00000000000E+00 -0.00000000000E+00 -0.35881943493E+02  0.35881943493E+02  0.00000000000E+00 0. -1.
         23    2    1    2    0    0  0.56583333080E+01 -0.78165828613E+02  0.48659024081E+03  0.50846539748E+03  0.12500033793E+03 0.  0.
         23    2    1    2    0    0 -0.56583333080E+01  0.78165828613E+02  0.12200248995E+03  0.17189122027E+03  0.92304228250E+02 0.  0.
          5    1    3    3  502    0 -0.27120146125E+02  0.18127927930E+02  0.48107631014E+02  0.58314305780E+02  0.47000000000E+01 0.  1.
         -5    1    3    3    0  502  0.32778479433E+02 -0.96293756543E+02  0.43848260980E+03  0.45015109170E+03  0.47000000000E+01 0.  1.
        -11    1    4    4    0    0  0.15016901079E+02  0.76885586768E+01  0.90353697228E+02  0.91915242780E+02  0.00000000000E+00 0.  1.
         11    1    4    4    0    0 -0.20675234387E+02  0.70477269936E+02  0.31648792725E+02  0.79975977491E+02  0.00000000000E+00 0. -1.
<mgrwt>
<rscale>  0 0.14042633E+03</rscale>
<asrwt>0</asrwt>
<pdfrwt beam="2">  1        3 0.55202995E-02 0.14753643E+03</pdfrwt>
<pdfrwt beam="1">  1       -3 0.99149941E-01 0.14753643E+03</pdfrwt>
<totfact> 0.42212951E+02</totfact>
</mgrwt>
</event>
<event>
 8    1  0.8504141E-006  0.1277714E+03  0.7546771E-02  0.1249528E+00
          1   -1    0    0  501    0  0.00000000000E+00  0.00000000000E+00  0.17144472125E+03  0.17144472125E+03  0.00000000000E+00 0. -1.
         -1   -1    0    0    0  501 -0.00000000000E+00 -0.00000000000E+00 -0.73190828778E+02  0.73190828778E+02  0.00000000000E+00 0.  1.
         23    2    1    2    0    0  0.14520646026E+02 -0.22116119270E+02  0.24043186563E+02  0.13001386425E+03  0.12500223272E+03 0.  0.
         23    2    1    2    0    0 -0.14520646026E+02  0.22116119270E+02  0.74210705907E+02  0.11462168578E+03  0.83252207696E+02 0.  0.
          5    1    3    3  502    0  0.33086300842E+02 -0.56481195867E+02 -0.22218278543E+02  0.69286150791E+02  0.47000000000E+01 0. -1.
         -5    1    3    3    0  502 -0.18565654817E+02  0.34365076597E+02  0.46261465106E+02  0.60727713459E+02  0.47000000000E+01 0. -1.
        -11    1    4    4    0    0  0.10404775213E+02  0.42871115848E+02  0.14092703267E+02  0.46311944535E+02  0.00000000000E+00 0.  1.
         11    1    4    4    0    0 -0.24925421239E+02 -0.20754996578E+02  0.60118002640E+02  0.68309741240E+02  0.00000000000E+00 0. -1.
<mgrwt>
<rscale>  0 0.11618424E+03</rscale>
<asrwt>0</asrwt>
<pdfrwt beam="1">  1        1 0.26376111E-01 0.12777140E+03</pdfrwt>
<pdfrwt beam="2">  1       -1 0.11260128E-01 0.12777140E+03</pdfrwt>
<totfact> 0.85039378E+03</totfact>
</mgrwt>
</event>
<event>
 8    1  0.8504141E-006  0.1264790E+03  0.7546771E-02  0.1247812E+00
          2   -1    0    0  501    0  0.00000000000E+00  0.00000000000E+00  0.19185943081E+03  0.19185943081E+03  0.00000000000E+00 0.  1.
         -2   -1    0    0    0  501 -0.00000000000E+00 -0.00000000000E+00 -0.64531728518E+02  0.64531728518E+02  0.00000000000E+00 0. -1.
         23    2    1    2    0    0  0.16415418091E+02 -0.10172976034E+02  0.52831130976E+02  0.13706958739E+03  0.12499595192E+03 0.  0.
         23    2    1    2    0    0 -0.16415418091E+02  0.10172976034E+02  0.74496571316E+02  0.11932157193E+03  0.91186309270E+02 0.  0.
          5    1    3    3  502    0 -0.39261255323E+02  0.20994934981E+02  0.57553264144E+02  0.72915716262E+02  0.47000000000E+01 0. -1.
         -5    1    3    3    0  502  0.55676673414E+02 -0.31167911016E+02 -0.47221331679E+01  0.64153871131E+02  0.47000000000E+01 0. -1.
        -11    1    4    4    0    0  0.17676106583E+02  0.11994926822E+00  0.81243292843E+02  0.83144042262E+02  0.00000000000E+00 0.  1.
         11    1    4    4    0    0 -0.34091524673E+02  0.10053026766E+02 -0.67467215274E+01  0.36177529671E+02  0.00000000000E+00 0. -1.
<mgrwt>
<rscale>  0 0.11718667E+03</rscale>
<asrwt>0</asrwt>
<pdfrwt beam="1">  1        2 0.29516835E-01 0.12647902E+03</pdfrwt>
<pdfrwt beam="2">  1       -2 0.99279583E-02 0.12647902E+03</pdfrwt>
<totfact> 0.11209834E+04</totfact>
</mgrwt>
</event>
<event>
 8    1  0.8504141E-006  0.1513498E+03  0.7546771E-02  0.1205390E+00
          1   -1    0    0  501    0  0.00000000000E+00  0.00000000000E+00  0.11227624845E+03  0.11227624845E+03  0.00000000000E+00 0. -1.
         -1   -1    0    0    0  501 -0.00000000000E+00 -0.00000000000E+00 -0.18859821654E+03  0.18859821654E+03  0.00000000000E+00 0.  1.
         23    2    1    2    0    0 -0.60710499107E+02  0.59959191081E+02 -0.76473349901E+02  0.16957276607E+03  0.12500352175E+03 0.  0.
         23    2    1    2    0    0  0.60710499107E+02 -0.59959191081E+02  0.15138180638E+00  0.13130169892E+03  0.99796011568E+02 0.  0.
          5    1    3    3  502    0 -0.47789032551E+02  0.25508249097E+02 -0.10798453334E+03  0.12090166188E+03  0.47000000000E+01 0. -1.
         -5    1    3    3    0  502 -0.12921466556E+02  0.34450941984E+02  0.31511183439E+02  0.48671104192E+02  0.47000000000E+01 0. -1.
        -11    1    4    4    0    0 -0.16665367965E+02 -0.49498574484E+02 -0.78405524942E+01  0.52813990843E+02  0.00000000000E+00 0. -1.
         11    1    4    4    0    0  0.77375867072E+02 -0.10460616597E+02  0.79919343005E+01  0.78487708073E+02  0.00000000000E+00 0.  1.
<mgrwt>
<rscale>  0 0.14606757E+03</rscale>
<asrwt>0</asrwt>
<pdfrwt beam="1">  1        1 0.17273269E-01 0.15134976E+03</pdfrwt>
<pdfrwt beam="2">  1       -1 0.29015110E-01 0.15134976E+03</pdfrwt>
<totfact> 0.32435417E+03</totfact>
</mgrwt>
</event>
<event>
 8    1  0.8504141E-006  0.1975583E+03  0.7546771E-02  0.1156219E+00
          1   -1    0    0  501    0  0.00000000000E+00  0.00000000000E+00  0.65411413691E+02  0.65411413691E+02  0.00000000000E+00 0. -1.
         -1   -1    0    0    0  501 -0.00000000000E+00 -0.00000000000E+00 -0.53940902109E+03  0.53940902109E+03  0.00000000000E+00 0.  1.
         23    2    1    2    0    0  0.14531017921E+03  0.47856986714E+02 -0.25027801174E+03  0.31885479433E+03  0.12499582931E+03 0.  0.
         23    2    1    2    0    0 -0.14531017921E+03 -0.47856986714E+02 -0.22371959566E+03  0.28596564046E+03  0.91217052562E+02 0.  0.
          5    1    3    3  502    0  0.14999072042E+03  0.66290518710E+02 -0.25029043511E+03  0.29926416590E+03  0.47000000000E+01 0. -1.
         -5    1    3    3    0  502 -0.46805412093E+01 -0.18433531995E+02  0.12423372560E-01  0.19590628427E+02  0.47000000000E+01 0. -1.
        -11    1    4    4    0    0 -0.93667802877E+01  0.21881498301E+02 -0.18662327183E+02  0.30245974886E+02  0.00000000000E+00 0. -1.
         11    1    4    4    0    0 -0.13594339893E+03 -0.69738485016E+02 -0.20505726848E+03  0.25571966557E+03  0.00000000000E+00 0.  1.
<mgrwt>
<rscale>  0 0.19250776E+03</rscale>
<asrwt>0</asrwt>
<pdfrwt beam="1">  1        1 0.10063294E-01 0.19755834E+03</pdfrwt>
<pdfrwt beam="2">  1       -1 0.82986003E-01 0.19755834E+03</pdfrwt>
<totfact> 0.95557268E+02</totfact>
</mgrwt>
</event>
<event>
 8    1  0.8504141E-006  0.1343010E+03  0.7546771E-02  0.1227444E+00
         -1   -1    0    0    0  501 -0.00000000000E+00  0.00000000000E+00  0.33521501969E+03  0.33521501969E+03  0.00000000000E+00 0.  1.
          1   -1    0    0  501    0  0.00000000000E+00 -0.00000000000E+00 -0.14874835373E+03  0.14874835373E+03  0.00000000000E+00 0. -1.
         23    2    1    2    0    0 -0.70509901144E+02  0.23443185506E+02  0.29472018220E+03  0.32387767603E+03  0.11187284804E+03 0.  0.
         23    2    1    2    0    0  0.70509901144E+02 -0.23443185506E+02 -0.10825351624E+03  0.16008569738E+03  0.91582627290E+02 0.  0.
          5    1    3    3  502    0  0.29109779983E+01 -0.14343711129E+02 -0.23123999245E+01  0.15545193317E+02  0.47000000000E+01 0. -1.
         -5    1    3    3    0  502 -0.73420879142E+02  0.37786896635E+02  0.29703258213E+03  0.30833248271E+03  0.47000000000E+01 0.  1.
        -11    1    4    4    0    0  0.86493382318E+02 -0.36384262672E+02 -0.10198675750E+03  0.13858650173E+03  0.00000000000E+00 0. -1.
         11    1    4    4    0    0 -0.15983481174E+02  0.12941077166E+02 -0.62667587373E+01  0.21499195653E+02  0.00000000000E+00 0.  1.
<mgrwt>
<rscale>  0 0.13000796E+03</rscale>
<asrwt>0</asrwt>
<pdfrwt beam="2">  1        1 0.22884362E-01 0.13430102E+03</pdfrwt>
<pdfrwt beam="1">  1       -1 0.51571541E-01 0.13430102E+03</pdfrwt>
<totfact> 0.82573174E+02</totfact>
</mgrwt>
</event>
<event>
 8    1  0.8504141E-006  0.1318179E+03  0.7546771E-02  0.1237728E+00
          2   -1    0    0  501    0  0.00000000000E+00  0.00000000000E+00  0.52266850271E+03  0.52266850271E+03  0.00000000000E+00 0.  1.
         -2   -1    0    0    0  501 -0.00000000000E+00 -0.00000000000E+00 -0.29426150012E+02  0.29426150012E+02  0.00000000000E+00 0. -1.
         23    2    1    2    0    0  0.38033106115E+02 -0.17517943451E+02  0.18082828628E+03  0.22377405717E+03  0.12499025579E+03 0.  0.
         23    2    1    2    0    0 -0.38033106115E+02  0.17517943451E+02  0.31241406642E+03  0.32832059555E+03  0.91861140098E+02 0.  0.
          5    1    3    3  502    0  0.83911641661E+01  0.53476890881E+02  0.83496542350E+02  0.99619034721E+02  0.47000000000E+01 0. -1.
         -5    1    3    3    0  502  0.29641941949E+02 -0.70994834332E+02  0.97331743929E+02  0.12415502245E+03  0.47000000000E+01 0. -1.
        -11    1    4    4    0    0 -0.23672349460E+02  0.54920711977E+02  0.20995842776E+03  0.21830988553E+03  0.00000000000E+00 0.  1.
         11    1    4    4    0    0 -0.14360756655E+02 -0.37402768526E+02  0.10245563866E+03  0.11001071001E+03  0.00000000000E+00 0. -1.
<mgrwt>
<rscale>  0 0.12331403E+03</rscale>
<asrwt>0</asrwt>
<pdfrwt beam="1">  1        2 0.80410531E-01 0.13181790E+03</pdfrwt>
<pdfrwt beam="2">  1       -2 0.45271004E-02 0.13181790E+03</pdfrwt>
<totfact> 0.12766432E+04</totfact>
</mgrwt>
</event>
<event>
 7    1  0.8504141E-006  0.1481857E+03  0.7546771E-02  0.1209356E+00
         -1   -1    0    0    0  501 -0.00000000000E+00  0.00000000000E+00  0.74123276190E+02  0.74123276190E+02  0.00000000000E+00 0.  1.
          1   -1    0    0  501    0  0.00000000000E+00 -0.00000000000E+00 -0.26922808113E+03  0.26922808113E+03  0.00000000000E+00 0. -1.
         23    2    1    2    0    0  0.29692534405E+02  0.11906518346E+01 -0.56189879343E+02  0.14023478066E+03  0.12500170765E+03 0.  0.
          5    1    3    3  502    0 -0.13582556207E+02  0.56303066551E+02 -0.22108009124E+02  0.62172141700E+02  0.47000000000E+01 0.  1.
         -5    1    3    3    0  502  0.43275090612E+02 -0.55112414717E+02 -0.34081870219E+02  0.78062638958E+02  0.47000000000E+01 0.  1.
        -11    1    1    2    0    0  0.24080660459E+02 -0.24210633567E+01  0.22457425185E+02  0.33016294490E+02  0.00000000000E+00 0.  1.
         11    1    1    2    0    0 -0.53773194864E+02  0.12304115221E+01 -0.16137235078E+03  0.17010028217E+03  0.00000000000E+00 0. -1.
<mgrwt>
<rscale>  0 0.14299407E+03</rscale>
<asrwt>0</asrwt>
<pdfrwt beam="2">  1        1 0.41419705E-01 0.14818565E+03</pdfrwt>
<pdfrwt beam="1">  1       -1 0.11403581E-01 0.14818565E+03</pdfrwt>
<totfact> 0.48087019E+03</totfact>
</mgrwt>
</event>
<event>
 8    1  0.8504141E-006  0.1268827E+03  0.7546771E-02  0.1246200E+00
          1   -1    0    0  501    0  0.00000000000E+00  0.00000000000E+00  0.58999123755E+02  0.58999123755E+02  0.00000000000E+00 0. -1.
         -1   -1    0    0    0  501 -0.00000000000E+00 -0.00000000000E+00 -0.21079620445E+03  0.21079620445E+03  0.00000000000E+00 0.  1.
         23    2    1    2    0    0 -0.20332797231E+02  0.77253562078E+01 -0.97892490466E+02  0.16025653248E+03  0.12500445089E+03 0.  0.
         23    2    1    2    0    0  0.20332797231E+02 -0.77253562078E+01 -0.53904590229E+02  0.10953879573E+03  0.92843627404E+02 0.  0.
          5    1    3    3  502    0  0.23821825331E+02  0.49105365181E+02 -0.13702292454E+02  0.56468212918E+02  0.47000000000E+01 0.  1.
         -5    1    3    3    0  502 -0.44154622562E+02 -0.41380008973E+02 -0.84190198013E+02  0.10378831956E+03  0.47000000000E+01 0.  1.
        -11    1    4    4    0    0  0.47738486530E+02 -0.21173215124E+02 -0.58776305812E+02  0.78625201175E+02  0.00000000000E+00 0.  1.
         11    1    4    4    0    0 -0.27405689299E+02  0.13447858916E+02  0.48717155827E+01  0.30913594551E+02  0.00000000000E+00 0. -1.
<mgrwt>
<rscale>  0 0.11813822E+03</rscale>
<asrwt>0</asrwt>
<pdfrwt beam="1">  1        1 0.90767881E-02 0.12688269E+03</pdfrwt>
<pdfrwt beam="2">  1       -1 0.32430186E-01 0.12688269E+03</pdfrwt>
<totfact> 0.61759608E+03</totfact>
</mgrwt>
</event>
<event>
 8    1  0.8504141E-006  0.1543614E+03  0.7546771E-02  0.1203495E+00
          2   -1    0    0  501    0  0.00000000000E+00  0.00000000000E+00  0.20501117130E+03  0.20501117130E+03  0.00000000000E+00 0. -1.
         -2   -1    0    0    0  501 -0.00000000000E+00 -0.00000000000E+00 -0.13312846502E+03  0.13312846502E+03  0.00000000000E+00 0.  1.
         23    2    1    2    0    0  0.85813440131E+02  0.28944296701E+02 -0.48445704521E+02  0.16178514843E+03  0.12500291655E+03 0.  0.
         23    2    1    2    0    0 -0.85813440131E+02 -0.28944296701E+02  0.12032841080E+03  0.17635448789E+03  0.91761975441E+02 0.  0.
          5    1    3    3  502    0  0.91681860418E+02  0.16937434520E+02 -0.82701268951E+02  0.12471579733E+03  0.47000000000E+01 0. -1.
         -5    1    3    3    0  502 -0.58684202878E+01  0.12006862182E+02  0.34255564430E+02  0.37069351094E+02  0.47000000000E+01 0. -1.
        -11    1    4    4    0    0 -0.51703619231E+02 -0.38746635312E+02  0.16580867459E+02  0.66704506259E+02  0.00000000000E+00 0.  1.
         11    1    4    4    0    0 -0.34109820900E+02  0.98023386102E+01  0.10374754334E+03  0.10964998163E+03  0.00000000000E+00 0. -1.
<mgrwt>
<rscale>  0 0.14756706E+03</rscale>
<asrwt>0</asrwt>
<pdfrwt beam="1">  1        2 0.31540180E-01 0.15436142E+03</pdfrwt>
<pdfrwt beam="2">  1       -2 0.20481302E-01 0.15436142E+03</pdfrwt>
<totfact> 0.32492861E+03</totfact>
</mgrwt>
</event>
<event>
 8    1  0.8504141E-006  0.1553576E+03  0.7546771E-02  0.1202200E+00
          1   -1    0    0  501    0  0.00000000000E+00  0.00000000000E+00  0.22123965313E+03  0.22123965313E+03  0.00000000000E+00 0. -1.
         -1   -1    0    0    0  501 -0.00000000000E+00 -0.00000000000E+00 -0.92863874086E+02  0.92863874086E+02  0.00000000000E+00 0.  1.
         23    2    1    2    0    0  0.48919680536E+02 -0.78207784952E+02  0.55168629454E+02  0.16486220967E+03  0.12500551080E+03 0.  0.
         23    2    1    2    0    0 -0.48919680536E+02  0.78207784952E+02  0.73207149586E+02  0.14924131754E+03  0.91673831273E+02 0.  0.
          5    1    3    3  502    0 -0.26443298492E+02 -0.50580681815E+02  0.61712857555E+02  0.84191568435E+02  0.47000000000E+01 0. -1.
         -5    1    3    3    0  502  0.75362979028E+02 -0.27627103138E+02 -0.65442281009E+01  0.80670641235E+02  0.47000000000E+01 0. -1.
        -11    1    4    4    0    0  0.48814916408E+01  0.45573275555E+02  0.73141770762E+02  0.86316111102E+02  0.00000000000E+00 0. -1.
         11    1    4    4    0    0 -0.53801172177E+02  0.32634509397E+02  0.65378823911E-01  0.62925206441E+02  0.00000000000E+00 0.  1.
<mgrwt>
<rscale>  0 0.14860351E+03</rscale>
<asrwt>0</asrwt>
<pdfrwt beam="1">  1        1 0.34036869E-01 0.15535756E+03</pdfrwt>
<pdfrwt beam="2">  1       -1 0.14286750E-01 0.15535756E+03</pdfrwt>
<totfact> 0.43339469E+03</totfact>
</mgrwt>
</event>
<event>
 8    1  0.8504141E-006  0.1304557E+03  0.7546771E-02  0.1240481E+00
         -2   -1    0    0    0  501 -0.00000000000E+00  0.00000000000E+00  0.39883319781E+02  0.39883319781E+02  0.00000000000E+00 0.  1.
          2   -1    0    0  501    0  0.00000000000E+00 -0.00000000000E+00 -0.51199849786E+03  0.51199849786E+03  0.00000000000E+00 0. -1.
         23    2    1    2    0    0  0.36090858128E+02  0.95229459170E+01 -0.93068430669E+02  0.16025109269E+03  0.12500177351E+03 0.  0.
         23    2    1    2    0    0 -0.36090858128E+02 -0.95229459170E+01 -0.37904674741E+03  0.39163072495E+03  0.91131506437E+02 0.  0.
          5    1    3    3  502    0 -0.40925488978E+02 -0.16016116168E+02 -0.12788576161E+02  0.46011404080E+02  0.47000000000E+01 0.  1.
         -5    1    3    3    0  502  0.77016347106E+02  0.25539062085E+02 -0.80279854509E+02  0.11423968861E+03  0.47000000000E+01 0.  1.
        -11    1    4    4    0    0 -0.16509837480E+02 -0.48228005235E+02 -0.25946444096E+03  0.26442449082E+03  0.00000000000E+00 0.  1.
         11    1    4    4    0    0 -0.19581020648E+02  0.38705059318E+02 -0.11958230645E+03  0.12720623413E+03  0.00000000000E+00 0. -1.
<mgrwt>
<rscale>  0 0.12159999E+03</rscale>
<asrwt>0</asrwt>
<pdfrwt beam="2">  1        2 0.78768999E-01 0.13045566E+03</pdfrwt>
<pdfrwt beam="1">  1       -2 0.61358954E-02 0.13045566E+03</pdfrwt>
<totfact> 0.82596222E+03</totfact>
</mgrwt>
</event>
<event>
 8    1  0.8504141E-006  0.1323615E+03  0.7546771E-02  0.1236696E+00
         -2   -1    0    0    0  501 -0.00000000000E+00  0.00000000000E+00  0.12649717941E+03  0.12649717941E+03  0.00000000000E+00 0.  1.
          2   -1    0    0  501    0  0.00000000000E+00 -0.00000000000E+00 -0.12769961618E+03  0.12769961618E+03  0.00000000000E+00 0. -1.
         23    2    1    2    0    0 -0.30635361180E+02  0.30933763189E+02  0.48384242211E+02  0.14092763585E+03  0.12499656232E+03 0.  0.
         23    2    1    2    0    0  0.30635361180E+02 -0.30933763189E+02 -0.49586678974E+02  0.11326915975E+03  0.92063243253E+02 0.  0.
          5    1    3    3  502    0  0.47012090774E+02  0.51316739515E+00  0.28100235871E+02  0.54973750788E+02  0.47000000000E+01 0.  1.
         -5    1    3    3    0  502 -0.77647451954E+02  0.30420595793E+02  0.20284006340E+02  0.85953885058E+02  0.47000000000E+01 0.  1.
        -11    1    4    4    0    0  0.59757285835E+02 -0.24999393673E+02 -0.12888344281E+02  0.66045532118E+02  0.00000000000E+00 0. -1.
         11    1    4    4    0    0 -0.29121924655E+02 -0.59343695152E+01 -0.36698334693E+02  0.47223627628E+02  0.00000000000E+00 0.  1.
<mgrwt>
<rscale>  0 0.12396502E+03</rscale>
<asrwt>0</asrwt>
<pdfrwt beam="2">  1        2 0.19646095E-01 0.13236149E+03</pdfrwt>
<pdfrwt beam="1">  1       -2 0.19461105E-01 0.13236149E+03</pdfrwt>
<totfact> 0.59270917E+03</totfact>
</mgrwt>
</event>
<event>
 8    1  0.8504141E-006  0.2135356E+03  0.7546771E-02  0.1142644E+00
         -2   -1    0    0    0  501 -0.00000000000E+00  0.00000000000E+00  0.22905864397E+03  0.22905864397E+03  0.00000000000E+00 0.  1.
          2   -1    0    0  501    0  0.00000000000E+00 -0.00000000000E+00 -0.23235086599E+03  0.23235086599E+03  0.00000000000E+00 0. -1.
         23    2    1    2    0    0  0.11075194335E+03  0.13307104756E+03  0.10577898460E+03  0.23829952237E+03  0.12499428836E+03 0.  0.
         23    2    1    2    0    0 -0.11075194335E+03 -0.13307104756E+03 -0.10907120662E+03  0.22310998759E+03  0.88924922234E+02 0.  0.
          5    1    3    3  502    0  0.11802520507E+03  0.52905403306E+02  0.43927883877E+02  0.13667728309E+03  0.47000000000E+01 0.  1.
         -5    1    3    3    0  502 -0.72732617183E+01  0.80165644254E+02  0.61851100723E+02  0.10162223927E+03  0.47000000000E+01 0.  1.
        -11    1    4    4    0    0 -0.26935062697E+02 -0.36861846176E+01 -0.52085167150E+02  0.58753299452E+02  0.00000000000E+00 0. -1.
         11    1    4    4    0    0 -0.83816880657E+02 -0.12938486294E+03 -0.56986039470E+02  0.16435668814E+03  0.00000000000E+00 0.  1.
<mgrwt>
<rscale>  0 0.20864416E+03</rscale>
<asrwt>0</asrwt>
<pdfrwt beam="2">  1        2 0.35746287E-01 0.21353564E+03</pdfrwt>
<pdfrwt beam="1">  1       -2 0.35239792E-01 0.21353564E+03</pdfrwt>
<totfact> 0.10919743E+03</totfact>
</mgrwt>
</event>
<event>
 8    1  0.8504141E-006  0.1542843E+03  0.7546771E-02  0.1204128E+00
          3   -1    0    0  501    0  0.00000000000E+00  0.00000000000E+00  0.60967900832E+03  0.60967900832E+03  0.00000000000E+00 0. -1.
         -3   -1    0    0    0  501 -0.00000000000E+00 -0.00000000000E+00 -0.34851180598E+02  0.34851180598E+02  0.00000000000E+00 0.  1.
         23    2    1    2    0    0  0.70053069209E+02  0.57189705197E+02  0.23020634129E+03  0.27712559886E+03  0.12500217233E+03 0.  0.
         23    2    1    2    0    0 -0.70053069209E+02 -0.57189705197E+02  0.34462148643E+03  0.36740459006E+03  0.89688733962E+02 0.  0.
          5    1    3    3  502    0  0.24621546100E+02  0.52227169037E+01  0.20000148702E+03  0.20163378218E+03  0.47000000000E+01 0.  1.
         -5    1    3    3    0  502  0.45431523110E+02  0.51966988293E+02  0.30204854267E+02  0.75491816680E+02  0.47000000000E+01 0.  1.
        -11    1    4    4    0    0  0.94591576731E+01  0.14335433497E+02  0.24733532069E+02  0.30111923320E+02  0.00000000000E+00 0.  1.
         11    1    4    4    0    0 -0.79512226883E+02 -0.71525138695E+02  0.31988795436E+03  0.33729266674E+03  0.00000000000E+00 0. -1.
<mgrwt>
<rscale>  0 0.14706348E+03</rscale>
<asrwt>0</asrwt>
<pdfrwt beam="1">  1        3 0.93796763E-01 0.15428428E+03</pdfrwt>
<pdfrwt beam="2">  1       -3 0.53617205E-02 0.15428428E+03</pdfrwt>
<totfact> 0.50518829E+02</totfact>
</mgrwt>
</event>
<event>
 8    1  0.8504141E-006  0.1620205E+03  0.7546771E-02  0.1187334E+00
          3   -1    0    0  501    0  0.00000000000E+00  0.00000000000E+00  0.20726186750E+03  0.20726186750E+03  0.00000000000E+00 0. -1.
         -3   -1    0    0    0  501 -0.00000000000E+00 -0.00000000000E+00 -0.12422501516E+03  0.12422501516E+03  0.00000000000E+00 0.  1.
         23    2    1    2    0    0 -0.95541663212E+02  0.38708884504E+02  0.45662657404E+02  0.16833213469E+03  0.12499616850E+03 0.  0.
         23    2    1    2    0    0  0.95541663212E+02 -0.38708884504E+02  0.37374194935E+02  0.16315474797E+03  0.12081413075E+03 0.  0.
          5    1    3    3  502    0 -0.10871861796E+03 -0.32194344630E+01  0.56737058998E+02  0.12276516816E+03  0.47000000000E+01 0. -1.
         -5    1    3    3    0  502  0.13176954751E+02  0.41928318967E+02 -0.11074401594E+02  0.45566966528E+02  0.47000000000E+01 0. -1.
        -11    1    4    4    0    0  0.97227994023E+02 -0.68940717153E+02  0.51381672362E+02  0.12979284094E+03  0.00000000000E+00 0. -1.
         11    1    4    4    0    0 -0.16863308102E+01  0.30231832650E+02 -0.14007477427E+02  0.33361907032E+02  0.00000000000E+00 0.  1.
<mgrwt>
<rscale>  0 0.16121343E+03</rscale>
<asrwt>0</asrwt>
<pdfrwt beam="1">  1        3 0.31886441E-01 0.16202046E+03</pdfrwt>
<pdfrwt beam="2">  1       -3 0.19111541E-01 0.16202046E+03</pdfrwt>
<totfact> 0.55354250E+02</totfact>
</mgrwt>
</event>
<event>
 8    1  0.8504141E-006  0.1238752E+03  0.7546771E-02  0.1246734E+00
          1   -1    0    0  501    0  0.00000000000E+00  0.00000000000E+00  0.49643135258E+03  0.49643135258E+03  0.00000000000E+00 0. -1.
         -1   -1    0    0    0  501 -0.00000000000E+00 -0.00000000000E+00 -0.35780898114E+02  0.35780898114E+02  0.00000000000E+00 0.  1.
         23    2    1    2    0    0 -0.26892135021E+02  0.32990235684E+02  0.10498183753E+03  0.16237691808E+03  0.11633372141E+03 0.  0.
         23    2    1    2    0    0  0.26892135021E+02 -0.32990235684E+02  0.35566861694E+03  0.36983533261E+03  0.92013399025E+02 0.  0.
          5    1    3    3  502    0  0.11628630237E+02 -0.38228392911E+02  0.50957730930E+02  0.64926230502E+02  0.47000000000E+01 0. -1.
         -5    1    3    3    0  502 -0.38520765257E+02  0.71218628595E+02  0.54024106596E+02  0.97450687573E+02  0.47000000000E+01 0.  1.
        -11    1    4    4    0    0  0.25295419059E+02  0.21315866746E+02  0.54098074835E+02  0.63409984240E+02  0.00000000000E+00 0.  1.
         11    1    4    4    0    0  0.15967159618E+01 -0.54306102429E+02  0.30157054210E+03  0.30642534837E+03  0.00000000000E+00 0. -1.
<mgrwt>
<rscale>  0 0.11782217E+03</rscale>
<asrwt>0</asrwt>
<pdfrwt beam="1">  1        1 0.76374049E-01 0.12387525E+03</pdfrwt>
<pdfrwt beam="2">  1       -1 0.55047539E-02 0.12387525E+03</pdfrwt>
<totfact> 0.66195088E+03</totfact>
</mgrwt>
</event>
<event>
 8    1  0.8504141E-006  0.1308337E+03  0.7546771E-02  0.1240058E+00
          1   -1    0    0  501    0  0.00000000000E+00  0.00000000000E+00  0.33970587005E+02  0.33970587005E+02  0.00000000000E+00 0. -1.
         -1   -1    0    0    0  501 -0.00000000000E+00 -0.00000000000E+00 -0.39201855809E+03  0.39201855809E+03  0.00000000000E+00 0.  1.
         23    2    1    2    0    0  0.17589840578E+02 -0.34378197532E+02 -0.22793816071E+03  0.26281793593E+03  0.12500479744E+03 0.  0.
         23    2    1    2    0    0 -0.17589840578E+02  0.34378197532E+02 -0.13010981037E+03  0.16317120916E+03  0.90581553234E+02 0.  0.
          5    1    3    3  502    0 -0.29648237148E+02  0.35296944465E+02 -0.74192511736E+02  0.87472916107E+02  0.47000000000E+01 0. -1.
         -5    1    3    3    0  502  0.47238077726E+02 -0.69675141997E+02 -0.15374564897E+03  0.17534501983E+03  0.47000000000E+01 0. -1.
        -11    1    4    4    0    0 -0.34111917430E+02  0.57836184322E+02 -0.10702641189E+03  0.12634595351E+03  0.00000000000E+00 0.  1.
         11    1    4    4    0    0  0.16522076852E+02 -0.23457986790E+02 -0.23083398486E+02  0.36825255646E+02  0.00000000000E+00 0. -1.
<mgrwt>
<rscale>  0 0.12186119E+03</rscale>
<asrwt>0</asrwt>
<pdfrwt beam="1">  1        1 0.52262439E-02 0.13083372E+03</pdfrwt>
<pdfrwt beam="2">  1       -1 0.60310551E-01 0.13083372E+03</pdfrwt>
<totfact> 0.42996426E+03</totfact>
</mgrwt>
</event>
<event>
 8    1  0.8504141E-006  0.1314867E+03  0.7546771E-02  0.1239050E+00
         -1   -1    0    0    0  501 -0.00000000000E+00  0.00000000000E+00  0.95905260143E+03  0.95905260143E+03  0.00000000000E+00 0.  1.
          1   -1    0    0  501    0  0.00000000000E+00 -0.00000000000E+00 -0.16974644376E+02  0.16974644376E+02  0.00000000000E+00 0. -1.
         23    2    1    2    0    0  0.33571126526E+02 -0.23162148015E+02  0.73284572779E+03  0.74454791915E+03  0.12500095013E+03 0.  0.
         23    2    1    2    0    0 -0.33571126526E+02  0.23162148015E+02  0.20923222926E+03  0.23147932665E+03  0.90227752213E+02 0.  0.
          5    1    3    3  502    0  0.72366853327E+02  0.17221700487E+02  0.45665811579E+03  0.46270106239E+03  0.47000000000E+01 0.  1.
         -5    1    3    3    0  502 -0.38795726801E+02 -0.40383848502E+02  0.27618761201E+03  0.28184685676E+03  0.47000000000E+01 0.  1.
        -11    1    4    4    0    0 -0.57082220762E+02  0.38026754526E+02  0.17062852621E+03  0.18389809119E+03  0.00000000000E+00 0.  1.
         11    1    4    4    0    0  0.23511094236E+02 -0.14864606511E+02  0.38603703052E+02  0.47581235464E+02  0.00000000000E+00 0. -1.
<mgrwt>
<rscale>  0 0.12248693E+03</rscale>
<asrwt>0</asrwt>
<pdfrwt beam="2">  1        1 0.26114845E-02 0.13148667E+03</pdfrwt>
<pdfrwt beam="1">  1       -1 0.14754651E+00 0.13148667E+03</pdfrwt>
<totfact> 0.15911903E+03</totfact>
</mgrwt>
</event>
<event>
 8    1  0.8504141E-006  0.1302258E+03  0.7546771E-02  0.1241447E+00
          4   -1    0    0  501    0  0.00000000000E+00  0.00000000000E+00  0.33463372393E+03  0.33463372393E+03  0.00000000000E+00 0.  1.
         -4   -1    0    0    0  501 -0.00000000000E+00 -0.00000000000E+00 -0.39687991064E+02  0.39687991064E+02  0.00000000000E+00 0. -1.
         23    2    1    2    0    0 -0.28420637345E+02 -0.22937979407E+02  0.13772744523E+03  0.18954582377E+03  0.12499954645E+03 0.  0.
         23    2    1    2    0    0  0.28420637345E+02  0.22937979407E+02  0.15721828763E+03  0.18477589122E+03  0.89948076602E+02 0.  0.
          5    1    3    3  502    0  0.25498125545E+02  0.36364219339E+02  0.76475509796E+02  0.88561303361E+02  0.47000000000E+01 0.  1.
         -5    1    3    3    0  502 -0.53918762890E+02 -0.59302198746E+02  0.61251935438E+02  0.10098452041E+03  0.47000000000E+01 0.  1.
        -11    1    4    4    0    0  0.29342217963E+02  0.10785489391E+02  0.16652966491E+03  0.16943854884E+03  0.00000000000E+00 0.  1.
         11    1    4    4    0    0 -0.92158061818E+00  0.12152490015E+02 -0.93113772833E+01  0.15337342381E+02  0.00000000000E+00 0. -1.
<mgrwt>
<rscale>  0 0.12100558E+03</rscale>
<asrwt>0</asrwt>
<pdfrwt beam="1">  1        4 0.51482110E-01 0.13022584E+03</pdfrwt>
<pdfrwt beam="2">  1       -4 0.61058450E-02 0.13022584E+03</pdfrwt>
<totfact> 0.10320044E+03</totfact>
</mgrwt>
</event>
<event>
 8    1  0.8504141E-006  0.1442823E+03  0.7546771E-02  0.1217857E+00
         -4   -1    0    0    0  501 -0.00000000000E+00  0.00000000000E+00  0.10537920858E+03  0.10537920858E+03  0.00000000000E+00 0.  1.
          4   -1    0    0  501    0  0.00000000000E+00 -0.00000000000E+00 -0.22073043114E+03  0.22073043114E+03  0.00000000000E+00 0. -1.
         23    2    1    2    0    0  0.10744936126E+02  0.71199532626E+02  0.22259289453E+02  0.14598920105E+03  0.12503017139E+03 0.  0.
         23    2    1    2    0    0 -0.10744936126E+02 -0.71199532626E+02 -0.13761051201E+03  0.18012043867E+03  0.91224406329E+02 0.  0.
          5    1    3    3  502    0  0.94426573773E+01  0.41383330090E+02 -0.51133074602E+02  0.66621506332E+02  0.47000000000E+01 0. -1.
         -5    1    3    3    0  502  0.13022787487E+01  0.29816202536E+02  0.73392364055E+02  0.79367694720E+02  0.47000000000E+01 0. -1.
        -11    1    4    4    0    0  0.36968446050E+02 -0.53721413463E+02 -0.72179061903E+02  0.97275244770E+02  0.00000000000E+00 0.  1.
         11    1    4    4    0    0 -0.47713382176E+02 -0.17478119163E+02 -0.65431450110E+02  0.82845193896E+02  0.00000000000E+00 0. -1.
<mgrwt>
<rscale>  0 0.13668739E+03</rscale>
<asrwt>0</asrwt>
<pdfrwt beam="2">  1        4 0.33958528E-01 0.14428226E+03</pdfrwt>
<pdfrwt beam="1">  1       -4 0.16212186E-01 0.14428226E+03</pdfrwt>
<totfact> 0.46250161E+02</totfact>
</mgrwt>
</event>
<event>
 7    1  0.8504141E-006  0.1996850E+03  0.7546771E-02  0.1162334E+00
          1   -1    0    0  501    0  0.00000000000E+00  0.00000000000E+00  0.10199272420E+03  0.10199272420E+03  0.00000000000E+00 0. -1.
         -1   -1    0    0    0  501 -0.00000000000E+00 -0.00000000000E+00 -0.31991532836E+03  0.31991532836E+03  0.00000000000E+00 0.  1.
         23    2    1    2    0    0  0.45362177026E+02 -0.10017784456E+03 -0.40923846201E+02  0.15506982493E+03  0.10138324207E+03 0.  0.
          5    1    1    2  502    0  0.37236728417E+02  0.74508457115E+02 -0.17364121937E+02  0.85215531774E+02  0.47000000000E+01 0. -1.
         -5    1    1    2    0  502 -0.82598905443E+02  0.25669387440E+02 -0.15963463602E+03  0.18162269586E+03  0.47000000000E+01 0.  1.
        -11    1    3    3    0    0 -0.91067004821E+01  0.14939750540E+02 -0.19025019993E+02  0.25847234390E+02  0.00000000000E+00 0.  1.
         11    1    3    3    0    0  0.54468877508E+02 -0.11511759510E+03 -0.21898826208E+02  0.12922259054E+03  0.00000000000E+00 0. -1.
<mgrwt>
<rscale>  0 0.18576840E+03</rscale>
<asrwt>0</asrwt>
<pdfrwt beam="1">  1        1 0.15691188E-01 0.19968495E+03</pdfrwt>
<pdfrwt beam="2">  1       -1 0.49217743E-01 0.19968495E+03</pdfrwt>
<totfact> 0.14720585E+03</totfact>
</mgrwt>
</event>
<event>
 8    1  0.8504141E-006  0.1255374E+03  0.7546771E-02  0.1249019E+00
         -3   -1    0    0    0  501 -0.00000000000E+00  0.00000000000E+00  0.14653690746E+03  0.14653690746E+03  0.00000000000E+00 0.  1.
          3   -1    0    0  501    0  0.00000000000E+00 -0.00000000000E+00 -0.91851940349E+02  0.91851940349E+02  0.00000000000E+00 0. -1.
         23    2    1    2    0    0  0.68093735810E+01 -0.95034160513E+01  0.70547596686E+02  0.14400206408E+03  0.12499179404E+03 0.  0.
         23    2    1    2    0    0 -0.68093735810E+01  0.95034160513E+01 -0.15862629573E+02  0.94386783729E+02  0.92306876453E+02 0.  0.
          5    1    3    3  502    0  0.11530335850E+02 -0.24856247186E+02 -0.30678981509E+02  0.41401347508E+02  0.47000000000E+01 0. -1.
         -5    1    3    3    0  502 -0.47209622686E+01  0.15352831135E+02  0.10122657820E+03  0.10260071658E+03  0.47000000000E+01 0. -1.
        -11    1    4    4    0    0  0.16666319137E+02  0.12360686789E+02  0.33640338428E+02  0.39524993878E+02  0.00000000000E+00 0.  1.
         11    1    4    4    0    0 -0.23475692718E+02 -0.28572707373E+01 -0.49502968002E+02  0.54861789851E+02  0.00000000000E+00 0. -1.
<mgrwt>
<rscale>  0 0.11648023E+03</rscale>
<asrwt>0</asrwt>
<pdfrwt beam="2">  1        3 0.14131068E-01 0.12553737E+03</pdfrwt>
<pdfrwt beam="1">  1       -3 0.22544140E-01 0.12553737E+03</pdfrwt>
<totfact> 0.16875491E+03</totfact>
</mgrwt>
</event>
<event>
 8    1  0.8504141E-006  0.1258670E+03  0.7546771E-02  0.1249989E+00
          1   -1    0    0  501    0  0.00000000000E+00  0.00000000000E+00  0.14330890154E+02  0.14330890154E+02  0.00000000000E+00 0. -1.
         -1   -1    0    0    0  501 -0.00000000000E+00 -0.00000000000E+00 -0.95042882027E+03  0.95042882027E+03  0.00000000000E+00 0.  1.
         23    2    1    2    0    0 -0.80066606509E+01  0.12363014585E+02 -0.71238245505E+03  0.72341638453E+03  0.12500220956E+03 0.  0.
         23    2    1    2    0    0  0.80066606509E+01 -0.12363014585E+02 -0.22371547506E+03  0.24134332589E+03  0.89336646605E+02 0.  0.
          5    1    3    3  502    0 -0.50410242230E+02  0.39388603988E+02 -0.53975080603E+03  0.54354914888E+03  0.47000000000E+01 0.  1.
         -5    1    3    3    0  502  0.42403581579E+02 -0.27025589403E+02 -0.17263164902E+03  0.17986723564E+03  0.47000000000E+01 0.  1.
        -11    1    4    4    0    0  0.29816036144E+02 -0.36217984395E+02 -0.18526608875E+03  0.19111321787E+03  0.00000000000E+00 0.  1.
         11    1    4    4    0    0 -0.21809375493E+02  0.23854969810E+02 -0.38449386314E+02  0.50230108023E+02  0.00000000000E+00 0. -1.
<mgrwt>
<rscale>  0 0.11591705E+03</rscale>
<asrwt>0</asrwt>
<pdfrwt beam="1">  1        1 0.22047519E-02 0.12586701E+03</pdfrwt>
<pdfrwt beam="2">  1       -1 0.14621985E+00 0.12586701E+03</pdfrwt>
<totfact> 0.20555112E+03</totfact>
</mgrwt>
</event>
<event>
 8    1  0.8504141E-006  0.1340412E+03  0.7546771E-02  0.1233020E+00
          1   -1    0    0  501    0  0.00000000000E+00  0.00000000000E+00  0.70975993113E+03  0.70975993113E+03  0.00000000000E+00 0. -1.
         -1   -1    0    0    0  501 -0.00000000000E+00 -0.00000000000E+00 -0.21102840212E+02  0.21102840212E+02  0.00000000000E+00 0.  1.
         23    2    1    2    0    0 -0.42946736273E+02 -0.22309759778E+02  0.45636059142E+03  0.47563856032E+03  0.12499961248E+03 0.  0.
         23    2    1    2    0    0  0.42946736273E+02  0.22309759778E+02  0.23229649949E+03  0.25522421102E+03  0.93997801448E+02 0.  0.
          5    1    3    3  502    0  0.44397542622E+02 -0.93761790034E+01  0.15528934343E+03  0.16185155145E+03  0.47000000000E+01 0.  1.
         -5    1    3    3    0  502 -0.87344278894E+02 -0.12933580774E+02  0.30107124800E+03  0.31378700887E+03  0.47000000000E+01 0.  1.
        -11    1    4    4    0    0  0.18484335360E+02  0.55587208925E+02  0.92805627922E+02  0.10974740554E+03  0.00000000000E+00 0. -1.
         11    1    4    4    0    0  0.24462400913E+02 -0.33277449147E+02  0.13949087157E+03  0.14547680548E+03  0.00000000000E+00 0.  1.
<mgrwt>
<rscale>  0 0.12632026E+03</rscale>
<asrwt>0</asrwt>
<pdfrwt beam="1">  1        1 0.10919382E+00 0.13404123E+03</pdfrwt>
<pdfrwt beam="2">  1       -1 0.32465914E-02 0.13404123E+03</pdfrwt>
<totfact> 0.88905830E+03</totfact>
</mgrwt>
</event>
<event>
 8    1  0.8504141E-006  0.1573440E+03  0.7546771E-02  0.1199322E+00
          3   -1    0    0  501    0  0.00000000000E+00  0.00000000000E+00  0.19027879689E+03  0.19027879689E+03  0.00000000000E+00 0. -1.
         -3   -1    0    0    0  501 -0.00000000000E+00 -0.00000000000E+00 -0.12630467687E+03  0.12630467687E+03  0.00000000000E+00 0.  1.
         23    2    1    2    0    0 -0.88303899491E+02  0.36530712958E+02 -0.20706839474E+02  0.15870072482E+03  0.12500030082E+03 0.  0.
         23    2    1    2    0    0  0.88303899491E+02 -0.36530712958E+02  0.84680959493E+02  0.15788274894E+03  0.92865633359E+02 0.  0.
          5    1    3    3  502    0 -0.63161491386E+02 -0.16234700624E+01  0.45583501035E+02  0.78050978314E+02  0.47000000000E+01 0.  1.
         -5    1    3    3    0  502 -0.25142408105E+02  0.38154183020E+02 -0.66290340509E+02  0.80649746510E+02  0.47000000000E+01 0.  1.
        -11    1    4    4    0    0  0.66120441302E+02 -0.50487775990E+02  0.16465766020E+02  0.84805953405E+02  0.00000000000E+00 0.  1.
         11    1    4    4    0    0  0.22183458189E+02  0.13957063032E+02  0.68215193473E+02  0.73076795539E+02  0.00000000000E+00 0. -1.
<mgrwt>
<rscale>  0 0.15094063E+03</rscale>
<asrwt>0</asrwt>
<pdfrwt beam="1">  1        3 0.29273661E-01 0.15734404E+03</pdfrwt>
<pdfrwt beam="2">  1       -3 0.19431489E-01 0.15734404E+03</pdfrwt>
<totfact> 0.62772981E+02</totfact>
</mgrwt>
</event>
<event>
 8    1  0.8504141E-006  0.1864808E+03  0.7546771E-02  0.1165424E+00
         -1   -1    0    0    0  501 -0.00000000000E+00  0.00000000000E+00  0.12296014431E+04  0.12296014431E+04  0.00000000000E+00 0.  1.
          1   -1    0    0  501    0  0.00000000000E+00 -0.00000000000E+00 -0.28820079648E+02  0.28820079648E+02  0.00000000000E+00 0. -1.
         23    2    1    2    0    0 -0.25830789071E+02  0.13595250929E+03  0.82119052556E+03  0.84209794602E+03  0.12499902790E+03 0.  0.
         23    2    1    2    0    0  0.25830789071E+02 -0.13595250929E+03  0.37959083790E+03  0.41632357674E+03  0.10042809309E+03 0.  0.
          5    1    3    3  502    0 -0.27213468446E+02  0.15976866374E+03  0.70909033391E+03  0.72739108492E+03  0.47000000000E+01 0.  1.
         -5    1    3    3    0  502  0.13826793752E+01 -0.23816154454E+02  0.11210019165E+03  0.11470686110E+03  0.47000000000E+01 0.  1.
        -11    1    4    4    0    0 -0.23748442090E+02 -0.41432161376E+02  0.46915013322E+02  0.66944984674E+02  0.00000000000E+00 0. -1.
         11    1    4    4    0    0  0.49579231161E+02 -0.94520347913E+02  0.33267582458E+03  0.34937859206E+03  0.00000000000E+00 0.  1.
<mgrwt>
<rscale>  0 0.18248008E+03</rscale>
<asrwt>0</asrwt>
<pdfrwt beam="2">  1        1 0.44338593E-02 0.18648075E+03</pdfrwt>
<pdfrwt beam="1">  1       -1 0.18916941E+00 0.18648075E+03</pdfrwt>
<totfact> 0.38909135E+02</totfact>
</mgrwt>
</event>
<event>
 8    1  0.8504141E-006  0.1342851E+03  0.7546771E-02  0.1233996E+00
          1   -1    0    0  501    0  0.00000000000E+00  0.00000000000E+00  0.21216969836E+03  0.21216969836E+03  0.00000000000E+00 0. -1.
         -1   -1    0    0    0  501 -0.00000000000E+00 -0.00000000000E+00 -0.93537225412E+02  0.93537225412E+02  0.00000000000E+00 0.  1.
         23    2    1    2    0    0  0.13861117593E+02  0.47099294187E+02 -0.17002267407E+02  0.13535714462E+03  0.12498802106E+03 0.  0.
         23    2    1    2    0    0 -0.13861117593E+02 -0.47099294187E+02  0.13563474036E+03  0.17034977916E+03  0.90618929441E+02 0.  0.
          5    1    3    3  502    0 -0.23315351767E+01 -0.18593799462E+02  0.41508115868E+02  0.45784048724E+02  0.47000000000E+01 0. -1.
         -5    1    3    3    0  502  0.16192652770E+02  0.65693093649E+02 -0.58510383274E+02  0.89573095893E+02  0.47000000000E+01 0. -1.
        -11    1    4    4    0    0  0.13217667211E+02 -0.49879990046E+02  0.26767728362E+02  0.58131157009E+02  0.00000000000E+00 0.  1.
         11    1    4    4    0    0 -0.27078784804E+02  0.27806958589E+01  0.10886701200E+03  0.11221862215E+03  0.00000000000E+00 0. -1.
<mgrwt>
<rscale>  0 0.12568919E+03</rscale>
<asrwt>0</asrwt>
<pdfrwt beam="1">  1        1 0.32641492E-01 0.13428507E+03</pdfrwt>
<pdfrwt beam="2">  1       -1 0.14390342E-01 0.13428507E+03</pdfrwt>
<totfact> 0.44779399E+03</totfact>
</mgrwt>
</event>
<event>
 8    1  0.8504141E-006  0.1754506E+03  0.7546771E-02  0.1177628E+00
          1   -1    0    0  501    0  0.00000000000E+00  0.00000000000E+00  0.22260665332E+03  0.22260665332E+03  0.00000000000E+00 0. -1.
         -1   -1    0    0    0  501 -0.00000000000E+00 -0.00000000000E+00 -0.13930943332E+03  0.13930943332E+03  0.00000000000E+00 0.  1.
         23    2    1    2    0    0 -0.79592568662E+02  0.93935275795E+02 -0.18051709344E+02  0.17637676774E+03  0.12499634780E+03 0.  0.
         23    2    1    2    0    0  0.79592568662E+02 -0.93935275795E+02  0.10134892934E+03  0.18553931891E+03  0.94838917944E+02 0.  0.
          5    1    3    3  502    0 -0.26826462199E+02  0.67586888265E+02 -0.67455004550E+02  0.99297100553E+02  0.47000000000E+01 0. -1.
         -5    1    3    3    0  502 -0.52766106463E+02  0.26348387530E+02  0.49403295206E+02  0.77079667188E+02  0.47000000000E+01 0. -1.
        -11    1    4    4    0    0  0.78733774759E+02 -0.28809265686E+02  0.82762605130E+02  0.11780759689E+03  0.00000000000E+00 0.  1.
         11    1    4    4    0    0  0.85879390324E+00 -0.65126010109E+02  0.18586324214E+02  0.67731722018E+02  0.00000000000E+00 0. -1.
<mgrwt>
<rscale>  0 0.17021114E+03</rscale>
<asrwt>0</asrwt>
<pdfrwt beam="1">  1        1 0.34247177E-01 0.17545056E+03</pdfrwt>
<pdfrwt beam="2">  1       -1 0.21432221E-01 0.17545056E+03</pdfrwt>
<totfact> 0.22641345E+03</totfact>
</mgrwt>
</event>
<event>
 8    1  0.8504141E-006  0.1636838E+03  0.7546771E-02  0.1191442E+00
          1   -1    0    0  501    0  0.00000000000E+00  0.00000000000E+00  0.69660184374E+03  0.69660184374E+03  0.00000000000E+00 0. -1.
         -1   -1    0    0    0  501 -0.00000000000E+00 -0.00000000000E+00 -0.40875729828E+02  0.40875729828E+02  0.00000000000E+00 0.  1.
         23    2    1    2    0    0  0.91449038848E+02  0.52954575119E+02  0.18903220903E+03  0.25005108782E+03  0.12500102694E+03 0.  0.
         23    2    1    2    0    0 -0.91449038848E+02 -0.52954575119E+02  0.46669390488E+03  0.48742648574E+03  0.92813061715E+02 0.  0.
          5    1    3    3  502    0  0.15378391530E+01 -0.21379226272E+02  0.10224636565E+03  0.10457459326E+03  0.47000000000E+01 0. -1.
         -5    1    3    3    0  502  0.89911199695E+02  0.74333801391E+02  0.86785843379E+02  0.14547649456E+03  0.47000000000E+01 0. -1.
        -11    1    4    4    0    0 -0.37402225771E+02  0.15880298104E+02  0.67793540144E+02  0.79038436509E+02  0.00000000000E+00 0.  1.
         11    1    4    4    0    0 -0.54046813077E+02 -0.68834873223E+02  0.39890036473E+03  0.40838804924E+03  0.00000000000E+00 0. -1.
<mgrwt>
<rscale>  0 0.15759275E+03</rscale>
<asrwt>0</asrwt>
<pdfrwt beam="1">  1        1 0.10716951E+00 0.16368375E+03</pdfrwt>
<pdfrwt beam="2">  1       -1 0.62885743E-02 0.16368375E+03</pdfrwt>
<totfact> 0.34703585E+03</totfact>
</mgrwt>
</event>
<event>
 7    1  0.8504141E-006  0.2907096E+03  0.7546771E-02  0.1135466E+00
         -1   -1    0    0    0  501 -0.00000000000E+00  0.00000000000E+00  0.12017809692E+04  0.12017809692E+04  0.00000000000E+00 0.  1.
          1   -1    0    0  501    0  0.00000000000E+00 -0.00000000000E+00 -0.31016259085E+02  0.31016259085E+02  0.00000000000E+00 0. -1.
         23    2    1    2    0    0 -0.84604044557E+01  0.38873522562E+01  0.21386183362E+03  0.23270964896E+03  0.91269967072E+02 0.  0.
          5    1    1    2  502    0  0.10701310335E+02 -0.14305466884E+03  0.60114836108E+03  0.61804578985E+03  0.47000000000E+01 0. -1.
         -5    1    1    2    0  502 -0.22409058788E+01  0.13916731659E+03  0.35575451539E+03  0.38204178944E+03  0.47000000000E+01 0.  1.
        -11    1    3    3    0    0 -0.31347581877E+01 -0.43683838314E+02  0.10701489384E+03  0.11562997856E+03  0.00000000000E+00 0. -1.
         11    1    3    3    0    0 -0.53256462680E+01  0.47571190570E+02  0.10684693979E+03  0.11707967040E+03  0.00000000000E+00 0.  1.
<mgrwt>
<rscale>  0 0.21789060E+03</rscale>
<asrwt>0</asrwt>
<pdfrwt beam="2">  1        1 0.47717331E-02 0.29070957E+03</pdfrwt>
<pdfrwt beam="1">  1       -1 0.18488934E+00 0.29070957E+03</pdfrwt>
<totfact> 0.37565496E+02</totfact>
</mgrwt>
</event>
<event>
 8    1  0.8504141E-006  0.1300046E+03  0.7546771E-02  0.1240427E+00
         -2   -1    0    0    0  501 -0.00000000000E+00  0.00000000000E+00  0.34108889365E+02  0.34108889365E+02  0.00000000000E+00 0.  1.
          2   -1    0    0  501    0  0.00000000000E+00 -0.00000000000E+00 -0.38674541794E+03  0.38674541794E+03  0.00000000000E+00 0. -1.
         23    2    1    2    0    0 -0.35032698727E+02  0.69523145499E+01 -0.19389615405E+03  0.23344576026E+03  0.12500231907E+03 0.  0.
         23    2    1    2    0    0  0.35032698727E+02 -0.69523145499E+01 -0.15874037453E+03  0.18740854705E+03  0.92993722061E+02 0.  0.
          5    1    3    3  502    0 -0.37658873471E+02  0.42702160159E+02 -0.27936728450E+02  0.63594150909E+02  0.47000000000E+01 0. -1.
         -5    1    3    3    0  502  0.26261747437E+01 -0.35749845609E+02 -0.16595942560E+03  0.16985160935E+03  0.47000000000E+01 0. -1.
        -11    1    4    4    0    0  0.11173734768E+02 -0.49472779775E+02 -0.85908516411E+02  0.99763126852E+02  0.00000000000E+00 0.  1.
         11    1    4    4    0    0  0.23858963959E+02  0.42520465225E+02 -0.72831858122E+02  0.87645420198E+02  0.00000000000E+00 0. -1.
<mgrwt>
<rscale>  0 0.12163316E+03</rscale>
<asrwt>0</asrwt>
<pdfrwt beam="2">  1        2 0.59499294E-01 0.13000463E+03</pdfrwt>
<pdfrwt beam="1">  1       -2 0.52475216E-02 0.13000463E+03</pdfrwt>
<totfact> 0.14157474E+04</totfact>
</mgrwt>
</event>
<event>
 8    1  0.8504141E-006  0.1539310E+03  0.7546771E-02  0.1203878E+00
          1   -1    0    0  501    0  0.00000000000E+00  0.00000000000E+00  0.63594135715E+02  0.63594135715E+02  0.00000000000E+00 0. -1.
         -1   -1    0    0    0  501 -0.00000000000E+00 -0.00000000000E+00 -0.31891144221E+03  0.31891144221E+03  0.00000000000E+00 0.  1.
         23    2    1    2    0    0  0.54756848198E+01  0.89664943438E+02 -0.11651559957E+03  0.19305606636E+03  0.12499989844E+03 0.  0.
         23    2    1    2    0    0 -0.54756848198E+01 -0.89664943438E+02 -0.13880170693E+03  0.18944951157E+03  0.92495504653E+02 0.  0.
          5    1    3    3  502    0 -0.57448699216E+02  0.23684644267E+02 -0.53403435666E+02  0.82069070646E+02  0.47000000000E+01 0.  1.
         -5    1    3    3    0  502  0.62924384036E+02  0.65980299172E+02 -0.63112163902E+02  0.11098699571E+03  0.47000000000E+01 0.  1.
        -11    1    4    4    0    0  0.96707204758E+01 -0.36126970314E+02 -0.12723907448E+03  0.13262150238E+03  0.00000000000E+00 0.  1.
         11    1    4    4    0    0 -0.15146405296E+02 -0.53537973125E+02 -0.11562632453E+02  0.56828009194E+02  0.00000000000E+00 0. -1.
<mgrwt>
<rscale>  0 0.14726193E+03</rscale>
<asrwt>0</asrwt>
<pdfrwt beam="1">  1        1 0.97837131E-02 0.15393102E+03</pdfrwt>
<pdfrwt beam="2">  1       -1 0.49063299E-01 0.15393102E+03</pdfrwt>
<totfact> 0.27342221E+03</totfact>
</mgrwt>
</event>
<event>
 8    1  0.8504141E-006  0.1321372E+03  0.7546771E-02  0.1240533E+00
         -1   -1    0    0    0  501 -0.00000000000E+00  0.00000000000E+00  0.12982385230E+03  0.12982385230E+03  0.00000000000E+00 0.  1.
          1   -1    0    0  501    0  0.00000000000E+00 -0.00000000000E+00 -0.10971587667E+03  0.10971587667E+03  0.00000000000E+00 0. -1.
         23    2    1    2    0    0 -0.42542764166E+02  0.65322162989E+01  0.48421215951E+02  0.14072971644E+03  0.12493071000E+03 0.  0.
         23    2    1    2    0    0  0.42542764166E+02 -0.65322162989E+01 -0.28313240315E+02  0.98810012532E+02  0.84316204651E+02 0.  0.
          5    1    3    3  502    0 -0.79583689257E+02  0.32464549861E+02  0.37983458721E+02  0.94086894570E+02  0.47000000000E+01 0. -1.
         -5    1    3    3    0  502  0.37040925092E+02 -0.25932333562E+02  0.10437757231E+02  0.46642821866E+02  0.47000000000E+01 0. -1.
        -11    1    4    4    0    0  0.32018109837E+02  0.36886619866E+02 -0.22429058728E+02  0.53747974456E+02  0.00000000000E+00 0.  1.
         11    1    4    4    0    0  0.10524654329E+02 -0.43418836165E+02 -0.58841815872E+01  0.45062038077E+02  0.00000000000E+00 0. -1.
<mgrwt>
<rscale>  0 0.12156767E+03</rscale>
<asrwt>0</asrwt>
<pdfrwt beam="2">  1        1 0.16879366E-01 0.13213720E+03</pdfrwt>
<pdfrwt beam="1">  1       -1 0.19972900E-01 0.13213720E+03</pdfrwt>
<totfact> 0.61119919E+03</totfact>
</mgrwt>
</event>
<event>
 8    1  0.8504141E-006  0.1405778E+03  0.7546771E-02  0.1223725E+00
          1   -1    0    0  501    0  0.00000000000E+00  0.00000000000E+00  0.56590141968E+02  0.56590141968E+02  0.00000000000E+00 0. -1.
         -1   -1    0    0    0  501 -0.00000000000E+00 -0.00000000000E+00 -0.28546102530E+03  0.28546102530E+03  0.00000000000E+00 0.  1.
         23    2    1    2    0    0  0.64117430536E+02  0.51489261402E+01 -0.15142345652E+03  0.20661841720E+03  0.12499820320E+03 0.  0.
         23    2    1    2    0    0 -0.64117430536E+02 -0.51489261402E+01 -0.77447426809E+02  0.13543275006E+03  0.90589014408E+02 0.  0.
          5    1    3    3  502    0  0.10298242484E+02  0.49562083994E+02 -0.14496267432E+02  0.52864787312E+02  0.47000000000E+01 0. -1.
         -5    1    3    3    0  502  0.53819188052E+02 -0.44413157854E+02 -0.13692718909E+03  0.15375362989E+03  0.47000000000E+01 0. -1.
        -11    1    4    4    0    0 -0.64931708281E+02 -0.15785456640E+02 -0.94246811841E+02  0.11553254487E+03  0.00000000000E+00 0.  1.
         11    1    4    4    0    0  0.81427774494E+00  0.10636530500E+02  0.16799385032E+02  0.19900205195E+02  0.00000000000E+00 0. -1.
<mgrwt>
<rscale>  0 0.13254676E+03</rscale>
<asrwt>0</asrwt>
<pdfrwt beam="1">  1        1 0.87061759E-02 0.14057776E+03</pdfrwt>
<pdfrwt beam="2">  1       -1 0.43917080E-01 0.14057776E+03</pdfrwt>
<totfact> 0.38826434E+03</totfact>
</mgrwt>
</event>
<event>
 8    1  0.8504141E-006  0.1371714E+03  0.7546771E-02  0.1228907E+00
         -2   -1    0    0    0  501 -0.00000000000E+00  0.00000000000E+00  0.55437091926E+02  0.55437091926E+02  0.00000000000E+00 0. -1.
          2   -1    0    0  501    0  0.00000000000E+00 -0.00000000000E+00 -0.33814513333E+03  0.33814513333E+03  0.00000000000E+00 0.  1.
         23    2    1    2    0    0  0.36687619655E+02 -0.42977407067E+02 -0.67078243781E+02  0.15269406052E+03  0.12499178523E+03 0.  0.
         23    2    1    2    0    0 -0.36687619655E+02  0.42977407067E+02 -0.21562979762E+03  0.24088816473E+03  0.91311879476E+02 0.  0.
          5    1    3    3  502    0  0.49560139982E+02 -0.78914398922E+02 -0.26968984558E+02  0.97124178042E+02  0.47000000000E+01 0.  1.
         -5    1    3    3    0  502 -0.12872520327E+02  0.35936991855E+02 -0.40109259223E+02  0.55569882477E+02  0.47000000000E+01 0.  1.
        -11    1    4    4    0    0 -0.44299758640E+02 -0.88188309797E+01 -0.15156859126E+03  0.15815586695E+03  0.00000000000E+00 0.  1.
         11    1    4    4    0    0  0.76121389849E+01  0.51796238047E+02 -0.64061206359E+02  0.82732297780E+02  0.00000000000E+00 0. -1.
<mgrwt>
<rscale>  0 0.12902697E+03</rscale>
<asrwt>0</asrwt>
<pdfrwt beam="2">  1        2 0.52022328E-01 0.13717137E+03</pdfrwt>
<pdfrwt beam="1">  1       -2 0.85287834E-02 0.13717137E+03</pdfrwt>
<totfact> 0.78123657E+03</totfact>
</mgrwt>
</event>
<event>
 8    1  0.8504141E-006  0.1415223E+03  0.7546771E-02  0.1222487E+00
          2   -1    0    0  501    0  0.00000000000E+00  0.00000000000E+00  0.48645995695E+03  0.48645995695E+03  0.00000000000E+00 0. -1.
         -2   -1    0    0    0  501 -0.00000000000E+00 -0.00000000000E+00 -0.33785942260E+02  0.33785942260E+02  0.00000000000E+00 0.  1.
         23    2    1    2    0    0 -0.50958920115E+02  0.42508523136E+02  0.29256961088E+03  0.32500084612E+03  0.12499914675E+03 0.  0.
         23    2    1    2    0    0  0.50958920115E+02 -0.42508523136E+02  0.16010440380E+03  0.19524505308E+03  0.89907867056E+02 0.  0.
          5    1    3    3  502    0  0.25558211558E+02  0.47555135300E+02  0.63982737503E+02  0.83848636064E+02  0.47000000000E+01 0.  1.
         -5    1    3    3    0  502 -0.76517131673E+02 -0.50466121636E+01  0.22858687338E+03  0.24115221006E+03  0.47000000000E+01 0.  1.
        -11    1    4    4    0    0  0.24432679481E+02  0.82021668963E+01  0.59471071410E+00  0.25779547111E+02  0.00000000000E+00 0.  1.
         11    1    4    4    0    0  0.26526240634E+02 -0.50710690033E+02  0.15950969309E+03  0.16946550597E+03  0.00000000000E+00 0. -1.
<mgrwt>
<rscale>  0 0.13340648E+03</rscale>
<asrwt>0</asrwt>
<pdfrwt beam="1">  1        2 0.74839988E-01 0.14152234E+03</pdfrwt>
<pdfrwt beam="2">  1       -2 0.51978376E-02 0.14152234E+03</pdfrwt>
<totfact> 0.11288127E+04</totfact>
</mgrwt>
</event>
<event>
 8    1  0.8504141E-006  0.1284162E+03  0.7546771E-02  0.1251363E+00
          1   -1    0    0  501    0  0.00000000000E+00  0.00000000000E+00  0.10851256848E+03  0.10851256848E+03  0.00000000000E+00 0. -1.
         -1   -1    0    0    0  501 -0.00000000000E+00 -0.00000000000E+00 -0.14922262741E+03  0.14922262741E+03  0.00000000000E+00 0.  1.
         23    2    1    2    0    0  0.29333079677E+02 -0.26941820744E+01 -0.93998881627E+02  0.15914305782E+03  0.12499213945E+03 0.  0.
         23    2    1    2    0    0 -0.29333079677E+02  0.26941820744E+01  0.53288822694E+02  0.98592138069E+02  0.77543683718E+02 0.  0.
          5    1    3    3  502    0 -0.19527224770E+02 -0.25717969888E+02  0.16123498644E+02  0.36397578091E+02  0.47000000000E+01 0. -1.
         -5    1    3    3    0  502  0.48860304447E+02  0.23023787814E+02 -0.11012238027E+03  0.12274547972E+03  0.47000000000E+01 0. -1.
        -11    1    4    4    0    0 -0.42868274975E+02  0.23728978389E+02  0.54828213809E+02  0.73531533672E+02  0.00000000000E+00 0. -1.
         11    1    4    4    0    0  0.13535195298E+02 -0.21034796314E+02 -0.15393911140E+01  0.25060604397E+02  0.00000000000E+00 0.  1.
<mgrwt>
<rscale>  0 0.11512484E+03</rscale>
<asrwt>0</asrwt>
<pdfrwt beam="1">  1        1 0.16694241E-01 0.12841621E+03</pdfrwt>
<pdfrwt beam="2">  1       -1 0.22957327E-01 0.12841621E+03</pdfrwt>
<totfact> 0.49411796E+03</totfact>
</mgrwt>
</event>
<event>
 8    1  0.8504141E-006  0.1393890E+03  0.7546771E-02  0.1225503E+00
          1   -1    0    0  501    0  0.00000000000E+00  0.00000000000E+00  0.12216347517E+03  0.12216347517E+03  0.00000000000E+00 0. -1.
         -1   -1    0    0    0  501 -0.00000000000E+00 -0.00000000000E+00 -0.14092739646E+03  0.14092739646E+03  0.00000000000E+00 0.  1.
         23    2    1    2    0    0  0.38737725608E+02 -0.47913648058E+02 -0.51327510919E+02  0.14853892624E+03  0.12503187664E+03 0.  0.
         23    2    1    2    0    0 -0.38737725608E+02  0.47913648058E+02  0.32563589626E+02  0.11455194540E+03  0.90914420028E+02 0.  0.
          5    1    3    3  502    0  0.37974967797E+02  0.30517807688E+02 -0.49976818359E+02  0.69951462733E+02  0.47000000000E+01 0.  1.
         -5    1    3    3    0  502  0.76275781110E+00 -0.78431455746E+02 -0.13506925597E+01  0.78587463506E+02  0.47000000000E+01 0.  1.
        -11    1    4    4    0    0 -0.46010951504E+02  0.34666018161E+02 -0.19124329478E+02  0.60699921346E+02  0.00000000000E+00 0.  1.
         11    1    4    4    0    0  0.72732258961E+01  0.13247629897E+02  0.51687919104E+02  0.53852024049E+02  0.00000000000E+00 0. -1.
<mgrwt>
<rscale>  0 0.13132511E+03</rscale>
<asrwt>0</asrwt>
<pdfrwt beam="1">  1        1 0.18794381E-01 0.13938902E+03</pdfrwt>
<pdfrwt beam="2">  1       -1 0.21681138E-01 0.13938902E+03</pdfrwt>
<totfact> 0.46821594E+03</totfact>
</mgrwt>
</event>
<event>
 8    1  0.8504141E-006  0.1682525E+03  0.7546771E-02  0.1180036E+00
          2   -1    0    0  501    0  0.00000000000E+00  0.00000000000E+00  0.12203304237E+03  0.12203304237E+03  0.00000000000E+00 0. -1.
         -2   -1    0    0    0  501 -0.00000000000E+00 -0.00000000000E+00 -0.23019161914E+03  0.23019161914E+03  0.00000000000E+00 0.  1.
         23    2    1    2    0    0 -0.71552267946E+02 -0.86954560896E+02 -0.51745128610E+02  0.17602968557E+03  0.12501227603E+03 0.  0.
         23    2    1    2    0    0  0.71552267946E+02  0.86954560896E+02 -0.56413448154E+02  0.17619497594E+03  0.12321270107E+03 0.  0.
          5    1    3    3  502    0  0.22798385745E+02 -0.10708416120E+02 -0.48190787662E+02  0.54579103913E+02  0.47000000000E+01 0.  1.
         -5    1    3    3    0  502 -0.94350653691E+02 -0.76246144776E+02 -0.35543409472E+01  0.12145058166E+03  0.47000000000E+01 0.  1.
        -11    1    4    4    0    0  0.10466028657E+03  0.78285845753E+02 -0.55398702742E+02  0.14195585756E+03  0.00000000000E+00 0.  1.
         11    1    4    4    0    0 -0.33108018623E+02  0.86687151435E+01 -0.10147454119E+01  0.34239118382E+02  0.00000000000E+00 0. -1.
<mgrwt>
<rscale>  0 0.16791828E+03</rscale>
<asrwt>0</asrwt>
<pdfrwt beam="1">  1        2 0.18774314E-01 0.16825246E+03</pdfrwt>
<pdfrwt beam="2">  1       -2 0.35414095E-01 0.16825246E+03</pdfrwt>
<totfact> 0.21970720E+03</totfact>
</mgrwt>
</event>
<event>
 8    1  0.8504141E-006  0.2071449E+03  0.7546771E-02  0.1147849E+00
          1   -1    0    0  501    0  0.00000000000E+00  0.00000000000E+00  0.65120811942E+03  0.65120811942E+03  0.00000000000E+00 0. -1.
         -1   -1    0    0    0  501 -0.00000000000E+00 -0.00000000000E+00 -0.65288609723E+02  0.65288609723E+02  0.00000000000E+00 0.  1.
         23    2    1    2    0    0 -0.58892730550E+02  0.15432366472E+03  0.20419696827E+03  0.29087006968E+03  0.12499939351E+03 0.  0.
         23    2    1    2    0    0  0.58892730550E+02 -0.15432366472E+03  0.38172254142E+03  0.42562665947E+03  0.90342721976E+02 0.  0.
          5    1    3    3  502    0  0.67398688736E+01  0.12935475403E+03  0.93987012830E+02  0.16010536157E+03  0.47000000000E+01 0. -1.
         -5    1    3    3    0  502 -0.65632599424E+02  0.24968910695E+02  0.11020995544E+03  0.13076470811E+03  0.47000000000E+01 0. -1.
        -11    1    4    4    0    0  0.56228773160E+02 -0.92225540310E+02  0.14457601080E+03  0.18047007540E+03  0.00000000000E+00 0.  1.
         11    1    4    4    0    0  0.26639573904E+01 -0.62098124411E+02  0.23714653062E+03  0.24515658407E+03  0.00000000000E+00 0. -1.
<mgrwt>
<rscale>  0 0.20225602E+03</rscale>
<asrwt>0</asrwt>
<pdfrwt beam="1">  1        1 0.10018586E+00 0.20714487E+03</pdfrwt>
<pdfrwt beam="2">  1       -1 0.10044402E-01 0.20714487E+03</pdfrwt>
<totfact> 0.18859774E+03</totfact>
</mgrwt>
</event>
<event>
 8    1  0.8504141E-006  0.1423804E+03  0.7546771E-02  0.1221421E+00
          2   -1    0    0  501    0  0.00000000000E+00  0.00000000000E+00  0.30301466045E+03  0.30301466045E+03  0.00000000000E+00 0. -1.
         -2   -1    0    0    0  501 -0.00000000000E+00 -0.00000000000E+00 -0.83340038376E+02  0.83340038376E+02  0.00000000000E+00 0.  1.
         23    2    1    2    0    0  0.15274506591E+02 -0.66415928776E+02  0.30754275794E+01  0.14241357722E+03  0.12501112981E+03 0.  0.
         23    2    1    2    0    0 -0.15274506591E+02  0.66415928776E+02  0.21659919449E+03  0.24394112160E+03  0.89149725784E+02 0.  0.
          5    1    3    3  502    0 -0.39490951128E+02 -0.69398577240E+02 -0.20435417754E+02  0.82555399840E+02  0.47000000000E+01 0. -1.
         -5    1    3    3    0  502  0.54765457720E+02  0.29826484648E+01  0.23510845334E+02  0.59858177381E+02  0.47000000000E+01 0. -1.
        -11    1    4    4    0    0  0.76840087927E+01  0.41832100543E+02  0.24840643631E+02  0.49254707420E+02  0.00000000000E+00 0.  1.
         11    1    4    4    0    0 -0.22958515384E+02  0.24583828233E+02  0.19175855086E+03  0.19468641418E+03  0.00000000000E+00 0. -1.
<mgrwt>
<rscale>  0 0.13415278E+03</rscale>
<asrwt>0</asrwt>
<pdfrwt beam="1">  1        2 0.46617640E-01 0.14238037E+03</pdfrwt>
<pdfrwt beam="2">  1       -2 0.12821545E-01 0.14238037E+03</pdfrwt>
<totfact> 0.46210967E+03</totfact>
</mgrwt>
</event>
<event>
 8    1  0.8504141E-006  0.1716085E+03  0.7546771E-02  0.1182356E+00
         -1   -1    0    0    0  501 -0.00000000000E+00  0.00000000000E+00  0.80794130741E+03  0.80794130741E+03  0.00000000000E+00 0.  1.
          1   -1    0    0  501    0  0.00000000000E+00 -0.00000000000E+00 -0.36276354697E+02  0.36276354697E+02  0.00000000000E+00 0. -1.
         23    2    1    2    0    0 -0.60891966853E+02  0.10082083383E+03  0.55610215454E+03  0.58197860728E+03  0.12480713477E+03 0.  0.
         23    2    1    2    0    0  0.60891966853E+02 -0.10082083383E+03  0.21556279817E+03  0.26223905482E+03  0.91811381419E+02 0.  0.
          5    1    3    3  502    0 -0.43695938578E+02  0.10531399739E+03  0.55128715504E+03  0.56297423601E+03  0.47000000000E+01 0.  1.
         -5    1    3    3    0  502 -0.17196028274E+02 -0.44931635645E+01  0.48149994947E+01  0.19004371270E+02  0.47000000000E+01 0.  1.
        -11    1    4    4    0    0 -0.19208381276E+02 -0.51745808406E+02  0.86478260314E+02  0.10259181305E+03  0.00000000000E+00 0.  1.
         11    1    4    4    0    0  0.80100348129E+02 -0.49075025423E+02  0.12908453786E+03  0.15964724177E+03  0.00000000000E+00 0. -1.
<mgrwt>
<rscale>  0 0.16574757E+03</rscale>
<asrwt>0</asrwt>
<pdfrwt beam="2">  1        1 0.55809782E-02 0.17160855E+03</pdfrwt>
<pdfrwt beam="1">  1       -1 0.12429865E+00 0.17160855E+03</pdfrwt>
<totfact> 0.86044560E+02</totfact>
</mgrwt>
</event>
<event>
 8    1  0.8504141E-006  0.1381737E+03  0.7546771E-02  0.1227003E+00
          3   -1    0    0  501    0  0.00000000000E+00  0.00000000000E+00  0.53094297890E+03  0.53094297890E+03  0.00000000000E+00 0. -1.
         -3   -1    0    0    0  501 -0.00000000000E+00 -0.00000000000E+00 -0.29127960247E+02  0.29127960247E+02  0.00000000000E+00 0.  1.
         23    2    1    2    0    0  0.55016078530E+02 -0.21261629986E+02  0.25197149169E+03  0.28737012859E+03  0.12495252049E+03 0.  0.
         23    2    1    2    0    0 -0.55016078530E+02  0.21261629986E+02  0.24984352696E+03  0.27270081055E+03  0.92006077546E+02 0.  0.
          5    1    3    3  502    0  0.61925522990E+02 -0.53852383577E+02  0.89784000306E+02  0.12172964440E+03  0.47000000000E+01 0. -1.
         -5    1    3    3    0  502 -0.69094444600E+01  0.32590753592E+02  0.16218749138E+03  0.16564048419E+03  0.47000000000E+01 0. -1.
        -11    1    4    4    0    0 -0.38095442687E+02  0.46062760903E+02  0.22764520391E+03  0.23536223053E+03  0.00000000000E+00 0.  1.
         11    1    4    4    0    0 -0.16920635842E+02 -0.24801130917E+02  0.22198323051E+02  0.37338580026E+02  0.00000000000E+00 0. -1.
<mgrwt>
<rscale>  0 0.13030540E+03</rscale>
<asrwt>0</asrwt>
<pdfrwt beam="1">  1        3 0.81683528E-01 0.13817365E+03</pdfrwt>
<pdfrwt beam="2">  1       -3 0.44812250E-02 0.13817365E+03</pdfrwt>
<totfact> 0.89625234E+02</totfact>
</mgrwt>
</event>
<event>
 8    1  0.8504141E-006  0.1262956E+03  0.7546771E-02  0.1248396E+00
          2   -1    0    0  501    0  0.00000000000E+00  0.00000000000E+00  0.57610595888E+03  0.57610595888E+03  0.00000000000E+00 0. -1.
         -2   -1    0    0    0  501 -0.00000000000E+00 -0.00000000000E+00 -0.29806888809E+02  0.29806888809E+02  0.00000000000E+00 0.  1.
         23    2    1    2    0    0 -0.20097235082E+01  0.16942784618E+02  0.13719191777E+03  0.18647304444E+03  0.12513783225E+03 0.  0.
         23    2    1    2    0    0  0.20097235082E+01 -0.16942784618E+02  0.40910715230E+03  0.41943980325E+03  0.90939482913E+02 0.  0.
          5    1    3    3  502    0  0.53074957358E+02 -0.19400819591E+02  0.42078787821E+02  0.70612019401E+02  0.47000000000E+01 0. -1.
         -5    1    3    3    0  502 -0.55084680866E+02  0.36343604209E+02  0.95113129953E+02  0.11586102504E+03  0.47000000000E+01 0. -1.
        -11    1    4    4    0    0  0.42705351700E+02  0.69393726030E+01  0.15195600543E+03  0.15799534658E+03  0.00000000000E+00 0.  1.
         11    1    4    4    0    0 -0.40695628192E+02 -0.23882157221E+02  0.25715114687E+03  0.26144445667E+03  0.00000000000E+00 0. -1.
<mgrwt>
<rscale>  0 0.11684422E+03</rscale>
<asrwt>0</asrwt>
<pdfrwt beam="1">  1        2 0.88631677E-01 0.12629558E+03</pdfrwt>
<pdfrwt beam="2">  1       -2 0.45856757E-02 0.12629558E+03</pdfrwt>
<totfact> 0.11201013E+04</totfact>
</mgrwt>
</event>
<event>
 8    1  0.8504141E-006  0.1153600E+03  0.7546771E-02  0.1261595E+00
          1   -1    0    0  501    0  0.00000000000E+00  0.00000000000E+00  0.15607554589E+02  0.15607554589E+02  0.00000000000E+00 0. -1.
         -1   -1    0    0    0  501 -0.00000000000E+00 -0.00000000000E+00 -0.78278922453E+03  0.78278922453E+03  0.00000000000E+00 0.  1.
         23    2    1    2    0    0  0.22881242172E+01  0.18295130642E+02 -0.54979053724E+03  0.56176291692E+03  0.11387709458E+03 0.  0.
         23    2    1    2    0    0 -0.22881242172E+01 -0.18295130642E+02 -0.21739113270E+03  0.23663386220E+03  0.91633688375E+02 0.  0.
          5    1    3    3  502    0 -0.81452131464E+01 -0.41370252306E+02 -0.35986637085E+03  0.36235857537E+03  0.47000000000E+01 0. -1.
         -5    1    3    3    0  502  0.10433337364E+02  0.59665382949E+02 -0.18992416639E+03  0.19940434155E+03  0.47000000000E+01 0.  1.
        -11    1    4    4    0    0  0.25118208377E+02 -0.46815649152E+02 -0.13951344060E+03  0.14928707079E+03  0.00000000000E+00 0.  1.
         11    1    4    4    0    0 -0.27406332595E+02  0.28520518510E+02 -0.77877692101E+02  0.87346791409E+02  0.00000000000E+00 0. -1.
<mgrwt>
<rscale>  0 0.10944851E+03</rscale>
<asrwt>0</asrwt>
<pdfrwt beam="1">  1        1 0.24011631E-02 0.11536005E+03</pdfrwt>
<pdfrwt beam="2">  1       -1 0.12042907E+00 0.11536005E+03</pdfrwt>
<totfact> 0.29197036E+03</totfact>
</mgrwt>
</event>
<event>
 8    1  0.8504141E-006  0.1376725E+03  0.7546771E-02  0.1228196E+00
         -3   -1    0    0    0  501 -0.00000000000E+00  0.00000000000E+00  0.27839233206E+03  0.27839233206E+03  0.00000000000E+00 0.  1.
          3   -1    0    0  501    0  0.00000000000E+00 -0.00000000000E+00 -0.63321217359E+02  0.63321217359E+02  0.00000000000E+00 0. -1.
         23    2    1    2    0    0  0.56685969771E+02  0.10667793576E+02  0.18348813259E+03  0.22939402295E+03  0.12500648773E+03 0.  0.
         23    2    1    2    0    0 -0.56685969771E+02 -0.10667793576E+02  0.31582982108E+02  0.11231952647E+03  0.91055424210E+02 0.  0.
          5    1    3    3  502    0  0.13710544510E+02  0.21146775570E+02  0.18312311141E+03  0.18490897512E+03  0.47000000000E+01 0.  1.
         -5    1    3    3    0  502  0.42975425261E+02 -0.10478981994E+02  0.36502118137E+00  0.44485047830E+02  0.47000000000E+01 0.  1.
        -11    1    4    4    0    0 -0.76460289125E+02 -0.28061891615E+02  0.23417278465E+02  0.84746766928E+02  0.00000000000E+00 0.  1.
         11    1    4    4    0    0  0.19774319354E+02  0.17394098039E+02  0.81657036431E+01  0.27572759538E+02  0.00000000000E+00 0. -1.
<mgrwt>
<rscale>  0 0.12950238E+03</rscale>
<asrwt>0</asrwt>
<pdfrwt beam="2">  1        3 0.97417259E-02 0.13767252E+03</pdfrwt>
<pdfrwt beam="1">  1       -3 0.42829589E-01 0.13767252E+03</pdfrwt>
<totfact> 0.96818523E+02</totfact>
</mgrwt>
</event>
<event>
 7    1  0.8504141E-006  0.1815601E+03  0.7546771E-02  0.1191559E+00
         -2   -1    0    0    0  501 -0.00000000000E+00  0.00000000000E+00  0.17774172292E+03  0.17774172292E+03  0.00000000000E+00 0.  1.
          2   -1    0    0  501    0  0.00000000000E+00 -0.00000000000E+00 -0.11435616170E+03  0.11435616170E+03  0.00000000000E+00 0. -1.
         23    2    1    2    0    0 -0.30733866545E+02  0.35196766582E+02  0.12557352928E+02  0.10355725103E+03  0.91558911083E+02 0.  0.
          5    1    1    2  502    0  0.77755613797E+02  0.26212537581E+02 -0.18860378936E+02  0.84325775994E+02  0.47000000000E+01 0. -1.
         -5    1    1    2    0  502 -0.47021747252E+02 -0.61409304163E+02  0.69688587229E+02  0.10421485759E+03  0.47000000000E+01 0.  1.
        -11    1    3    3    0    0  0.28081069419E+02 -0.50519545343E+01 -0.75365945094E+01  0.29510489002E+02  0.00000000000E+00 0.  1.
         11    1    3    3    0    0 -0.58814935964E+02  0.40248721116E+02  0.20093947437E+02  0.74046762033E+02  0.00000000000E+00 0. -1.
<mgrwt>
<rscale>  0 0.15749118E+03</rscale>
<asrwt>0</asrwt>
<pdfrwt beam="2">  1        2 0.17593256E-01 0.18156008E+03</pdfrwt>
<pdfrwt beam="1">  1       -2 0.27344880E-01 0.18156008E+03</pdfrwt>
<totfact> 0.38040127E+03</totfact>
</mgrwt>
</event>
<event>
 8    1  0.8504141E-006  0.1457819E+03  0.7546771E-02  0.1215958E+00
          1   -1    0    0  501    0  0.00000000000E+00  0.00000000000E+00  0.11242158333E+03  0.11242158333E+03  0.00000000000E+00 0. -1.
         -1   -1    0    0    0  501 -0.00000000000E+00 -0.00000000000E+00 -0.15452253569E+03  0.15452253569E+03  0.00000000000E+00 0.  1.
         23    2    1    2    0    0  0.10078508886E+02 -0.74364030926E+02 -0.31846966156E+02  0.14921992418E+03  0.12498308319E+03 0.  0.
         23    2    1    2    0    0 -0.10078508886E+02  0.74364030926E+02 -0.10253986205E+02  0.11772419483E+03  0.90123561729E+02 0.  0.
          5    1    3    3  502    0  0.64484680908E+01  0.28675854478E+02 -0.35019587172E+02  0.45960296523E+02  0.47000000000E+01 0. -1.
         -5    1    3    3    0  502  0.36300407948E+01 -0.10303988540E+03  0.31726210166E+01  0.10325962766E+03  0.47000000000E+01 0. -1.
        -11    1    4    4    0    0 -0.18795393922E+02  0.80002745921E+02  0.20974468705E+02  0.84815296527E+02  0.00000000000E+00 0. -1.
         11    1    4    4    0    0  0.87168850365E+01 -0.56387149944E+01 -0.31228454910E+02  0.32908898305E+02  0.00000000000E+00 0.  1.
<mgrwt>
<rscale>  0 0.13806407E+03</rscale>
<asrwt>0</asrwt>
<pdfrwt beam="1">  1        1 0.17295628E-01 0.14578188E+03</pdfrwt>
<pdfrwt beam="2">  1       -1 0.23772698E-01 0.14578188E+03</pdfrwt>
<totfact> 0.44951294E+03</totfact>
</mgrwt>
</event>
<event>
 8    1  0.8504141E-006  0.1312445E+03  0.7546771E-02  0.1239124E+00
         -1   -1    0    0    0  501 -0.00000000000E+00  0.00000000000E+00  0.83330305773E+02  0.83330305773E+02  0.00000000000E+00 0.  1.
          1   -1    0    0  501    0  0.00000000000E+00 -0.00000000000E+00 -0.16044909641E+03  0.16044909641E+03  0.00000000000E+00 0. -1.
         23    2    1    2    0    0 -0.37599364704E+02  0.13604802143E+02 -0.35177743666E+02  0.13587715255E+03  0.12500529616E+03 0.  0.
         23    2    1    2    0    0  0.37599364704E+02 -0.13604802143E+02 -0.41941046969E+02  0.10790224963E+03  0.91022201619E+02 0.  0.
          5    1    3    3  502    0  0.42385362630E+02 -0.64352976777E+01 -0.31126039332E+02  0.53186956540E+02  0.47000000000E+01 0. -1.
         -5    1    3    3    0  502 -0.79984727334E+02  0.20040099821E+02 -0.40517043332E+01  0.82690196006E+02  0.47000000000E+01 0. -1.
        -11    1    4    4    0    0 -0.19662450909E+02  0.16732089468E+02  0.69370650150E+01  0.26733829968E+02  0.00000000000E+00 0. -1.
         11    1    4    4    0    0  0.57261815613E+02 -0.30336891611E+02 -0.48878111984E+02  0.81168419666E+02  0.00000000000E+00 0.  1.
<mgrwt>
<rscale>  0 0.12244094E+03</rscale>
<asrwt>0</asrwt>
<pdfrwt beam="2">  1        1 0.24684476E-01 0.13124453E+03</pdfrwt>
<pdfrwt beam="1">  1       -1 0.12820047E-01 0.13124453E+03</pdfrwt>
<totfact> 0.75808130E+03</totfact>
</mgrwt>
</event>
<event>
 8    1  0.8504141E-006  0.1299508E+03  0.7546771E-02  0.1241609E+00
         -1   -1    0    0    0  501 -0.00000000000E+00  0.00000000000E+00  0.10514722089E+02  0.10514722089E+02  0.00000000000E+00 0.  1.
          1   -1    0    0  501    0  0.00000000000E+00 -0.00000000000E+00 -0.12327675809E+04  0.12327675809E+04  0.00000000000E+00 0. -1.
         23    2    1    2    0    0  0.34992024241E+02  0.61554292968E+01 -0.73364775537E+03  0.74506794817E+03  0.12499954944E+03 0.  0.
         23    2    1    2    0    0 -0.34992024241E+02 -0.61554292968E+01 -0.48860510346E+03  0.49821435484E+03  0.90665678007E+02 0.  0.
          5    1    3    3  502    0  0.26304191276E+02 -0.55385337109E+02 -0.25153088149E+03  0.25893883522E+03  0.47000000000E+01 0.  1.
         -5    1    3    3    0  502  0.86878329651E+01  0.61540766406E+02 -0.48211687388E+03  0.48612911295E+03  0.47000000000E+01 0.  1.
        -11    1    4    4    0    0  0.27562609865E+02  0.13611363312E+02 -0.12394772139E+03  0.12770279681E+03  0.00000000000E+00 0.  1.
         11    1    4    4    0    0 -0.62554634106E+02 -0.19766792608E+02 -0.36465738207E+03  0.37051155803E+03  0.00000000000E+00 0. -1.
<mgrwt>
<rscale>  0 0.12090665E+03</rscale>
<asrwt>0</asrwt>
<pdfrwt beam="2">  1        1 0.18965651E+00 0.12995083E+03</pdfrwt>
<pdfrwt beam="1">  1       -1 0.16176499E-02 0.12995083E+03</pdfrwt>
<totfact> 0.98196614E+03</totfact>
</mgrwt>
</event>
<event>
 8    1  0.8504141E-006  0.1317313E+03  0.7546771E-02  0.1238402E+00
          3   -1    0    0  501    0  0.00000000000E+00  0.00000000000E+00  0.48892773271E+03  0.48892773271E+03  0.00000000000E+00 0. -1.
         -3   -1    0    0    0  501 -0.00000000000E+00 -0.00000000000E+00 -0.28091611173E+02  0.28091611173E+02  0.00000000000E+00 0.  1.
         23    2    1    2    0    0  0.17909443371E+02 -0.37521527665E+02  0.22138587667E+03  0.25761372720E+03  0.12499805141E+03 0.  0.
         23    2    1    2    0    0 -0.17909443371E+02  0.37521527665E+02  0.23945024487E+03  0.25940561668E+03  0.90698627314E+02 0.  0.
          5    1    3    3  502    0  0.14645326882E+02  0.44414889511E+01  0.21403044527E+03  0.21462836236E+03  0.47000000000E+01 0.  1.
         -5    1    3    3    0  502  0.32641164884E+01 -0.41963016617E+02  0.73554313920E+01  0.42985364846E+02  0.47000000000E+01 0.  1.
        -11    1    4    4    0    0 -0.49508381306E+02  0.37145243642E+02  0.19693530751E+03  0.20643246908E+03  0.00000000000E+00 0. -1.
         11    1    4    4    0    0  0.31598937936E+02  0.37628402310E+00  0.42514937360E+02  0.52973147603E+02  0.00000000000E+00 0.  1.
<mgrwt>
<rscale>  0 0.12289126E+03</rscale>
<asrwt>0</asrwt>
<pdfrwt beam="1">  1        3 0.75219645E-01 0.13173126E+03</pdfrwt>
<pdfrwt beam="2">  1       -3 0.43217867E-02 0.13173126E+03</pdfrwt>
<totfact> 0.11251966E+03</totfact>
</mgrwt>
</event>
<event>
 8    1  0.8504141E-006  0.1298680E+03  0.7546771E-02  0.1241831E+00
          1   -1    0    0  501    0  0.00000000000E+00  0.00000000000E+00  0.58042191244E+02  0.58042191244E+02  0.00000000000E+00 0. -1.
         -1   -1    0    0    0  501 -0.00000000000E+00 -0.00000000000E+00 -0.23736934558E+03  0.23736934558E+03  0.00000000000E+00 0.  1.
         23    2    1    2    0    0  0.34125355493E+02  0.97953738728E+01 -0.13905114353E+03  0.19026536555E+03  0.12492077319E+03 0.  0.
         23    2    1    2    0    0 -0.34125355493E+02 -0.97953738728E+01 -0.40276010803E+02  0.10514617127E+03  0.90405038853E+02 0.  0.
          5    1    3    3  502    0  0.29738756345E+02  0.55880206689E+02 -0.27078956150E+02  0.69009789123E+02  0.47000000000E+01 0. -1.
         -5    1    3    3    0  502  0.43865991484E+01 -0.46084832817E+02 -0.11197218738E+03  0.12125557643E+03  0.47000000000E+01 0. -1.
        -11    1    4    4    0    0 -0.56194002147E+02 -0.10350689849E+02 -0.54436541363E+02  0.78919197242E+02  0.00000000000E+00 0.  1.
         11    1    4    4    0    0  0.22068646654E+02  0.55531597604E+00  0.14160530560E+02  0.26226974029E+02  0.00000000000E+00 0. -1.
<mgrwt>
<rscale>  0 0.12077053E+03</rscale>
<asrwt>0</asrwt>
<pdfrwt beam="1">  1        1 0.89295679E-02 0.12986797E+03</pdfrwt>
<pdfrwt beam="2">  1       -1 0.36518361E-01 0.12986797E+03</pdfrwt>
<totfact> 0.51611251E+03</totfact>
</mgrwt>
</event>
<event>
 8    1  0.8504141E-006  0.1603271E+03  0.7546771E-02  0.1195971E+00
         -1   -1    0    0    0  501 -0.00000000000E+00  0.00000000000E+00  0.99749546789E+02  0.99749546789E+02  0.00000000000E+00 0.  1.
          1   -1    0    0  501    0  0.00000000000E+00 -0.00000000000E+00 -0.22700371604E+03  0.22700371604E+03  0.00000000000E+00 0. -1.
         23    2    1    2    0    0 -0.10020804141E+03 -0.66010070241E+01 -0.38855490425E+02  0.16496827381E+03  0.12497822759E+03 0.  0.
         23    2    1    2    0    0  0.10020804141E+03  0.66010070241E+01 -0.88398678824E+02  0.16178498902E+03  0.90966100263E+02 0.  0.
          5    1    3    3  502    0 -0.92347798175E+02 -0.36979922304E+02 -0.69037124873E+02  0.12117691650E+03  0.47000000000E+01 0. -1.
         -5    1    3    3    0  502 -0.78602432329E+01  0.30378915280E+02  0.30181634448E+02  0.43791357312E+02  0.47000000000E+01 0. -1.
        -11    1    4    4    0    0  0.28863062462E+02 -0.32409395318E+02 -0.24508238753E+01  0.43467825081E+02  0.00000000000E+00 0.  1.
         11    1    4    4    0    0  0.71344978945E+02  0.39010402342E+02 -0.85947854949E+02  0.11831716394E+03  0.00000000000E+00 0. -1.
<mgrwt>
<rscale>  0 0.15372322E+03</rscale>
<asrwt>0</asrwt>
<pdfrwt beam="2">  1        1 0.34923648E-01 0.16032711E+03</pdfrwt>
<pdfrwt beam="1">  1       -1 0.15346084E-01 0.16032711E+03</pdfrwt>
<totfact> 0.37573031E+03</totfact>
</mgrwt>
</event>
<event>
 8    1  0.8504141E-006  0.1307952E+03  0.7546771E-02  0.1241927E+00
          2   -1    0    0  501    0  0.00000000000E+00  0.00000000000E+00  0.13827887848E+03  0.13827887848E+03  0.00000000000E+00 0. -1.
         -2   -1    0    0    0  501 -0.00000000000E+00 -0.00000000000E+00 -0.95253461967E+02  0.95253461967E+02  0.00000000000E+00 0.  1.
         23    2    1    2    0    0  0.17470868123E+02  0.34325875796E+02  0.37906138586E+01  0.13085013552E+03  0.12499556884E+03 0.  0.
         23    2    1    2    0    0 -0.17470868123E+02 -0.34325875796E+02  0.39234802656E+02  0.10268220493E+03  0.86722364400E+02 0.  0.
          5    1    3    3  502    0  0.55854157521E+02  0.43116717039E+02 -0.31825199312E+02  0.77547865940E+02  0.47000000000E+01 0. -1.
         -5    1    3    3    0  502 -0.38383289398E+02 -0.87908412427E+01  0.35615813171E+02  0.53302269582E+02  0.47000000000E+01 0. -1.
        -11    1    4    4    0    0 -0.26990795325E+02 -0.19778830681E+02 -0.21322927521E+02  0.39678362031E+02  0.00000000000E+00 0.  1.
         11    1    4    4    0    0  0.95199272022E+01 -0.14547045115E+02  0.60557730177E+02  0.63003842896E+02  0.00000000000E+00 0. -1.
<mgrwt>
<rscale>  0 0.12071186E+03</rscale>
<asrwt>0</asrwt>
<pdfrwt beam="1">  1        2 0.21273674E-01 0.13079522E+03</pdfrwt>
<pdfrwt beam="2">  1       -2 0.14654379E-01 0.13079522E+03</pdfrwt>
<totfact> 0.86588396E+03</totfact>
</mgrwt>
</event>
<event>
 8    1  0.8504141E-006  0.1482003E+03  0.7546771E-02  0.1209625E+00
          2   -1    0    0  501    0  0.00000000000E+00  0.00000000000E+00  0.64125469832E+03  0.64125469832E+03  0.00000000000E+00 0. -1.
         -2   -1    0    0    0  501 -0.00000000000E+00 -0.00000000000E+00 -0.33486522589E+02  0.33486522589E+02  0.00000000000E+00 0.  1.
         23    2    1    2    0    0  0.50527915808E+02 -0.70954965135E+02  0.21040369949E+03  0.25735783030E+03  0.11989853504E+03 0.  0.
         23    2    1    2    0    0 -0.50527915808E+02  0.70954965135E+02  0.39736447625E+03  0.41738339061E+03  0.93395344762E+02 0.  0.
          5    1    3    3  502    0  0.28760027055E+02 -0.10307637207E+03  0.13413597020E+03  0.17165787525E+03  0.47000000000E+01 0. -1.
         -5    1    3    3    0  502  0.21767888753E+02  0.32121406933E+02  0.76267729294E+02  0.85699955051E+02  0.47000000000E+01 0.  1.
        -11    1    4    4    0    0 -0.43875850066E+02  0.82136014770E+02  0.39265663938E+03  0.40354758281E+03  0.00000000000E+00 0.  1.
         11    1    4    4    0    0 -0.66520657425E+01 -0.11181049635E+02  0.47078368638E+01  0.13835807801E+02  0.00000000000E+00 0. -1.
<mgrwt>
<rscale>  0 0.14278903E+03</rscale>
<asrwt>0</asrwt>
<pdfrwt beam="1">  1        2 0.98654560E-01 0.14820032E+03</pdfrwt>
<pdfrwt beam="2">  1       -2 0.51517732E-02 0.14820032E+03</pdfrwt>
<totfact> 0.84101089E+03</totfact>
</mgrwt>
</event>
<event>
 8    1  0.8504141E-006  0.1937529E+03  0.7546771E-02  0.1162733E+00
          2   -1    0    0  501    0  0.00000000000E+00  0.00000000000E+00  0.38467789578E+02  0.38467789578E+02  0.00000000000E+00 0. -1.
         -2   -1    0    0    0  501 -0.00000000000E+00 -0.00000000000E+00 -0.82985532497E+03  0.82985532497E+03  0.00000000000E+00 0.  1.
         23    2    1    2    0    0 -0.19093855497E+02  0.14678789230E+03 -0.39282604670E+03  0.43800969557E+03  0.12501571824E+03 0.  0.
         23    2    1    2    0    0  0.19093855497E+02 -0.14678789230E+03 -0.39856148870E+03  0.43031341898E+03  0.66386125340E+02 0.  0.
          5    1    3    3  502    0  0.43701377059E+02  0.14701006814E+02 -0.75870575447E+02  0.88906491196E+02  0.47000000000E+01 0. -1.
         -5    1    3    3    0  502 -0.62795232556E+02  0.13208688549E+03 -0.31695547125E+03  0.34910320438E+03  0.47000000000E+01 0. -1.
        -11    1    4    4    0    0 -0.25992632148E+01 -0.51679593241E+02 -0.22825796168E+03  0.23404963917E+03  0.00000000000E+00 0.  1.
         11    1    4    4    0    0  0.21693118712E+02 -0.95108299059E+02 -0.17030352702E+03  0.19626377981E+03  0.00000000000E+00 0. -1.
<mgrwt>
<rscale>  0 0.18533975E+03</rscale>
<asrwt>0</asrwt>
<pdfrwt beam="1">  1        2 0.59181221E-02 0.19375291E+03</pdfrwt>
<pdfrwt beam="2">  1       -2 0.12767004E+00 0.19375291E+03</pdfrwt>
<totfact> 0.59409997E+02</totfact>
</mgrwt>
</event>
<event>
 8    1  0.8504141E-006  0.1578369E+03  0.7546771E-02  0.1197166E+00
         -2   -1    0    0    0  501 -0.00000000000E+00  0.00000000000E+00  0.26940681307E+02  0.26940681307E+02  0.00000000000E+00 0.  1.
          2   -1    0    0  501    0  0.00000000000E+00 -0.00000000000E+00 -0.85489773908E+03  0.85489773908E+03  0.00000000000E+00 0. -1.
         23    2    1    2    0    0  0.94563907647E+02  0.18601642314E+02 -0.34379527067E+03  0.37829573632E+03  0.12499648899E+03 0.  0.
         23    2    1    2    0    0 -0.94563907647E+02 -0.18601642314E+02 -0.48416178711E+03  0.50354268407E+03  0.99268549184E+02 0.  0.
          5    1    3    3  502    0  0.60203088786E+02  0.56106745612E+02 -0.29965233628E+03  0.31078286864E+03  0.47000000000E+01 0. -1.
         -5    1    3    3    0  502  0.34360818861E+02 -0.37505103298E+02 -0.44142934387E+02  0.67512867680E+02  0.47000000000E+01 0. -1.
        -11    1    4    4    0    0 -0.89989989773E+02  0.25857195662E+02 -0.32261190607E+03  0.33592444800E+03  0.00000000000E+00 0.  1.
         11    1    4    4    0    0 -0.45739178733E+01 -0.44458837976E+02 -0.16154988103E+03  0.16761823606E+03  0.00000000000E+00 0. -1.
<mgrwt>
<rscale>  0 0.15272370E+03</rscale>
<asrwt>0</asrwt>
<pdfrwt beam="2">  1        2 0.13152274E+00 0.15783687E+03</pdfrwt>
<pdfrwt beam="1">  1       -2 0.41447199E-02 0.15783687E+03</pdfrwt>
<totfact> 0.82400645E+03</totfact>
</mgrwt>
</event>
<event>
 8    1  0.8560771E-006  0.2407796E+03  0.7546771E-02  0.1122043E+00
         -1   -1    0    0    0  501 -0.00000000000E+00  0.00000000000E+00  0.59989790728E+02  0.59989790728E+02  0.00000000000E+00 0.  1.
          1   -1    0    0  501    0  0.00000000000E+00 -0.00000000000E+00 -0.10097009955E+04  0.10097009955E+04  0.00000000000E+00 0. -1.
         23    2    1    2    0    0  0.64960472651E+02  0.19526751664E+03 -0.31568849816E+03  0.39703152650E+03  0.12500215639E+03 0.  0.
         23    2    1    2    0    0 -0.64960472651E+02 -0.19526751664E+03 -0.63402270659E+03  0.67265925971E+03  0.90202112739E+02 0.  0.
          5    1    3    3  502    0  0.53943432290E+01  0.14238145330E+03 -0.26936866016E+03  0.30476735760E+03  0.47000000000E+01 0.  1.
         -5    1    3    3    0  502  0.59566129422E+02  0.52886063332E+02 -0.46319837999E+02  0.92264168892E+02  0.47000000000E+01 0.  1.
        -11    1    4    4    0    0 -0.29832779484E+02 -0.17946132145E+03 -0.56561286795E+03  0.59415004588E+03  0.00000000000E+00 0.  1.
         11    1    4    4    0    0 -0.35127693167E+02 -0.15806195181E+02 -0.68409838638E+02  0.78509213828E+02  0.00000000000E+00 0. -1.
<mgrwt>
<rscale>  0 0.23665232E+03</rscale>
<asrwt>0</asrwt>
<pdfrwt beam="2">  1        1 0.15533861E+00 0.24077958E+03</pdfrwt>
<pdfrwt beam="1">  1       -1 0.92291986E-02 0.24077958E+03</pdfrwt>
<totfact> 0.10879658E+03</totfact>
</mgrwt>
</event>
<event>
 7    1  0.8504141E-006  0.2028038E+03  0.7546771E-02  0.1177257E+00
          2   -1    0    0  501    0  0.00000000000E+00  0.00000000000E+00  0.50383643712E+03  0.50383643712E+03  0.00000000000E+00 0. -1.
         -2   -1    0    0    0  501 -0.00000000000E+00 -0.00000000000E+00 -0.47855314600E+02  0.47855314600E+02  0.00000000000E+00 0.  1.
         23    2    1    2    0    0  0.35148869204E+02 -0.77821474933E+01  0.20726142028E+03  0.23076984963E+03  0.94875825859E+02 0.  0.
          5    1    1    2  502    0 -0.75736374442E+02 -0.69971087988E+01  0.26406620287E+03  0.27484178621E+03  0.47000000000E+01 0. -1.
         -5    1    1    2    0  502  0.40587505239E+02  0.14779256292E+02 -0.15346500640E+02  0.46080115885E+02  0.47000000000E+01 0.  1.
        -11    1    3    3    0    0  0.67527439379E+02  0.12337072196E+01  0.12944266522E+03  0.14600301600E+03  0.00000000000E+00 0.  1.
         11    1    3    3    0    0 -0.32378570175E+02 -0.90158547129E+01  0.77818755065E+02  0.84766833624E+02  0.00000000000E+00 0. -1.
<mgrwt>
<rscale>  0 0.17056823E+03</rscale>
<asrwt>0</asrwt>
<pdfrwt beam="1">  1        2 0.77513294E-01 0.20280379E+03</pdfrwt>
<pdfrwt beam="2">  1       -2 0.73623565E-02 0.20280379E+03</pdfrwt>
<totfact> 0.65193363E+03</totfact>
</mgrwt>
</event>
<event>
 8    1  0.8504141E-006  0.1285386E+03  0.7546771E-02  0.1237337E+00
         -1   -1    0    0    0  501 -0.00000000000E+00  0.00000000000E+00  0.13080195229E+03  0.13080195229E+03  0.00000000000E+00 0.  1.
          1   -1    0    0  501    0  0.00000000000E+00 -0.00000000000E+00 -0.14847399573E+03  0.14847399573E+03  0.00000000000E+00 0. -1.
         23    2    1    2    0    0 -0.40017712862E+02 -0.40705603120E+02  0.62919838571E+02  0.14311207937E+03  0.11516856215E+03 0.  0.
         23    2    1    2    0    0  0.40017712862E+02  0.40705603120E+02 -0.80591882004E+02  0.13616386865E+03  0.93739981933E+02 0.  0.
          5    1    3    3  502    0  0.32846068638E+02 -0.18362133701E+02 -0.81609891973E+01  0.38790771115E+02  0.47000000000E+01 0. -1.
         -5    1    3    3    0  502 -0.72863781500E+02 -0.22343469419E+02  0.71080827768E+02  0.10432130826E+03  0.47000000000E+01 0.  1.
        -11    1    4    4    0    0 -0.46045958603E+01  0.25598487501E+02  0.14690495142E+02  0.29871315888E+02  0.00000000000E+00 0.  1.
         11    1    4    4    0    0  0.44622308722E+02  0.15107115619E+02 -0.95282377146E+02  0.10629255276E+03  0.00000000000E+00 0. -1.
<mgrwt>
<rscale>  0 0.12356014E+03</rscale>
<asrwt>0</asrwt>
<pdfrwt beam="2">  1        1 0.22842153E-01 0.12853856E+03</pdfrwt>
<pdfrwt beam="1">  1       -1 0.20123377E-01 0.12853856E+03</pdfrwt>
<totfact> 0.41035388E+03</totfact>
</mgrwt>
</event>
<event>
 8    1  0.8504141E-006  0.1729131E+03  0.7546771E-02  0.1180487E+00
         -2   -1    0    0    0  501 -0.00000000000E+00  0.00000000000E+00  0.60010685289E+02  0.60010685289E+02  0.00000000000E+00 0.  1.
          2   -1    0    0  501    0  0.00000000000E+00 -0.00000000000E+00 -0.47794720800E+03  0.47794720800E+03  0.00000000000E+00 0. -1.
         23    2    1    2    0    0  0.79655252186E+02 -0.89044510709E+02 -0.14599016893E+03  0.22630085578E+03  0.12500025526E+03 0.  0.
         23    2    1    2    0    0 -0.79655252186E+02  0.89044510709E+02 -0.27194635378E+03  0.31165703751E+03  0.94347260719E+02 0.  0.
          5    1    3    3  502    0  0.77537629039E+02 -0.11716936273E+03 -0.13708059619E+03  0.19635152999E+03  0.47000000000E+01 0.  1.
         -5    1    3    3    0  502  0.21176231472E+01  0.28124852017E+02 -0.89095727395E+01  0.29949325788E+02  0.47000000000E+01 0.  1.
        -11    1    4    4    0    0 -0.68060146591E+02  0.31833485226E+02 -0.74688092054E+02  0.10594274600E+03  0.00000000000E+00 0.  1.
         11    1    4    4    0    0 -0.11595105595E+02  0.57211025484E+02 -0.19725826172E+03  0.20571429150E+03  0.00000000000E+00 0. -1.
<mgrwt>
<rscale>  0 0.16749394E+03</rscale>
<asrwt>0</asrwt>
<pdfrwt beam="2">  1        2 0.73530341E-01 0.17291312E+03</pdfrwt>
<pdfrwt beam="1">  1       -2 0.92324130E-02 0.17291312E+03</pdfrwt>
<totfact> 0.48188174E+03</totfact>
</mgrwt>
</event>
<event>
 8    1  0.8504141E-006  0.1330739E+03  0.7546771E-02  0.1236287E+00
          1   -1    0    0  501    0  0.00000000000E+00  0.00000000000E+00  0.42195830136E+02  0.42195830136E+02  0.00000000000E+00 0. -1.
         -1   -1    0    0    0  501 -0.00000000000E+00 -0.00000000000E+00 -0.34520304600E+03  0.34520304600E+03  0.00000000000E+00 0.  1.
         23    2    1    2    0    0 -0.35577101940E+02  0.28566018718E+02 -0.21771383041E+03  0.25516263337E+03  0.12500763939E+03 0.  0.
         23    2    1    2    0    0  0.35577101940E+02 -0.28566018718E+02 -0.85293385449E+02  0.13223624277E+03  0.90164930498E+02 0.  0.
          5    1    3    3  502    0  0.45938180942E+02  0.43958463586E+01 -0.95990045072E+02  0.10661059369E+03  0.47000000000E+01 0.  1.
         -5    1    3    3    0  502 -0.81515282882E+02  0.24170172360E+02 -0.12172378534E+03  0.14855203968E+03  0.47000000000E+01 0.  1.
        -11    1    4    4    0    0  0.50519058731E+02  0.50617632375E+01 -0.15079449304E+02  0.52964011682E+02  0.00000000000E+00 0. -1.
         11    1    4    4    0    0 -0.14941956792E+02 -0.33627781956E+02 -0.70213936144E+02  0.79272231083E+02  0.00000000000E+00 0.  1.
<mgrwt>
<rscale>  0 0.12422403E+03</rscale>
<asrwt>0</asrwt>
<pdfrwt beam="1">  1        1 0.64916660E-02 0.13307388E+03</pdfrwt>
<pdfrwt beam="2">  1       -1 0.53108162E-01 0.13307388E+03</pdfrwt>
<totfact> 0.40687231E+03</totfact>
</mgrwt>
</event>
<event>
 8    1  0.8504141E-006  0.1978226E+03  0.7546771E-02  0.1155902E+00
          2   -1    0    0  501    0  0.00000000000E+00  0.00000000000E+00  0.99649397343E+02  0.99649397343E+02  0.00000000000E+00 0. -1.
         -2   -1    0    0    0  501 -0.00000000000E+00 -0.00000000000E+00 -0.35919966472E+03  0.35919966472E+03  0.00000000000E+00 0.  1.
         23    2    1    2    0    0  0.89073506188E+02 -0.12479513111E+03 -0.15885067967E+03  0.25370716893E+03  0.12500349948E+03 0.  0.
         23    2    1    2    0    0 -0.89073506188E+02  0.12479513111E+03 -0.10069958771E+03  0.20514189313E+03  0.91841576095E+02 0.  0.
          5    1    3    3  502    0  0.10385171674E+03 -0.58674101433E+02 -0.59547727633E+02  0.13340109113E+03  0.47000000000E+01 0. -1.
         -5    1    3    3    0  502 -0.14778210548E+02 -0.66121029681E+02 -0.99302952041E+02  0.12030607781E+03  0.47000000000E+01 0. -1.
        -11    1    4    4    0    0 -0.56688466129E+02  0.91900355769E+02 -0.11408252153E+03  0.15707985008E+03  0.00000000000E+00 0.  1.
         11    1    4    4    0    0 -0.32385040058E+02  0.32894775345E+02  0.13382933825E+02  0.48062043052E+02  0.00000000000E+00 0. -1.
<mgrwt>
<rscale>  0 0.19286506E+03</rscale>
<asrwt>0</asrwt>
<pdfrwt beam="1">  1        2 0.15330676E-01 0.19782262E+03</pdfrwt>
<pdfrwt beam="2">  1       -2 0.55261487E-01 0.19782262E+03</pdfrwt>
<totfact> 0.11788089E+03</totfact>
</mgrwt>
</event>
<event>
 8    1  0.8504141E-006  0.1268781E+03  0.7546771E-02  0.1246803E+00
         -1   -1    0    0    0  501 -0.00000000000E+00  0.00000000000E+00  0.12115425483E+03  0.12115425483E+03  0.00000000000E+00 0.  1.
          1   -1    0    0  501    0  0.00000000000E+00 -0.00000000000E+00 -0.11450898911E+03  0.11450898911E+03  0.00000000000E+00 0. -1.
         23    2    1    2    0    0  0.18929955611E+02 -0.10793874614E+02  0.44024562467E+02  0.13429894646E+03  0.12499277568E+03 0.  0.
         23    2    1    2    0    0 -0.18929955611E+02  0.10793874614E+02 -0.37379296747E+02  0.10136429748E+03  0.91666013490E+02 0.  0.
          5    1    3    3  502    0  0.47115078115E+01 -0.62125413416E+02  0.50632604932E+02  0.80420867815E+02  0.47000000000E+01 0. -1.
         -5    1    3    3    0  502  0.14218447800E+02  0.51331538802E+02 -0.66080424648E+01  0.53878078649E+02  0.47000000000E+01 0. -1.
        -11    1    4    4    0    0  0.16805732810E+02  0.12034316199E+02  0.23166886812E+02  0.31047738504E+02  0.00000000000E+00 0.  1.
         11    1    4    4    0    0 -0.35735688421E+02 -0.12404415858E+01 -0.60546183559E+02  0.70316558973E+02  0.00000000000E+00 0. -1.
<mgrwt>
<rscale>  0 0.11778129E+03</rscale>
<asrwt>0</asrwt>
<pdfrwt beam="2">  1        1 0.17616768E-01 0.12687807E+03</pdfrwt>
<pdfrwt beam="1">  1       -1 0.18639116E-01 0.12687807E+03</pdfrwt>
<totfact> 0.64431181E+03</totfact>
</mgrwt>
</event>
<event>
 8    1  0.8504141E-006  0.1265896E+03  0.7546771E-02  0.1248313E+00
          1   -1    0    0  501    0  0.00000000000E+00  0.00000000000E+00  0.18353454115E+03  0.18353454115E+03  0.00000000000E+00 0. -1.
         -1   -1    0    0    0  501 -0.00000000000E+00 -0.00000000000E+00 -0.71080696601E+02  0.71080696601E+02  0.00000000000E+00 0.  1.
         23    2    1    2    0    0 -0.19695124232E+02  0.34566697568E+01  0.27881688687E+02  0.12962378356E+03  0.12500036086E+03 0.  0.
         23    2    1    2    0    0  0.19695124232E+02 -0.34566697568E+01  0.84572155858E+02  0.12499145419E+03  0.89836337802E+02 0.  0.
          5    1    3    3  502    0 -0.50840716387E+02 -0.15090562598E+02  0.60529968278E+02  0.80613091878E+02  0.47000000000E+01 0. -1.
         -5    1    3    3    0  502  0.31145592155E+02  0.18547232355E+02 -0.32648279591E+02  0.49010691680E+02  0.47000000000E+01 0. -1.
        -11    1    4    4    0    0 -0.49176275962E+01 -0.36493800096E+02  0.74709600942E+01  0.37573870593E+02  0.00000000000E+00 0.  1.
         11    1    4    4    0    0  0.24612751828E+02  0.33037130339E+02  0.77101195764E+02  0.87417583596E+02  0.00000000000E+00 0. -1.
<mgrwt>
<rscale>  0 0.11689251E+03</rscale>
<asrwt>0</asrwt>
<pdfrwt beam="1">  1        1 0.28236083E-01 0.12658964E+03</pdfrwt>
<pdfrwt beam="2">  1       -1 0.10935492E-01 0.12658964E+03</pdfrwt>
<totfact> 0.81637166E+03</totfact>
</mgrwt>
</event>
<event>
 8    1  0.8504141E-006  0.1347398E+03  0.7546771E-02  0.1232337E+00
         -2   -1    0    0    0  501 -0.00000000000E+00  0.00000000000E+00  0.35844378438E+02  0.35844378438E+02  0.00000000000E+00 0. -1.
          2   -1    0    0  501    0  0.00000000000E+00 -0.00000000000E+00 -0.40796465946E+03  0.40796465946E+03  0.00000000000E+00 0.  1.
         23    2    1    2    0    0 -0.29992972807E+02 -0.40377781778E+02 -0.18344480525E+03  0.22761110105E+03  0.12499949227E+03 0.  0.
         23    2    1    2    0    0  0.29992972807E+02  0.40377781778E+02 -0.18867547578E+03  0.21619793685E+03  0.92807160612E+02 0.  0.
          5    1    3    3  502    0 -0.64569937580E+02 -0.57932616085E+02 -0.84321708697E+02  0.12106901091E+03  0.47000000000E+01 0. -1.
         -5    1    3    3    0  502  0.34576964774E+02  0.17554834307E+02 -0.99123096554E+02  0.10654209014E+03  0.47000000000E+01 0. -1.
        -11    1    4    4    0    0 -0.15835546209E+02  0.29404094007E+02 -0.15428808195E+03  0.15786126029E+03  0.00000000000E+00 0.  1.
         11    1    4    4    0    0  0.45828519016E+02  0.10973687772E+02 -0.34387393829E+02  0.58336676567E+02  0.00000000000E+00 0. -1.
<mgrwt>
<rscale>  0 0.12676453E+03</rscale>
<asrwt>0</asrwt>
<pdfrwt beam="2">  1        2 0.62763790E-01 0.13473981E+03</pdfrwt>
<pdfrwt beam="1">  1       -2 0.55145201E-02 0.13473981E+03</pdfrwt>
<totfact> 0.12445286E+04</totfact>
</mgrwt>
</event>
<event>
 8    1  0.8504141E-006  0.3964095E+03  0.7546771E-02  0.1045958E+00
          2   -1    0    0  501    0  0.00000000000E+00  0.00000000000E+00  0.12125059242E+04  0.12125059242E+04  0.00000000000E+00 0. -1.
         -2   -1    0    0    0  501 -0.00000000000E+00 -0.00000000000E+00 -0.16718590546E+03  0.16718590546E+03  0.00000000000E+00 0.  1.
         23    2    1    2    0    0  0.32882206333E+03  0.18273122259E+03  0.18641387146E+03  0.43805322311E+03  0.12500338298E+03 0.  0.
         23    2    1    2    0    0 -0.32882206333E+03 -0.18273122259E+03  0.85890614731E+03  0.94163860658E+03  0.86306700050E+02 0.  0.
          5    1    3    3  502    0  0.16170471311E+03  0.88576973389E+02  0.22698067005E+02  0.18582676530E+03  0.47000000000E+01 0.  1.
         -5    1    3    3    0  502  0.16711735022E+03  0.94154249201E+02  0.16371580446E+03  0.25222645781E+03  0.47000000000E+01 0.  1.
        -11    1    4    4    0    0 -0.14408283345E+03 -0.12942247239E+03  0.42840385182E+03  0.47014880571E+03  0.00000000000E+00 0.  1.
         11    1    4    4    0    0 -0.18473922989E+03 -0.53308750204E+02  0.43050229549E+03  0.47148980087E+03  0.00000000000E+00 0. -1.
<mgrwt>
<rscale>  0 0.39377036E+03</rscale>
<asrwt>0</asrwt>
<pdfrwt beam="1">  1        2 0.18653937E+00 0.39640950E+03</pdfrwt>
<pdfrwt beam="2">  1       -2 0.25720909E-01 0.39640950E+03</pdfrwt>
<totfact> 0.26345047E+02</totfact>
</mgrwt>
</event>
<event>
 7    1  0.8504141E-006  0.3582515E+03  0.7546771E-02  0.1108800E+00
         -2   -1    0    0    0  501 -0.00000000000E+00  0.00000000000E+00  0.78164805607E+02  0.78164805607E+02  0.00000000000E+00 0.  1.
          2   -1    0    0  501    0  0.00000000000E+00 -0.00000000000E+00 -0.67187634096E+03  0.67187634096E+03  0.00000000000E+00 0. -1.
         23    2    1    2    0    0  0.11871423878E+02  0.27589228171E+02 -0.17271846325E+03  0.19724884511E+03  0.90406543642E+02 0.  0.
          5    1    1    2  502    0 -0.10601035534E+03  0.30807967494E+02 -0.42766737477E+03  0.44171121758E+03  0.47000000000E+01 0. -1.
         -5    1    1    2    0  502  0.94138931466E+02 -0.58397195665E+02  0.66743026586E+01  0.11108108388E+03  0.47000000000E+01 0.  1.
        -11    1    3    3    0    0  0.42481678998E+02  0.39358610583E+01 -0.14072096206E+03  0.14704616015E+03  0.00000000000E+00 0.  1.
         11    1    3    3    0    0 -0.30610255119E+02  0.23653367112E+02 -0.31997501186E+02  0.50202684952E+02  0.00000000000E+00 0. -1.
<mgrwt>
<rscale>  0 0.25726132E+03</rscale>
<asrwt>0</asrwt>
<pdfrwt beam="2">  1        2 0.10336559E+00 0.35825153E+03</pdfrwt>
<pdfrwt beam="1">  1       -2 0.12025355E-01 0.35825153E+03</pdfrwt>
<totfact> 0.21770715E+03</totfact>
</mgrwt>
</event>
<event>
 8    1  0.8504141E-006  0.1385835E+03  0.7546771E-02  0.1225946E+00
          2   -1    0    0  501    0  0.00000000000E+00  0.00000000000E+00  0.10506030875E+03  0.10506030875E+03  0.00000000000E+00 0.  1.
         -2   -1    0    0    0  501 -0.00000000000E+00 -0.00000000000E+00 -0.15130188885E+03  0.15130188885E+03  0.00000000000E+00 0. -1.
         23    2    1    2    0    0  0.24206361866E+02  0.54744729139E+02 -0.65551027242E+01  0.13873846053E+03  0.12498983052E+03 0.  0.
         23    2    1    2    0    0 -0.24206361866E+02 -0.54744729139E+02 -0.39686477367E+02  0.11762373707E+03  0.93152529296E+02 0.  0.
          5    1    3    3  502    0 -0.23704087943E+01 -0.77825252353E+01  0.49592047332E+02  0.50474228033E+02  0.47000000000E+01 0. -1.
         -5    1    3    3    0  502  0.26576770660E+02  0.62527254374E+02 -0.56147150056E+02  0.88264232494E+02  0.47000000000E+01 0. -1.
        -11    1    4    4    0    0 -0.11048290671E+02 -0.76126727781E+02 -0.82103198626E+01  0.77361183817E+02  0.00000000000E+00 0.  1.
         11    1    4    4    0    0 -0.13158071194E+02  0.21381998642E+02 -0.31476157504E+02  0.40262553257E+02  0.00000000000E+00 0. -1.
<mgrwt>
<rscale>  0 0.13102267E+03</rscale>
<asrwt>0</asrwt>
<pdfrwt beam="1">  1        2 0.16163124E-01 0.13858352E+03</pdfrwt>
<pdfrwt beam="2">  1       -2 0.23277214E-01 0.13858352E+03</pdfrwt>
<totfact> 0.54781903E+03</totfact>
</mgrwt>
</event>
<event>
 8    1  0.8504141E-006  0.1613281E+03  0.7546771E-02  0.1194651E+00
         -2   -1    0    0    0  501 -0.00000000000E+00  0.00000000000E+00  0.31460670621E+02  0.31460670621E+02  0.00000000000E+00 0.  1.
          2   -1    0    0  501    0  0.00000000000E+00 -0.00000000000E+00 -0.74875909059E+03  0.74875909059E+03  0.00000000000E+00 0. -1.
         23    2    1    2    0    0  0.99820614277E+02 -0.20938738999E+02 -0.29424781153E+03  0.33557192783E+03  0.12499663326E+03 0.  0.
         23    2    1    2    0    0 -0.99820614277E+02  0.20938738999E+02 -0.42305060843E+03  0.44464783338E+03  0.91308776196E+02 0.  0.
          5    1    3    3  502    0  0.10337168218E+03  0.15652034918E+02 -0.12847364565E+03  0.16570533637E+03  0.47000000000E+01 0. -1.
         -5    1    3    3    0  502 -0.35510679068E+01 -0.36590773917E+02 -0.16577416588E+03  0.16986659146E+03  0.47000000000E+01 0. -1.
        -11    1    4    4    0    0 -0.39006463716E+02  0.47203504422E+02 -0.12334439318E+03  0.13770807663E+03  0.00000000000E+00 0.  1.
         11    1    4    4    0    0 -0.60814150562E+02 -0.26264765423E+02 -0.29970621526E+03  0.30693975675E+03  0.00000000000E+00 0. -1.
<mgrwt>
<rscale>  0 0.15483826E+03</rscale>
<asrwt>0</asrwt>
<pdfrwt beam="2">  1        2 0.11519370E+00 0.16132806E+03</pdfrwt>
<pdfrwt beam="1">  1       -2 0.48401034E-02 0.16132806E+03</pdfrwt>
<totfact> 0.77185108E+03</totfact>
</mgrwt>
</event>
<event>
 8    1  0.2082528E-005  0.2539756E+03  0.7546771E-02  0.1113243E+00
         -1   -1    0    0    0  501 -0.00000000000E+00  0.00000000000E+00  0.33875685186E+02  0.33875685186E+02  0.00000000000E+00 0.  1.
          1   -1    0    0  501    0  0.00000000000E+00 -0.00000000000E+00 -0.17959174436E+04  0.17959174436E+04  0.00000000000E+00 0. -1.
         23    2    1    2    0    0 -0.22104774054E+03 -0.40684348389E+01 -0.94990022831E+03  0.98326703885E+03  0.12499988076E+03 0.  0.
         23    2    1    2    0    0  0.22104774054E+03  0.40684348389E+01 -0.81214153008E+03  0.84652608991E+03  0.90298949355E+02 0.  0.
          5    1    3    3  502    0 -0.12178543237E+03  0.59757476438E+02 -0.52375715758E+03  0.54106034566E+03  0.47000000000E+01 0. -1.
         -5    1    3    3    0  502 -0.99262308169E+02 -0.63825911277E+02 -0.42614307073E+03  0.44220669319E+03  0.47000000000E+01 0. -1.
        -11    1    4    4    0    0  0.17919117686E+03  0.39461123117E+02 -0.60096164574E+03  0.62834827744E+03  0.00000000000E+00 0. -1.
         11    1    4    4    0    0  0.41856563679E+02 -0.35392688278E+02 -0.21117988434E+03  0.21817781247E+03  0.00000000000E+00 0.  1.
<mgrwt>
<rscale>  0 0.25009753E+03</rscale>
<asrwt>0</asrwt>
<pdfrwt beam="2">  1        1 0.27629495E+00 0.25397564E+03</pdfrwt>
<pdfrwt beam="1">  1       -1 0.52116446E-02 0.25397564E+03</pdfrwt>
<totfact> 0.75828011E+02</totfact>
</mgrwt>
</event>
<event>
 8    1  0.8504141E-006  0.1295199E+03  0.7546771E-02  0.1243135E+00
          1   -1    0    0  501    0  0.00000000000E+00  0.00000000000E+00  0.49143603117E+02  0.49143603117E+02  0.00000000000E+00 0. -1.
         -1   -1    0    0    0  501 -0.00000000000E+00 -0.00000000000E+00 -0.25897799090E+03  0.25897799090E+03  0.00000000000E+00 0.  1.
         23    2    1    2    0    0  0.18362990049E+02  0.28502174640E+02 -0.13311523949E+03  0.18572847689E+03  0.12500330707E+03 0.  0.
         23    2    1    2    0    0 -0.18362990049E+02 -0.28502174640E+02 -0.76719148285E+02  0.12239311713E+03  0.89132901017E+02 0.  0.
          5    1    3    3  502    0  0.26952254164E+02 -0.39622904591E+02 -0.96320351878E+02  0.10768518356E+03  0.47000000000E+01 0.  1.
         -5    1    3    3    0  502 -0.85892641149E+01  0.68125079231E+02 -0.36794887615E+02  0.78043293324E+02  0.47000000000E+01 0.  1.
        -11    1    4    4    0    0  0.31493925292E+02 -0.32369807749E+02 -0.40314864350E+02  0.60538913696E+02  0.00000000000E+00 0.  1.
         11    1    4    4    0    0 -0.49856915341E+02  0.38676331091E+01 -0.36404283936E+02  0.61854203431E+02  0.00000000000E+00 0. -1.
<mgrwt>
<rscale>  0 0.11997705E+03</rscale>
<asrwt>0</asrwt>
<pdfrwt beam="1">  1        1 0.75605544E-02 0.12951988E+03</pdfrwt>
<pdfrwt beam="2">  1       -1 0.39842767E-01 0.12951988E+03</pdfrwt>
<totfact> 0.55412905E+03</totfact>
</mgrwt>
</event>
<event>
 8    1  0.8504141E-006  0.1479192E+03  0.7546771E-02  0.1212906E+00
          2   -1    0    0  501    0  0.00000000000E+00  0.00000000000E+00  0.44861052149E+03  0.44861052149E+03  0.00000000000E+00 0. -1.
         -2   -1    0    0    0  501 -0.00000000000E+00 -0.00000000000E+00 -0.44054442672E+02  0.44054442672E+02  0.00000000000E+00 0.  1.
         23    2    1    2    0    0  0.71649760470E+02  0.33478259478E+02  0.29653150807E+03  0.33137746160E+03  0.12500241896E+03 0.  0.
         23    2    1    2    0    0 -0.71649760470E+02 -0.33478259478E+02  0.10802457075E+03  0.16128750256E+03  0.89943696635E+02 0.  0.
          5    1    3    3  502    0  0.11830408296E+02  0.60907352955E+02  0.62377536534E+02  0.88106249883E+02  0.47000000000E+01 0. -1.
         -5    1    3    3    0  502  0.59819352174E+02 -0.27429093477E+02  0.23415397154E+03  0.24327121172E+03  0.47000000000E+01 0. -1.
        -11    1    4    4    0    0 -0.81530907223E+02  0.33870589778E+01  0.73686590691E+02  0.10994759956E+03  0.00000000000E+00 0. -1.
         11    1    4    4    0    0  0.98811467533E+01 -0.36865318455E+02  0.34337980054E+02  0.51339903001E+02  0.00000000000E+00 0.  1.
<mgrwt>
<rscale>  0 0.14031481E+03</rscale>
<asrwt>0</asrwt>
<pdfrwt beam="1">  1        2 0.69017000E-01 0.14791919E+03</pdfrwt>
<pdfrwt beam="2">  1       -2 0.67776069E-02 0.14791919E+03</pdfrwt>
<totfact> 0.82661026E+03</totfact>
</mgrwt>
</event>
<event>
 8    1  0.8504141E-006  0.2646799E+03  0.7546771E-02  0.1106978E+00
          1   -1    0    0  501    0  0.00000000000E+00  0.00000000000E+00  0.20263692387E+03  0.20263692387E+03  0.00000000000E+00 0. -1.
         -1   -1    0    0    0  501 -0.00000000000E+00 -0.00000000000E+00 -0.33804400539E+03  0.33804400539E+03  0.00000000000E+00 0.  1.
         23    2    1    2    0    0  0.18175108768E+03  0.14627688593E+03 -0.12565651224E+03  0.29299316603E+03  0.12500020417E+03 0.  0.
         23    2    1    2    0    0 -0.18175108768E+03 -0.14627688593E+03 -0.97505692779E+01  0.24768776323E+03  0.82606108849E+02 0.  0.
          5    1    3    3  502    0  0.30774739392E+02  0.92319563042E+02 -0.80442061840E+02  0.12634477282E+03  0.47000000000E+01 0. -1.
         -5    1    3    3    0  502  0.15097634829E+03  0.53957322889E+02 -0.45214450404E+02  0.16664839322E+03  0.47000000000E+01 0. -1.
        -11    1    4    4    0    0 -0.45043403481E+02 -0.60162573355E+01 -0.23844147399E+02  0.51319069698E+02  0.00000000000E+00 0.  1.
         11    1    4    4    0    0 -0.13670768420E+03 -0.14026062860E+03  0.14093578121E+02  0.19636869353E+03  0.00000000000E+00 0. -1.
<mgrwt>
<rscale>  0 0.26027511E+03</rscale>
<asrwt>0</asrwt>
<pdfrwt beam="1">  1        1 0.31174912E-01 0.26467988E+03</pdfrwt>
<pdfrwt beam="2">  1       -1 0.52006770E-01 0.26467988E+03</pdfrwt>
<totfact> 0.55247317E+02</totfact>
</mgrwt>
</event>
<event>
 8    1  0.8504141E-006  0.1263208E+03  0.7546771E-02  0.1248931E+00
         -3   -1    0    0    0  501 -0.00000000000E+00  0.00000000000E+00  0.39215491731E+02  0.39215491731E+02  0.00000000000E+00 0.  1.
          3   -1    0    0  501    0  0.00000000000E+00 -0.00000000000E+00 -0.35787191678E+03  0.35787191678E+03  0.00000000000E+00 0. -1.
         23    2    1    2    0    0 -0.15393178718E+02 -0.96896309821E+01 -0.10356293178E+03  0.16334692053E+03  0.12500438676E+03 0.  0.
         23    2    1    2    0    0  0.15393178718E+02  0.96896309821E+01 -0.21509349326E+03  0.23374048797E+03  0.89658050245E+02 0.  0.
          5    1    3    3  502    0 -0.41126195094E+02  0.40791852929E+02 -0.18419170484E+02  0.60964703145E+02  0.47000000000E+01 0. -1.
         -5    1    3    3    0  502  0.25733016376E+02 -0.50481483911E+02 -0.85143761297E+02  0.10238221739E+03  0.47000000000E+01 0. -1.
        -11    1    4    4    0    0  0.27943232122E+01 -0.39452109396E+02 -0.75831802505E+02  0.85526250059E+02  0.00000000000E+00 0.  1.
         11    1    4    4    0    0  0.12598855506E+02  0.49141740378E+02 -0.13926169076E+03  0.14821423791E+03  0.00000000000E+00 0. -1.
<mgrwt>
<rscale>  0 0.11653138E+03</rscale>
<asrwt>0</asrwt>
<pdfrwt beam="2">  1        3 0.55057220E-01 0.12632076E+03</pdfrwt>
<pdfrwt beam="1">  1       -3 0.60331524E-02 0.12632076E+03</pdfrwt>
<totfact> 0.12619302E+03</totfact>
</mgrwt>
</event>
<event>
 8    1  0.8504141E-006  0.1263406E+03  0.7546771E-02  0.1267847E+00
         -1   -1    0    0    0  501 -0.00000000000E+00  0.00000000000E+00  0.16401907237E+02  0.16401907237E+02  0.00000000000E+00 0.  1.
          1   -1    0    0  501    0  0.00000000000E+00 -0.00000000000E+00 -0.57194260541E+03  0.57194260541E+03  0.00000000000E+00 0. -1.
         23    2    1    2    0    0  0.65098344879E+01 -0.17049600090E+02 -0.30775629169E+03  0.33267986519E+03  0.12501556229E+03 0.  0.
         23    2    1    2    0    0 -0.65098344879E+01  0.17049600090E+02 -0.24778440649E+03  0.25566464747E+03  0.60284600505E+02 0.  0.
          5    1    3    3  502    0 -0.10853757883E+01 -0.16582403706E+02 -0.31834850637E+03  0.31881658623E+03  0.47000000000E+01 0.  1.
         -5    1    3    3    0  502  0.75952102762E+01 -0.46719638393E+00  0.10592214673E+02  0.13863278951E+02  0.47000000000E+01 0.  1.
        -11    1    4    4    0    0  0.25557959291E+02  0.13600702287E+02 -0.87429527215E+02  0.92098374659E+02  0.00000000000E+00 0.  1.
         11    1    4    4    0    0 -0.32067793779E+02  0.34488978022E+01 -0.16035487927E+03  0.16356627281E+03  0.00000000000E+00 0. -1.
<mgrwt>
<rscale>  0 0.10616202E+03</rscale>
<asrwt>0</asrwt>
<pdfrwt beam="2">  1        1 0.87991180E-01 0.12634064E+03</pdfrwt>
<pdfrwt beam="1">  1       -1 0.25233701E-02 0.12634064E+03</pdfrwt>
<totfact> 0.17214064E+04</totfact>
</mgrwt>
</event>
<event>
 8    1  0.8504141E-006  0.1702078E+03  0.7546771E-02  0.1184015E+00
         -2   -1    0    0    0  501 -0.00000000000E+00  0.00000000000E+00  0.45223468848E+02  0.45223468848E+02  0.00000000000E+00 0.  1.
          2   -1    0    0  501    0  0.00000000000E+00 -0.00000000000E+00 -0.70811666146E+03  0.70811666146E+03  0.00000000000E+00 0. -1.
         23    2    1    2    0    0 -0.67370029266E+02 -0.93867774566E+02 -0.17701271089E+03  0.24556914185E+03  0.12498329355E+03 0.  0.
         23    2    1    2    0    0  0.67370029266E+02  0.93867774566E+02 -0.48588048172E+03  0.50777098846E+03  0.91660538178E+02 0.  0.
          5    1    3    3  502    0 -0.80235330442E+02 -0.82432343529E+02 -0.19091964673E+03  0.22294663267E+03  0.47000000000E+01 0.  1.
         -5    1    3    3    0  502  0.12865301176E+02 -0.11435431037E+02  0.13906935836E+02  0.22622509182E+02  0.47000000000E+01 0.  1.
        -11    1    4    4    0    0  0.70060784710E+02  0.79576581016E+02 -0.48082424826E+03  0.49237475922E+03  0.00000000000E+00 0. -1.
         11    1    4    4    0    0 -0.26907554442E+01  0.14291193550E+02 -0.50562334558E+01  0.15396229237E+02  0.00000000000E+00 0.  1.
<mgrwt>
<rscale>  0 0.16421805E+03</rscale>
<asrwt>0</asrwt>
<pdfrwt beam="2">  1        2 0.10894101E+00 0.17020782E+03</pdfrwt>
<pdfrwt beam="1">  1       -2 0.69574576E-02 0.17020782E+03</pdfrwt>
<totfact> 0.47667937E+03</totfact>
</mgrwt>
</event>
<event>
 6    1  0.8504141E-006  0.1504504E+03  0.7546771E-02  0.1276944E+00
         -1   -1    0    0    0  501 -0.00000000000E+00  0.00000000000E+00  0.13650185080E+02  0.13650185080E+02  0.00000000000E+00 0.  1.
          1   -1    0    0  501    0  0.00000000000E+00 -0.00000000000E+00 -0.61834861850E+03  0.61834861850E+03  0.00000000000E+00 0. -1.
          5    1    1    2  502    0 -0.10090557541E+02  0.85388396987E+02 -0.33477482984E+03  0.34567220656E+03  0.47000000000E+01 0. -1.
         -5    1    1    2    0  502  0.16170925483E+02 -0.56352131610E+02 -0.12617929329E+03  0.13921338162E+03  0.47000000000E+01 0.  1.
        -11    1    1    2    0    0  0.20249186689E+01 -0.14330640507E+02 -0.70192857404E+02  0.71669413165E+02  0.00000000000E+00 0. -1.
         11    1    1    2    0    0 -0.81052866107E+01 -0.14705624870E+02 -0.73551452889E+02  0.75443802237E+02  0.00000000000E+00 0.  1.
<mgrwt>
<rscale>  0 0.10161111E+03</rscale>
<asrwt>0</asrwt>
<pdfrwt beam="2">  1        1 0.95130533E-01 0.15045042E+03</pdfrwt>
<pdfrwt beam="1">  1       -1 0.21000290E-02 0.15045042E+03</pdfrwt>
<totfact> 0.20493457E+04</totfact>
</mgrwt>
</event>
<event>
 8    1  0.8504141E-006  0.1730738E+03  0.7546771E-02  0.1181025E+00
          2   -1    0    0  501    0  0.00000000000E+00  0.00000000000E+00  0.10658083256E+03  0.10658083256E+03  0.00000000000E+00 0. -1.
         -2   -1    0    0    0  501 -0.00000000000E+00 -0.00000000000E+00 -0.24776411853E+03  0.24776411853E+03  0.00000000000E+00 0.  1.
         23    2    1    2    0    0 -0.11792962111E+03 -0.20450690642E+02 -0.94879560921E+02  0.19737446530E+03  0.12501568777E+03 0.  0.
         23    2    1    2    0    0  0.11792962111E+03  0.20450690642E+02 -0.46303725040E+02  0.15697048579E+03  0.90388451558E+02 0.  0.
          5    1    3    3  502    0 -0.14422995702E+03 -0.13220266255E+02 -0.74052635853E+02  0.16273579452E+03  0.47000000000E+01 0.  1.
         -5    1    3    3    0  502  0.26300335908E+02 -0.72304243868E+01 -0.20826925068E+02  0.34638670781E+02  0.47000000000E+01 0.  1.
        -11    1    4    4    0    0  0.37334122876E+02  0.49781701199E+02 -0.32160585426E+02  0.70045397851E+02  0.00000000000E+00 0. -1.
         11    1    4    4    0    0  0.80595498231E+02 -0.29331010557E+02 -0.14143139614E+02  0.86925087941E+02  0.00000000000E+00 0.  1.
<mgrwt>
<rscale>  0 0.16698827E+03</rscale>
<asrwt>0</asrwt>
<pdfrwt beam="1">  1        2 0.16397051E-01 0.17307382E+03</pdfrwt>
<pdfrwt beam="2">  1       -2 0.38117556E-01 0.17307382E+03</pdfrwt>
<totfact> 0.22417248E+03</totfact>
</mgrwt>
</event>
<event>
 6    1  0.8504141E-006  0.5607612E+03  0.7546771E-02  0.9990334E-01
          2   -1    0    0  501    0  0.00000000000E+00  0.00000000000E+00  0.45904959660E+03  0.45904959660E+03  0.00000000000E+00 0. -1.
         -2   -1    0    0    0  501 -0.00000000000E+00 -0.00000000000E+00 -0.17125227077E+03  0.17125227077E+03  0.00000000000E+00 0.  1.
          5    1    1    2  502    0 -0.18316428643E+02  0.55461152163E+02  0.16761110486E+02  0.60946335265E+02  0.47000000000E+01 0. -1.
         -5    1    1    2    0  502 -0.64945699393E+02 -0.20193362377E+03  0.64806842992E+02  0.22184938399E+03  0.47000000000E+01 0.  1.
        -11    1    1    2    0    0  0.77093620530E+02  0.94824980774E+02 -0.12341644929E+02  0.12283126436E+03  0.00000000000E+00 0.  1.
         11    1    1    2    0    0  0.61685075058E+01  0.51647490837E+02  0.21857101728E+03  0.22467488375E+03  0.00000000000E+00 0. -1.
<mgrwt>
<rscale>  0 0.56076122E+03</rscale>
<asrwt>0</asrwt>
<pdfrwt beam="1">  1        2 0.70623015E-01 0.56076122E+03</pdfrwt>
<pdfrwt beam="2">  1       -2 0.26346503E-01 0.56076122E+03</pdfrwt>
<totfact> 0.88895290E+02</totfact>
</mgrwt>
</event>
<event>
 8    1  0.8504141E-006  0.1285610E+03  0.7546771E-02  0.1244749E+00
         -4   -1    0    0    0  501 -0.00000000000E+00  0.00000000000E+00  0.16038286842E+03  0.16038286842E+03  0.00000000000E+00 0.  1.
          4   -1    0    0  501    0  0.00000000000E+00 -0.00000000000E+00 -0.13070280494E+03  0.13070280494E+03  0.00000000000E+00 0. -1.
         23    2    1    2    0    0 -0.64767440230E+01 -0.29382024837E+02  0.10841359803E+03  0.16817089436E+03  0.12499075916E+03 0.  0.
         23    2    1    2    0    0  0.64767440230E+01  0.29382024837E+02 -0.78733534549E+02  0.12291477900E+03  0.89464081274E+02 0.  0.
          5    1    3    3  502    0 -0.48767310092E+02 -0.59016470165E+02  0.63956097054E+02  0.99868246379E+02  0.47000000000E+01 0. -1.
         -5    1    3    3    0  502  0.42290566069E+02  0.29634445328E+02  0.44457500978E+02  0.68302647984E+02  0.47000000000E+01 0. -1.
        -11    1    4    4    0    0  0.27319696023E+02  0.29182645258E+02  0.15148102097E+01  0.40003590151E+02  0.00000000000E+00 0.  1.
         11    1    4    4    0    0 -0.20842952000E+02  0.19937957977E+00 -0.80248344759E+02  0.82911188852E+02  0.00000000000E+00 0. -1.
<mgrwt>
<rscale>  0 0.11900388E+03</rscale>
<asrwt>0</asrwt>
<pdfrwt beam="2">  1        4 0.20108124E-01 0.12856104E+03</pdfrwt>
<pdfrwt beam="1">  1       -4 0.24674287E-01 0.12856104E+03</pdfrwt>
<totfact> 0.56229003E+02</totfact>
</mgrwt>
</event>
<event>
 8    1  0.8504141E-006  0.1818707E+03  0.7546771E-02  0.1173131E+00
          1   -1    0    0  501    0  0.00000000000E+00  0.00000000000E+00  0.31957862767E+03  0.31957862767E+03  0.00000000000E+00 0. -1.
         -1   -1    0    0    0  501 -0.00000000000E+00 -0.00000000000E+00 -0.10042390121E+03  0.10042390121E+03  0.00000000000E+00 0.  1.
         23    2    1    2    0    0  0.13191633709E+03 -0.72336498366E+01  0.45315926911E+02  0.18743130623E+03  0.12499086223E+03 0.  0.
         23    2    1    2    0    0 -0.13191633709E+03  0.72336498366E+01  0.17383879955E+03  0.23257122265E+03  0.80094941773E+02 0.  0.
          5    1    3    3  502    0  0.14068231687E+03  0.13472360929E+02  0.55566328947E+01  0.14151319712E+03  0.47000000000E+01 0. -1.
         -5    1    3    3    0  502 -0.87659797844E+01 -0.20706010766E+02  0.39759294016E+02  0.45918109108E+02  0.47000000000E+01 0. -1.
        -11    1    4    4    0    0 -0.11321792737E+03  0.29108244290E+02  0.16547728421E+03  0.20260385128E+03  0.00000000000E+00 0. -1.
         11    1    4    4    0    0 -0.18698409713E+02 -0.21874594453E+02  0.83615153406E+01  0.29967371374E+02  0.00000000000E+00 0.  1.
<mgrwt>
<rscale>  0 0.17460328E+03</rscale>
<asrwt>0</asrwt>
<pdfrwt beam="1">  1        1 0.49165942E-01 0.18187073E+03</pdfrwt>
<pdfrwt beam="2">  1       -1 0.15449831E-01 0.18187073E+03</pdfrwt>
<totfact> 0.24400100E+03</totfact>
</mgrwt>
</event>
<event>
 8    1  0.8504141E-006  0.1267828E+03  0.7546771E-02  0.1245838E+00
         -2   -1    0    0    0  501 -0.00000000000E+00  0.00000000000E+00  0.27908147611E+02  0.27908147611E+02  0.00000000000E+00 0.  1.
          2   -1    0    0  501    0  0.00000000000E+00 -0.00000000000E+00 -0.44708554461E+03  0.44708554461E+03  0.00000000000E+00 0. -1.
         23    2    1    2    0    0 -0.15800021896E+01  0.21099660307E+02 -0.22518513280E+03  0.25842258248E+03  0.12500478003E+03 0.  0.
         23    2    1    2    0    0  0.15800021896E+01 -0.21099660307E+02 -0.19399226420E+03  0.21657110974E+03  0.93927391810E+02 0.  0.
          5    1    3    3  502    0  0.18544387670E+01 -0.41163848682E+02 -0.24385788692E+02  0.48110893481E+02  0.47000000000E+01 0.  1.
         -5    1    3    3    0  502 -0.34344409566E+01  0.62263508989E+02 -0.20079934411E+03  0.21031168900E+03  0.47000000000E+01 0.  1.
        -11    1    4    4    0    0 -0.27348051925E+02 -0.45120812758E+02 -0.74417657063E+02  0.91223853080E+02  0.00000000000E+00 0.  1.
         11    1    4    4    0    0  0.28928054114E+02  0.24021152452E+02 -0.11957460714E+03  0.12534725666E+03  0.00000000000E+00 0. -1.
<mgrwt>
<rscale>  0 0.11835336E+03</rscale>
<asrwt>0</asrwt>
<pdfrwt beam="2">  1        2 0.68782387E-01 0.12678283E+03</pdfrwt>
<pdfrwt beam="1">  1       -2 0.42935615E-02 0.12678283E+03</pdfrwt>
<totfact> 0.16329767E+04</totfact>
</mgrwt>
</event>
<event>
 8    1  0.8504141E-006  0.1450483E+03  0.7546771E-02  0.1217745E+00
         -1   -1    0    0    0  501 -0.00000000000E+00  0.00000000000E+00  0.19409595685E+03  0.19409595685E+03  0.00000000000E+00 0.  1.
          1   -1    0    0  501    0  0.00000000000E+00 -0.00000000000E+00 -0.12863693425E+03  0.12863693425E+03  0.00000000000E+00 0. -1.
         23    2    1    2    0    0 -0.34228517450E+02 -0.65120800565E+02  0.12683499454E+03  0.19268137245E+03  0.12500674133E+03 0.  0.
         23    2    1    2    0    0  0.34228517450E+02  0.65120800565E+02 -0.61375971931E+02  0.13005151865E+03  0.87943604080E+02 0.  0.
          5    1    3    3  502    0 -0.50431957806E+02 -0.65136461455E+02  0.20505622162E+02  0.85021829663E+02  0.47000000000E+01 0.  1.
         -5    1    3    3    0  502  0.16203440357E+02  0.15660890387E-01  0.10632937237E+03  0.10765954279E+03  0.47000000000E+01 0.  1.
        -11    1    4    4    0    0 -0.29332129828E+02  0.26939979601E+02 -0.14786684346E+02  0.42482730316E+02  0.00000000000E+00 0. -1.
         11    1    4    4    0    0  0.63560647278E+02  0.38180820964E+02 -0.46589287585E+02  0.87568788329E+02  0.00000000000E+00 0.  1.
<mgrwt>
<rscale>  0 0.13676821E+03</rscale>
<asrwt>0</asrwt>
<pdfrwt beam="2">  1        1 0.19790298E-01 0.14504825E+03</pdfrwt>
<pdfrwt beam="1">  1       -1 0.29860916E-01 0.14504825E+03</pdfrwt>
<totfact> 0.25913443E+03</totfact>
</mgrwt>
</event>
<event>
 8    1  0.8504141E-006  0.1424921E+03  0.7546771E-02  0.1220924E+00
          1   -1    0    0  501    0  0.00000000000E+00  0.00000000000E+00  0.85714262621E+02  0.85714262621E+02  0.00000000000E+00 0. -1.
         -1   -1    0    0    0  501 -0.00000000000E+00 -0.00000000000E+00 -0.19355330355E+03  0.19355330355E+03  0.00000000000E+00 0.  1.
         23    2    1    2    0    0 -0.39397473826E+02 -0.55910670765E+02 -0.77238196825E+02  0.16207939252E+03  0.12500330548E+03 0.  0.
         23    2    1    2    0    0  0.39397473826E+02  0.55910670765E+02 -0.30600844099E+02  0.11718817365E+03  0.90102676620E+02 0.  0.
          5    1    3    3  502    0 -0.73049686139E+02 -0.25477149152E+01 -0.18029065138E+02  0.75431324302E+02  0.47000000000E+01 0.  1.
         -5    1    3    3    0  502  0.33652212313E+02 -0.53362955849E+02 -0.59209131687E+02  0.86648068216E+02  0.47000000000E+01 0.  1.
        -11    1    4    4    0    0 -0.23287438313E+02  0.42769177546E+02 -0.17964036670E+02  0.51905818023E+02  0.00000000000E+00 0.  1.
         11    1    4    4    0    0  0.62684912139E+02  0.13141493219E+02 -0.12636807430E+02  0.65282355625E+02  0.00000000000E+00 0. -1.
<mgrwt>
<rscale>  0 0.13450242E+03</rscale>
<asrwt>0</asrwt>
<pdfrwt beam="1">  1        1 0.13186810E-01 0.14249207E+03</pdfrwt>
<pdfrwt beam="2">  1       -1 0.29777431E-01 0.14249207E+03</pdfrwt>
<totfact> 0.43923557E+03</totfact>
</mgrwt>
</event>
<event>
 8    1  0.8504141E-006  0.1890326E+03  0.7546771E-02  0.1164360E+00
          1   -1    0    0  501    0  0.00000000000E+00  0.00000000000E+00  0.62469920992E+03  0.62469920992E+03  0.00000000000E+00 0. -1.
         -1   -1    0    0    0  501 -0.00000000000E+00 -0.00000000000E+00 -0.51080804170E+02  0.51080804170E+02  0.00000000000E+00 0.  1.
         23    2    1    2    0    0 -0.37025762039E+02 -0.13687309520E+03  0.30437277557E+03  0.35829613907E+03  0.12501274142E+03 0.  0.
         23    2    1    2    0    0  0.37025762039E+02  0.13687309520E+03  0.26924563018E+03  0.31748387502E+03  0.90540876309E+02 0.  0.
          5    1    3    3  502    0 -0.59347547382E+02 -0.10420591304E+02  0.91973251130E+02  0.11005402776E+03  0.47000000000E+01 0. -1.
         -5    1    3    3    0  502  0.22321785343E+02 -0.12645250390E+03  0.21239952444E+03  0.24824211130E+03  0.47000000000E+01 0. -1.
        -11    1    4    4    0    0  0.23144821143E+02  0.85996031862E+02  0.75700835945E+02  0.11688291922E+03  0.00000000000E+00 0.  1.
         11    1    4    4    0    0  0.13880940896E+02  0.50877063340E+02  0.19354479424E+03  0.20060095581E+03  0.00000000000E+00 0. -1.
<mgrwt>
<rscale>  0 0.18360363E+03</rscale>
<asrwt>0</asrwt>
<pdfrwt beam="1">  1        1 0.96107566E-01 0.18903263E+03</pdfrwt>
<pdfrwt beam="2">  1       -1 0.78585857E-02 0.18903263E+03</pdfrwt>
<totfact> 0.29051298E+03</totfact>
</mgrwt>
</event>
<event>
 8    1  0.8504141E-006  0.1303100E+03  0.7546771E-02  0.1240240E+00
          2   -1    0    0  501    0  0.00000000000E+00  0.00000000000E+00  0.95707285708E+02  0.95707285708E+02  0.00000000000E+00 0. -1.
         -2   -1    0    0    0  501 -0.00000000000E+00 -0.00000000000E+00 -0.13773187108E+03  0.13773187108E+03  0.00000000000E+00 0.  1.
         23    2    1    2    0    0 -0.16103665840E+02  0.33109474903E+02 -0.25422057969E+02  0.13276662784E+03  0.12500052422E+03 0.  0.
         23    2    1    2    0    0  0.16103665840E+02 -0.33109474903E+02 -0.16602527402E+02  0.10067252894E+03  0.92215772979E+02 0.  0.
          5    1    3    3  502    0 -0.29728723658E+02 -0.22569945093E+02 -0.56127270960E+02  0.67568927602E+02  0.47000000000E+01 0.  1.
         -5    1    3    3    0  502  0.13625057818E+02  0.55679419996E+02  0.30705212992E+02  0.65197700239E+02  0.47000000000E+01 0.  1.
        -11    1    4    4    0    0 -0.64884899113E+01 -0.26203215160E+02  0.34834468493E+02  0.44069821661E+02  0.00000000000E+00 0. -1.
         11    1    4    4    0    0  0.22592155751E+02 -0.69062597427E+01 -0.51436995894E+02  0.56602707283E+02  0.00000000000E+00 0.  1.
<mgrwt>
<rscale>  0 0.12174865E+03</rscale>
<asrwt>0</asrwt>
<pdfrwt beam="1">  1        2 0.14724198E-01 0.13031000E+03</pdfrwt>
<pdfrwt beam="2">  1       -2 0.21189519E-01 0.13031000E+03</pdfrwt>
<totfact> 0.71450830E+03</totfact>
</mgrwt>
</event>
<event>
 8    1  0.8504141E-006  0.1808508E+03  0.7546771E-02  0.1172599E+00
          1   -1    0    0  501    0  0.00000000000E+00  0.00000000000E+00  0.48397162272E+03  0.48397162272E+03  0.00000000000E+00 0. -1.
         -1   -1    0    0    0  501 -0.00000000000E+00 -0.00000000000E+00 -0.59955547366E+02  0.59955547366E+02  0.00000000000E+00 0.  1.
         23    2    1    2    0    0 -0.10918849954E+03 -0.71835519228E+02  0.20698732422E+03  0.27486496009E+03  0.12499809455E+03 0.  0.
         23    2    1    2    0    0  0.10918849954E+03  0.71835519228E+02  0.21702875114E+03  0.26906221000E+03  0.90611940584E+02 0.  0.
          5    1    3    3  502    0  0.59944693531E+01  0.58682351114E+01 -0.12060877007E+02  0.15424804710E+02  0.47000000000E+01 0.  1.
         -5    1    3    3    0  502 -0.11518296889E+03 -0.77703754339E+02  0.21904820123E+03  0.25944015538E+03  0.47000000000E+01 0.  1.
        -11    1    4    4    0    0  0.86780277469E+02  0.45535812076E+02  0.76433248731E+02  0.12428341905E+03  0.00000000000E+00 0.  1.
         11    1    4    4    0    0  0.22408222070E+02  0.26299707151E+02  0.14059550241E+03  0.14477879095E+03  0.00000000000E+00 0. -1.
<mgrwt>
<rscale>  0 0.17513190E+03</rscale>
<asrwt>0</asrwt>
<pdfrwt beam="1">  1        1 0.74457170E-01 0.18085075E+03</pdfrwt>
<pdfrwt beam="2">  1       -1 0.92239307E-02 0.18085075E+03</pdfrwt>
<totfact> 0.32050740E+03</totfact>
</mgrwt>
</event>
<event>
 8    1  0.8504141E-006  0.2324107E+03  0.7546771E-02  0.1128098E+00
          2   -1    0    0  501    0  0.00000000000E+00  0.00000000000E+00  0.25853697794E+03  0.25853697794E+03  0.00000000000E+00 0. -1.
         -2   -1    0    0    0  501 -0.00000000000E+00 -0.00000000000E+00 -0.20209036274E+03  0.20209036274E+03  0.00000000000E+00 0.  1.
         23    2    1    2    0    0 -0.13855912484E+03 -0.13853362847E+03 -0.17897230311E+02  0.23309876995E+03  0.12499811361E+03 0.  0.
         23    2    1    2    0    0  0.13855912484E+03  0.13853362847E+03  0.74343845504E+02  0.22752857072E+03  0.88611770309E+02 0.  0.
          5    1    3    3  502    0 -0.52785757971E+02 -0.12551383734E+03 -0.42642663399E+02  0.14276045093E+03  0.47000000000E+01 0.  1.
         -5    1    3    3    0  502 -0.85773366871E+02 -0.13019791134E+02  0.24745433088E+02  0.90338319025E+02  0.47000000000E+01 0.  1.
        -11    1    4    4    0    0  0.80333996543E+02  0.10552378193E+03  0.88073437263E+02  0.15920348584E+03  0.00000000000E+00 0. -1.
         11    1    4    4    0    0  0.58225128299E+02  0.33009846540E+02 -0.13729591759E+02  0.68325084881E+02  0.00000000000E+00 0.  1.
<mgrwt>
<rscale>  0 0.22794073E+03</rscale>
<asrwt>0</asrwt>
<pdfrwt beam="1">  1        2 0.39774920E-01 0.23241068E+03</pdfrwt>
<pdfrwt beam="2">  1       -2 0.31090825E-01 0.23241068E+03</pdfrwt>
<totfact> 0.12279437E+03</totfact>
</mgrwt>
</event>
<event>
 8    1  0.8504141E-006  0.1726296E+03  0.7546771E-02  0.1181305E+00
          1   -1    0    0  501    0  0.00000000000E+00  0.00000000000E+00  0.72724647840E+03  0.72724647840E+03  0.00000000000E+00 0. -1.
         -1   -1    0    0    0  501 -0.00000000000E+00 -0.00000000000E+00 -0.47724307025E+02  0.47724307025E+02  0.00000000000E+00 0.  1.
         23    2    1    2    0    0  0.48164189595E+02  0.10888396137E+03  0.16436364486E+03  0.23836187452E+03  0.12500187705E+03 0.  0.
         23    2    1    2    0    0 -0.48164189595E+02 -0.10888396137E+03  0.51515852651E+03  0.53660891091E+03  0.91571336272E+02 0.  0.
          5    1    3    3  502    0  0.86734173538E+02  0.56459604531E+02  0.75859797903E+02  0.12840289226E+03  0.47000000000E+01 0.  1.
         -5    1    3    3    0  502 -0.38569983943E+02  0.52424356842E+02  0.88503846961E+02  0.10995898225E+03  0.47000000000E+01 0.  1.
        -11    1    4    4    0    0  0.31807454751E+01 -0.59633991087E+02  0.10919671983E+03  0.12445984757E+03  0.00000000000E+00 0.  1.
         11    1    4    4    0    0 -0.51344935071E+02 -0.49249970286E+02  0.40596180668E+03  0.41214906334E+03  0.00000000000E+00 0. -1.
<mgrwt>
<rscale>  0 0.16672694E+03</rscale>
<asrwt>0</asrwt>
<pdfrwt beam="1">  1        1 0.11188407E+00 0.17262959E+03</pdfrwt>
<pdfrwt beam="2">  1       -1 0.73422016E-02 0.17262959E+03</pdfrwt>
<totfact> 0.25861935E+03</totfact>
</mgrwt>
</event>
<event>
 7    1  0.8504141E-006  0.1574208E+03  0.7546771E-02  0.1196718E+00
          3   -1    0    0  501    0  0.00000000000E+00  0.00000000000E+00  0.11143891426E+03  0.11143891426E+03  0.00000000000E+00 0. -1.
         -3   -1    0    0    0  501 -0.00000000000E+00 -0.00000000000E+00 -0.20088471268E+03  0.20088471268E+03  0.00000000000E+00 0.  1.
         23    2    1    2    0    0 -0.25862339735E+02  0.59467474181E+02 -0.54945972079E+02  0.15116677102E+03  0.12500836656E+03 0.  0.
          5    1    3    3  502    0 -0.28314608660E+02 -0.34431498822E+02 -0.29757101150E+02  0.53803533746E+02  0.47000000000E+01 0.  1.
         -5    1    3    3    0  502  0.24522689252E+01  0.93898973003E+02 -0.25188870929E+02  0.97363237275E+02  0.47000000000E+01 0.  1.
        -11    1    1    2    0    0  0.44464003911E+00  0.22604941453E+02 -0.65907737734E+02  0.69677908810E+02  0.00000000000E+00 0.  1.
         11    1    1    2    0    0  0.25417699696E+02 -0.82072415634E+02  0.31407911399E+02  0.91478947110E+02  0.00000000000E+00 0. -1.
<mgrwt>
<rscale>  0 0.15309754E+03</rscale>
<asrwt>0</asrwt>
<pdfrwt beam="1">  1        3 0.17144448E-01 0.15742076E+03</pdfrwt>
<pdfrwt beam="2">  1       -3 0.30905340E-01 0.15742076E+03</pdfrwt>
<totfact> 0.70658062E+02</totfact>
</mgrwt>
</event>
<event>
 8    1  0.8504141E-006  0.3423817E+03  0.7546771E-02  0.1066920E+00
         -2   -1    0    0    0  501 -0.00000000000E+00  0.00000000000E+00  0.66995686874E+02  0.66995686874E+02  0.00000000000E+00 0. -1.
          2   -1    0    0  501    0  0.00000000000E+00 -0.00000000000E+00 -0.20107869026E+04  0.20107869026E+04  0.00000000000E+00 0.  1.
         23    2    1    2    0    0  0.31807902920E+03 -0.20570350764E+02 -0.57384582471E+03  0.66822471597E+03  0.12501132890E+03 0.  0.
         23    2    1    2    0    0 -0.31807902920E+03  0.20570350764E+02 -0.13699453911E+04  0.14095578735E+04  0.92225897835E+02 0.  0.
          5    1    3    3  502    0  0.22176315349E+02 -0.36880221289E+01 -0.14558895211E+03  0.14738936001E+03  0.47000000000E+01 0. -1.
         -5    1    3    3    0  502  0.29590271386E+03 -0.16882328635E+02 -0.42825687260E+03  0.52083535596E+03  0.47000000000E+01 0. -1.
        -11    1    4    4    0    0 -0.63608319574E+02  0.35592300988E+02 -0.22237531985E+03  0.23401626671E+03  0.00000000000E+00 0.  1.
         11    1    4    4    0    0 -0.25447070963E+03 -0.15021950224E+02 -0.11475700712E+04  0.11755416068E+04  0.00000000000E+00 0. -1.
<mgrwt>
<rscale>  0 0.33970961E+03</rscale>
<asrwt>0</asrwt>
<pdfrwt beam="2">  1        2 0.30935186E+00 0.34238172E+03</pdfrwt>
<pdfrwt beam="1">  1       -2 0.10307028E-01 0.34238172E+03</pdfrwt>
<totfact> 0.45912676E+02</totfact>
</mgrwt>
</event>
<event>
 8    1  0.8504141E-006  0.1515543E+03  0.7546771E-02  0.1207376E+00
         -2   -1    0    0    0  501 -0.00000000000E+00  0.00000000000E+00  0.15540605940E+03  0.15540605940E+03  0.00000000000E+00 0. -1.
          2   -1    0    0  501    0  0.00000000000E+00 -0.00000000000E+00 -0.13135802885E+03  0.13135802885E+03  0.00000000000E+00 0.  1.
         23    2    1    2    0    0 -0.97901221219E+01 -0.85203535323E+02  0.48432305982E+02  0.15910497533E+03  0.12495285506E+03 0.  0.
         23    2    1    2    0    0  0.97901221219E+01  0.85203535323E+02 -0.24384275430E+02  0.12765911292E+03  0.91360644158E+02 0.  0.
          5    1    3    3  502    0  0.54839530632E+01 -0.10195612934E+03  0.72803744069E+02  0.12548944657E+03  0.47000000000E+01 0. -1.
         -5    1    3    3    0  502 -0.15274075185E+02  0.16752594014E+02 -0.24371438088E+02  0.33615528754E+02  0.47000000000E+01 0. -1.
        -11    1    4    4    0    0  0.17597303307E+02 -0.52437570130E+01 -0.31644114330E+02  0.36585680847E+02  0.00000000000E+00 0.  1.
         11    1    4    4    0    0 -0.78071811856E+01  0.90447292336E+02  0.72598389000E+01  0.91073432074E+02  0.00000000000E+00 0. -1.
<mgrwt>
<rscale>  0 0.14451784E+03</rscale>
<asrwt>0</asrwt>
<pdfrwt beam="2">  1        2 0.20208927E-01 0.15155430E+03</pdfrwt>
<pdfrwt beam="1">  1       -2 0.23908625E-01 0.15155430E+03</pdfrwt>
<totfact> 0.40703472E+03</totfact>
</mgrwt>
</event>
<event>
 8    1  0.8504141E-006  0.1283091E+03  0.7546771E-02  0.1244740E+00
         -1   -1    0    0    0  501 -0.00000000000E+00  0.00000000000E+00  0.26031977005E+02  0.26031977005E+02  0.00000000000E+00 0.  1.
          1   -1    0    0  501    0  0.00000000000E+00 -0.00000000000E+00 -0.48680847353E+03  0.48680847353E+03  0.00000000000E+00 0. -1.
         23    2    1    2    0    0 -0.20388801265E+02 -0.20573646700E+02 -0.23158651869E+03  0.26475563799E+03  0.12499701618E+03 0.  0.
         23    2    1    2    0    0  0.20388801265E+02  0.20573646700E+02 -0.22918997784E+03  0.24808481255E+03  0.90438101041E+02 0.  0.
          5    1    3    3  502    0 -0.44396259708E+02  0.30440500172E+02 -0.46740632940E+02  0.71445284620E+02  0.47000000000E+01 0.  1.
         -5    1    3    3    0  502  0.24007458442E+02 -0.51014146871E+02 -0.18484588575E+03  0.19331035337E+03  0.47000000000E+01 0.  1.
        -11    1    4    4    0    0  0.15173608680E+02 -0.27762855431E+02 -0.16252081016E+03  0.16557182211E+03  0.00000000000E+00 0. -1.
         11    1    4    4    0    0  0.52151925849E+01  0.48336502131E+02 -0.66669167680E+02  0.82512990438E+02  0.00000000000E+00 0.  1.
<mgrwt>
<rscale>  0 0.11900963E+03</rscale>
<asrwt>0</asrwt>
<pdfrwt beam="2">  1        1 0.74893602E-01 0.12830913E+03</pdfrwt>
<pdfrwt beam="1">  1       -1 0.40049200E-02 0.12830913E+03</pdfrwt>
<totfact> 0.10874862E+04</totfact>
</mgrwt>
</event>
<event>
 8    1  0.8504141E-006  0.1265804E+03  0.7546771E-02  0.1239400E+00
         -1   -1    0    0    0  501 -0.00000000000E+00  0.00000000000E+00  0.22162891439E+02  0.22162891439E+02  0.00000000000E+00 0.  1.
          1   -1    0    0  501    0  0.00000000000E+00 -0.00000000000E+00 -0.67016569793E+03  0.67016569793E+03  0.00000000000E+00 0. -1.
         23    2    1    2    0    0  0.10035214962E+02  0.57012000622E+02 -0.26317074974E+03  0.29202984240E+03  0.11256780881E+03 0.  0.
         23    2    1    2    0    0 -0.10035214962E+02 -0.57012000622E+02 -0.38483205675E+03  0.40029874697E+03  0.93767271290E+02 0.  0.
          5    1    3    3  502    0 -0.14944443853E+02  0.73907692959E+02 -0.96340287623E+02  0.12243048844E+03  0.47000000000E+01 0. -1.
         -5    1    3    3    0  502  0.24979658816E+02 -0.16895692338E+02 -0.16683046211E+03  0.16959935396E+03  0.47000000000E+01 0.  1.
        -11    1    4    4    0    0  0.40284767917E+02 -0.16698634098E+02 -0.11838785802E+03  0.12616414638E+03  0.00000000000E+00 0.  1.
         11    1    4    4    0    0 -0.50319982880E+02 -0.40313366524E+02 -0.26644419873E+03  0.27413460058E+03  0.00000000000E+00 0. -1.
<mgrwt>
<rscale>  0 0.12226922E+03</rscale>
<asrwt>0</asrwt>
<pdfrwt beam="2">  1        1 0.10310242E+00 0.12658035E+03</pdfrwt>
<pdfrwt beam="1">  1       -1 0.34096754E-02 0.12658035E+03</pdfrwt>
<totfact> 0.89473260E+03</totfact>
</mgrwt>
</event>
<event>
 8    1  0.8504141E-006  0.1302291E+03  0.7546771E-02  0.1241795E+00
          1   -1    0    0  501    0  0.00000000000E+00  0.00000000000E+00  0.10838250022E+03  0.10838250022E+03  0.00000000000E+00 0.  1.
         -1   -1    0    0    0  501 -0.00000000000E+00 -0.00000000000E+00 -0.12167183983E+03  0.12167183983E+03  0.00000000000E+00 0. -1.
         23    2    1    2    0    0  0.33744907294E+02 -0.66827712002E+01 -0.26090767019E+02  0.13281693200E+03  0.12560346772E+03 0.  0.
         23    2    1    2    0    0 -0.33744907294E+02  0.66827712002E+01  0.12801427416E+02  0.97237408043E+02  0.90043649303E+02 0.  0.
          5    1    3    3  502    0 -0.73494348642E+01  0.38654336438E+02  0.29979642918E+02  0.49689444632E+02  0.47000000000E+01 0. -1.
         -5    1    3    3    0  502  0.41094342159E+02 -0.45337107638E+02 -0.56070409937E+02  0.83127487373E+02  0.47000000000E+01 0. -1.
        -11    1    4    4    0    0 -0.21202641211E+02 -0.58440557251E+01  0.50773091961E+02  0.55331833956E+02  0.00000000000E+00 0.  1.
         11    1    4    4    0    0 -0.12542266083E+02  0.12526826925E+02 -0.37971664545E+02  0.41905574087E+02  0.00000000000E+00 0. -1.
<mgrwt>
<rscale>  0 0.12079255E+03</rscale>
<asrwt>0</asrwt>
<pdfrwt beam="1">  1        1 0.16674231E-01 0.13022906E+03</pdfrwt>
<pdfrwt beam="2">  1       -1 0.18718745E-01 0.13022906E+03</pdfrwt>
<totfact> 0.68799285E+03</totfact>
</mgrwt>
</event>
<event>
 8    1  0.8504141E-006  0.1668608E+03  0.7546771E-02  0.1187725E+00
          1   -1    0    0  501    0  0.00000000000E+00  0.00000000000E+00  0.64884352101E+03  0.64884352101E+03  0.00000000000E+00 0. -1.
         -1   -1    0    0    0  501 -0.00000000000E+00 -0.00000000000E+00 -0.37302575632E+02  0.37302575632E+02  0.00000000000E+00 0.  1.
         23    2    1    2    0    0 -0.62454504514E+02 -0.91200560943E+02  0.31729205843E+03  0.35849237665E+03  0.12499770527E+03 0.  0.
         23    2    1    2    0    0  0.62454504514E+02  0.91200560943E+02  0.29424888695E+03  0.32765371999E+03  0.92501055690E+02 0.  0.
          5    1    3    3  502    0 -0.32495588620E+02 -0.57869135033E+01  0.54962095051E+01  0.33789790863E+02  0.47000000000E+01 0. -1.
         -5    1    3    3    0  502 -0.29958915894E+02 -0.85413647440E+02  0.31179584893E+03  0.32470258579E+03  0.47000000000E+01 0. -1.
        -11    1    4    4    0    0  0.46841837779E+02  0.58785043220E+02  0.77591139693E+02  0.10802881112E+03  0.00000000000E+00 0.  1.
         11    1    4    4    0    0  0.15612666735E+02  0.32415517723E+02  0.21665774725E+03  0.21962490887E+03  0.00000000000E+00 0. -1.
<mgrwt>
<rscale>  0 0.16086340E+03</rscale>
<asrwt>0</asrwt>
<pdfrwt beam="1">  1        1 0.99822071E-01 0.16686082E+03</pdfrwt>
<pdfrwt beam="2">  1       -1 0.57388583E-02 0.16686082E+03</pdfrwt>
<totfact> 0.44051831E+03</totfact>
</mgrwt>
</event>
<event>
 8    1  0.8504141E-006  0.1818289E+03  0.7546771E-02  0.1171680E+00
         -1   -1    0    0    0  501 -0.00000000000E+00  0.00000000000E+00  0.55553081341E+02  0.55553081341E+02  0.00000000000E+00 0.  1.
          1   -1    0    0  501    0  0.00000000000E+00 -0.00000000000E+00 -0.52663719102E+03  0.52663719102E+03  0.00000000000E+00 0. -1.
         23    2    1    2    0    0 -0.11644371891E+03  0.62268521273E+02 -0.23559654941E+03  0.29760289613E+03  0.12500096509E+03 0.  0.
         23    2    1    2    0    0  0.11644371891E+03 -0.62268521273E+02 -0.23548756026E+03  0.28458737623E+03  0.89994862387E+02 0.  0.
          5    1    3    3  502    0 -0.23994344214E+02 -0.36975117872E+02 -0.77166126968E+02  0.88992072945E+02  0.47000000000E+01 0.  1.
         -5    1    3    3    0  502 -0.92449374695E+02  0.99243639145E+02 -0.15843042244E+03  0.20861082318E+03  0.47000000000E+01 0.  1.
        -11    1    4    4    0    0  0.10217574393E+03 -0.11846677108E+02 -0.18580998358E+03  0.21238073454E+03  0.00000000000E+00 0.  1.
         11    1    4    4    0    0  0.14267974981E+02 -0.50421844165E+02 -0.49677576682E+02  0.72206641690E+02  0.00000000000E+00 0. -1.
<mgrwt>
<rscale>  0 0.17605178E+03</rscale>
<asrwt>0</asrwt>
<pdfrwt beam="2">  1        1 0.81021107E-01 0.18182890E+03</pdfrwt>
<pdfrwt beam="1">  1       -1 0.85466279E-02 0.18182890E+03</pdfrwt>
<totfact> 0.32216498E+03</totfact>
</mgrwt>
</event>
<event>
 7    1  0.8504141E-006  0.2183661E+03  0.7546771E-02  0.1177773E+00
          1   -1    0    0  501    0  0.00000000000E+00  0.00000000000E+00  0.14701594058E+03  0.14701594058E+03  0.00000000000E+00 0. -1.
         -1   -1    0    0    0  501 -0.00000000000E+00 -0.00000000000E+00 -0.20871649866E+03  0.20871649866E+03  0.00000000000E+00 0.  1.
         23    2    1    2    0    0 -0.20621663594E+02 -0.83674103445E+01  0.64931793416E+02  0.10330520827E+03  0.77204674038E+02 0.  0.
          5    1    1    2  502    0 -0.45897407299E+02 -0.78129387479E+02 -0.78641926059E+01  0.91075291435E+02  0.47000000000E+01 0. -1.
         -5    1    1    2    0  502  0.66519070894E+02  0.86496797823E+02 -0.11876815889E+03  0.16135193954E+03  0.47000000000E+01 0.  1.
        -11    1    3    3    0    0 -0.88814889544E+01 -0.15448902444E+02  0.80564602418E+02  0.82511845183E+02  0.00000000000E+00 0. -1.
         11    1    3    3    0    0 -0.11740174640E+02  0.70814921000E+01 -0.15632809002E+02  0.20793363082E+02  0.00000000000E+00 0.  1.
<mgrwt>
<rscale>  0 0.17007204E+03</rscale>
<asrwt>0</asrwt>
<pdfrwt beam="1">  1        1 0.22617837E-01 0.21836610E+03</pdfrwt>
<pdfrwt beam="2">  1       -1 0.32110231E-01 0.21836610E+03</pdfrwt>
<totfact> 0.19609891E+03</totfact>
</mgrwt>
</event>
<event>
 8    1  0.8504141E-006  0.1298406E+03  0.7546771E-02  0.1242648E+00
          2   -1    0    0  501    0  0.00000000000E+00  0.00000000000E+00  0.86137455515E+02  0.86137455515E+02  0.00000000000E+00 0. -1.
         -2   -1    0    0    0  501 -0.00000000000E+00 -0.00000000000E+00 -0.15588736749E+03  0.15588736749E+03  0.00000000000E+00 0.  1.
         23    2    1    2    0    0  0.63146562719E+01  0.34611051086E+02 -0.67650263757E+02  0.14640740087E+03  0.12498307526E+03 0.  0.
         23    2    1    2    0    0 -0.63146562719E+01 -0.34611051086E+02 -0.20996482197E+01  0.95617422136E+02  0.88884662075E+02 0.  0.
          5    1    3    3  502    0 -0.54635745112E+02  0.56334952167E+01 -0.70360272403E+01  0.55573344254E+02  0.47000000000E+01 0.  1.
         -5    1    3    3    0  502  0.60950401384E+02  0.28977555869E+02 -0.60614236516E+02  0.90834056617E+02  0.47000000000E+01 0.  1.
        -11    1    4    4    0    0  0.35800389059E+01  0.22234484925E+02  0.23450497692E+02  0.32513302515E+02  0.00000000000E+00 0. -1.
         11    1    4    4    0    0 -0.98946951779E+01 -0.56845536010E+02 -0.25550145912E+02  0.63104119621E+02  0.00000000000E+00 0.  1.
<mgrwt>
<rscale>  0 0.12027236E+03</rscale>
<asrwt>0</asrwt>
<pdfrwt beam="1">  1        2 0.13251916E-01 0.12984055E+03</pdfrwt>
<pdfrwt beam="2">  1       -2 0.23982672E-01 0.12984055E+03</pdfrwt>
<totfact> 0.65375422E+03</totfact>
</mgrwt>
</event>
<event>
 8    1  0.8504141E-006  0.1306435E+03  0.7546771E-02  0.1240341E+00
         -1   -1    0    0    0  501 -0.00000000000E+00  0.00000000000E+00  0.48581464498E+03  0.48581464498E+03  0.00000000000E+00 0.  1.
          1   -1    0    0  501    0  0.00000000000E+00 -0.00000000000E+00 -0.27882129766E+02  0.27882129766E+02  0.00000000000E+00 0. -1.
         23    2    1    2    0    0 -0.14990670131E+01 -0.37943181151E+02  0.30596293771E+03  0.33268760183E+03  0.12500315579E+03 0.  0.
         23    2    1    2    0    0  0.14990670131E+01  0.37943181151E+02  0.15196957750E+03  0.18100917292E+03  0.90706317293E+02 0.  0.
          5    1    3    3  502    0 -0.26761137473E+02 -0.58308555944E+02  0.72463078167E+02  0.96897027161E+02  0.47000000000E+01 0. -1.
         -5    1    3    3    0  502  0.25262070460E+02  0.20365374793E+02  0.23349985955E+03  0.23579057467E+03  0.47000000000E+01 0. -1.
        -11    1    4    4    0    0 -0.32905989610E+02  0.40738194481E+02  0.46495187099E+02  0.70030044018E+02  0.00000000000E+00 0. -1.
         11    1    4    4    0    0  0.34405056623E+02 -0.27950133303E+01  0.10547439040E+03  0.11097912890E+03  0.00000000000E+00 0.  1.
<mgrwt>
<rscale>  0 0.12168631E+03</rscale>
<asrwt>0</asrwt>
<pdfrwt beam="2">  1        1 0.42895588E-02 0.13064349E+03</pdfrwt>
<pdfrwt beam="1">  1       -1 0.74740709E-01 0.13064349E+03</pdfrwt>
<totfact> 0.37062655E+03</totfact>
</mgrwt>
</event>
<event>
 8    1  0.8504141E-006  0.1472668E+03  0.7546771E-02  0.1213770E+00
         -1   -1    0    0    0  501 -0.00000000000E+00  0.00000000000E+00  0.95343579516E+02  0.95343579516E+02  0.00000000000E+00 0. -1.
          1   -1    0    0  501    0  0.00000000000E+00 -0.00000000000E+00 -0.23506671258E+03  0.23506671258E+03  0.00000000000E+00 0.  1.
         23    2    1    2    0    0  0.58983612451E+02  0.50820211588E+02 -0.64869685200E+00  0.14726820720E+03  0.12500297436E+03 0.  0.
         23    2    1    2    0    0 -0.58983612451E+02 -0.50820211588E+02 -0.13907443621E+03  0.18314208490E+03  0.90208447557E+02 0.  0.
          5    1    3    3  502    0  0.79850827408E+02  0.72779979143E+02 -0.21411057016E+02  0.11024338241E+03  0.47000000000E+01 0.  1.
         -5    1    3    3    0  502 -0.20867214957E+02 -0.21959767555E+02  0.20762360164E+02  0.37024824789E+02  0.47000000000E+01 0.  1.
        -11    1    4    4    0    0 -0.74841248368E+02 -0.39322176112E+02 -0.13998480705E+03  0.16353345895E+03  0.00000000000E+00 0. -1.
         11    1    4    4    0    0  0.15857635917E+02 -0.11498035476E+02  0.91037083573E+00  0.19608625953E+02  0.00000000000E+00 0.  1.
<mgrwt>
<rscale>  0 0.13967287E+03</rscale>
<asrwt>0</asrwt>
<pdfrwt beam="2">  1        1 0.36164110E-01 0.14726678E+03</pdfrwt>
<pdfrwt beam="1">  1       -1 0.14668243E-01 0.14726678E+03</pdfrwt>
<totfact> 0.38460698E+03</totfact>
</mgrwt>
</event>
<event>
 8    1  0.8504141E-006  0.1300784E+03  0.7546771E-02  0.1241287E+00
         -2   -1    0    0    0  501 -0.00000000000E+00  0.00000000000E+00  0.78875554128E+02  0.78875554128E+02  0.00000000000E+00 0.  1.
          2   -1    0    0  501    0  0.00000000000E+00 -0.00000000000E+00 -0.26341454691E+03  0.26341454691E+03  0.00000000000E+00 0. -1.
         23    2    1    2    0    0 -0.15013784207E+02  0.32740742522E+02  0.37689822946E+01  0.13013294141E+03  0.12499202885E+03 0.  0.
         23    2    1    2    0    0  0.15013784207E+02 -0.32740742522E+02 -0.18830797507E+03  0.21215715962E+03  0.90848208385E+02 0.  0.
          5    1    3    3  502    0 -0.31499944046E+02 -0.40729195070E+02  0.15054220000E+02  0.53850100703E+02  0.47000000000E+01 0.  1.
         -5    1    3    3    0  502  0.16486159840E+02  0.73469937592E+02 -0.11285237705E+02  0.76282840706E+02  0.47000000000E+01 0.  1.
        -11    1    4    4    0    0  0.16014648686E+01 -0.37647708141E+02 -0.19336814101E+03  0.19700546332E+03  0.00000000000E+00 0. -1.
         11    1    4    4    0    0  0.13412319338E+02  0.49069656185E+01  0.50601659411E+01  0.15151696306E+02  0.00000000000E+00 0.  1.
<mgrwt>
<rscale>  0 0.12110402E+03</rscale>
<asrwt>0</asrwt>
<pdfrwt beam="2">  1        2 0.40525315E-01 0.13007835E+03</pdfrwt>
<pdfrwt beam="1">  1       -2 0.12134701E-01 0.13007835E+03</pdfrwt>
<totfact> 0.58244983E+03</totfact>
</mgrwt>
</event>
<event>
 8    1  0.8504141E-006  0.1620387E+03  0.7546771E-02  0.1193664E+00
         -1   -1    0    0    0  501 -0.00000000000E+00  0.00000000000E+00  0.90564334569E+02  0.90564334569E+02  0.00000000000E+00 0.  1.
          1   -1    0    0  501    0  0.00000000000E+00 -0.00000000000E+00 -0.24878293765E+03  0.24878293765E+03  0.00000000000E+00 0. -1.
         23    2    1    2    0    0  0.68534791552E+02  0.76932890491E+02 -0.89995723587E+02  0.18535308658E+03  0.12506338053E+03 0.  0.
         23    2    1    2    0    0 -0.68534791552E+02 -0.76932890491E+02 -0.68222879496E+02  0.15399418564E+03  0.91892114082E+02 0.  0.
          5    1    3    3  502    0  0.30850251465E+02  0.43065739692E+02  0.25621828218E+02  0.59033583932E+02  0.47000000000E+01 0.  1.
         -5    1    3    3    0  502  0.37684540088E+02  0.33867150799E+02 -0.11561755181E+03  0.12631950265E+03  0.47000000000E+01 0.  1.
        -11    1    4    4    0    0 -0.44124340079E+02 -0.25598817972E+02 -0.81008033032E+02  0.95731699476E+02  0.00000000000E+00 0. -1.
         11    1    4    4    0    0 -0.24410451473E+02 -0.51334072519E+02  0.12785153536E+02  0.58262486160E+02  0.00000000000E+00 0.  1.
<mgrwt>
<rscale>  0 0.15567862E+03</rscale>
<asrwt>0</asrwt>
<pdfrwt beam="2">  1        1 0.38274298E-01 0.16203869E+03</pdfrwt>
<pdfrwt beam="1">  1       -1 0.13932975E-01 0.16203869E+03</pdfrwt>
<totfact> 0.39039282E+03</totfact>
</mgrwt>
</event>
<event>
 8    1  0.8504141E-006  0.1350881E+03  0.7546771E-02  0.1232572E+00
          1   -1    0    0  501    0  0.00000000000E+00  0.00000000000E+00  0.34458717886E+02  0.34458717886E+02  0.00000000000E+00 0. -1.
         -1   -1    0    0    0  501 -0.00000000000E+00 -0.00000000000E+00 -0.42164361802E+03  0.42164361802E+03  0.00000000000E+00 0.  1.
         23    2    1    2    0    0 -0.16327219128E+02  0.48563390299E+02 -0.24534371033E+03  0.28007556578E+03  0.12499522144E+03 0.  0.
         23    2    1    2    0    0  0.16327219128E+02 -0.48563390299E+02 -0.14184118980E+03  0.17602677013E+03  0.90782816200E+02 0.  0.
          5    1    3    3  502    0 -0.58795786575E+02 -0.12030617489E+02 -0.12470078947E+03  0.13847041984E+03  0.47000000000E+01 0. -1.
         -5    1    3    3    0  502  0.42468567448E+02  0.60594007788E+02 -0.12064292086E+03  0.14160514593E+03  0.47000000000E+01 0. -1.
        -11    1    4    4    0    0  0.79962769483E+01 -0.34706717587E+02 -0.15253770198E+03  0.15664050311E+03  0.00000000000E+00 0.  1.
         11    1    4    4    0    0  0.83309421794E+01 -0.13856672713E+02  0.10696512176E+02  0.19386267020E+02  0.00000000000E+00 0. -1.
<mgrwt>
<rscale>  0 0.12661173E+03</rscale>
<asrwt>0</asrwt>
<pdfrwt beam="1">  1        1 0.53013412E-02 0.13508807E+03</pdfrwt>
<pdfrwt beam="2">  1       -1 0.64868249E-01 0.13508807E+03</pdfrwt>
<totfact> 0.36744883E+03</totfact>
</mgrwt>
</event>
<event>
 8    1  0.8504141E-006  0.1331132E+03  0.7546771E-02  0.1234505E+00
          1   -1    0    0  501    0  0.00000000000E+00  0.00000000000E+00  0.30196542307E+03  0.30196542307E+03  0.00000000000E+00 0. -1.
         -1   -1    0    0    0  501 -0.00000000000E+00 -0.00000000000E+00 -0.47006141684E+02  0.47006141684E+02  0.00000000000E+00 0.  1.
         23    2    1    2    0    0  0.11657624280E+02 -0.44254659634E+02  0.13195036250E+03  0.18743003048E+03  0.12499897223E+03 0.  0.
         23    2    1    2    0    0 -0.11657624280E+02  0.44254659634E+02  0.12300891889E+03  0.16154153428E+03  0.94181198055E+02 0.  0.
          5    1    3    3  502    0 -0.24929906307E+02  0.21438046490E+01 -0.14598098825E+02  0.29347753170E+02  0.47000000000E+01 0.  1.
         -5    1    3    3    0  502  0.36587530587E+02 -0.46398464283E+02  0.14654846133E+03  0.15808227731E+03  0.47000000000E+01 0.  1.
        -11    1    4    4    0    0 -0.96077866389E+01 -0.14765084234E+02 -0.68376363004E+01  0.18896310399E+02  0.00000000000E+00 0.  1.
         11    1    4    4    0    0 -0.20498376408E+01  0.59019743868E+02  0.12984655519E+03  0.14264522388E+03  0.00000000000E+00 0. -1.
<mgrwt>
<rscale>  0 0.12536152E+03</rscale>
<asrwt>0</asrwt>
<pdfrwt beam="1">  1        1 0.46456218E-01 0.13311318E+03</pdfrwt>
<pdfrwt beam="2">  1       -1 0.72317143E-02 0.13311318E+03</pdfrwt>
<totfact> 0.82813489E+03</totfact>
</mgrwt>
</event>
<event>
 8    1  0.8504141E-006  0.1551417E+03  0.7546771E-02  0.1202347E+00
          2   -1    0    0  501    0  0.00000000000E+00  0.00000000000E+00  0.22866381196E+03  0.22866381196E+03  0.00000000000E+00 0. -1.
         -2   -1    0    0    0  501 -0.00000000000E+00 -0.00000000000E+00 -0.14043664226E+03  0.14043664226E+03  0.00000000000E+00 0.  1.
         23    2    1    2    0    0  0.68992318967E+02  0.60687680116E+02 -0.64852715254E+02  0.16815118279E+03  0.12500404394E+03 0.  0.
         23    2    1    2    0    0 -0.68992318967E+02 -0.60687680116E+02  0.15307988496E+03  0.20094927143E+03  0.92218349122E+02 0.  0.
          5    1    3    3  502    0 -0.23858921221E+02 -0.63775095664E+01  0.14226742585E+02  0.28886172379E+02  0.47000000000E+01 0. -1.
         -5    1    3    3    0  502  0.92851240189E+02  0.67065189682E+02 -0.79079457839E+02  0.13926501041E+03  0.47000000000E+01 0. -1.
        -11    1    4    4    0    0 -0.68536583183E+02 -0.43894111197E+00  0.95988798370E+02  0.11794619670E+03  0.00000000000E+00 0. -1.
         11    1    4    4    0    0 -0.45573578487E+00 -0.60248739004E+02  0.57091086593E+02  0.83003074733E+02  0.00000000000E+00 0.  1.
<mgrwt>
<rscale>  0 0.14848532E+03</rscale>
<asrwt>0</asrwt>
<pdfrwt beam="1">  1        2 0.35179048E-01 0.15514170E+03</pdfrwt>
<pdfrwt beam="2">  1       -2 0.21605637E-01 0.15514170E+03</pdfrwt>
<totfact> 0.26367354E+03</totfact>
</mgrwt>
</event>
<event>
 8    1  0.8504141E-006  0.1404567E+03  0.7546771E-02  0.1223867E+00
          3   -1    0    0  501    0  0.00000000000E+00  0.00000000000E+00  0.30711762846E+03  0.30711762846E+03  0.00000000000E+00 0. -1.
         -3   -1    0    0    0  501 -0.00000000000E+00 -0.00000000000E+00 -0.87443083460E+02  0.87443083460E+02  0.00000000000E+00 0.  1.
         23    2    1    2    0    0  0.50450304707E+02  0.39497029463E+02 -0.85820152838E+01  0.14071868114E+03  0.12499139032E+03 0.  0.
         23    2    1    2    0    0 -0.50450304707E+02 -0.39497029463E+02  0.22825656029E+03  0.25384203078E+03  0.90716430126E+02 0.  0.
          5    1    3    3  502    0  0.51190200758E+02 -0.21662482089E+02  0.34651993317E+02  0.65670011609E+02  0.47000000000E+01 0. -1.
         -5    1    3    3    0  502 -0.73989605135E+00  0.61159511551E+02 -0.43234008600E+02  0.75048669535E+02  0.47000000000E+01 0. -1.
        -11    1    4    4    0    0 -0.69087604945E+02 -0.51878662957E+02  0.15761363697E+03  0.17974023307E+03  0.00000000000E+00 0. -1.
         11    1    4    4    0    0  0.18637300238E+02  0.12381633494E+02  0.70642923319E+02  0.74101797706E+02  0.00000000000E+00 0.  1.
<mgrwt>
<rscale>  0 0.13244882E+03</rscale>
<asrwt>0</asrwt>
<pdfrwt beam="1">  1        3 0.47248866E-01 0.14045674E+03</pdfrwt>
<pdfrwt beam="2">  1       -3 0.13452782E-01 0.14045674E+03</pdfrwt>
<totfact> 0.46711487E+02</totfact>
</mgrwt>
</event>
<event>
 8    1  0.8504141E-006  0.1901046E+03  0.7546771E-02  0.1163647E+00
          1   -1    0    0  501    0  0.00000000000E+00  0.00000000000E+00  0.15039558170E+03  0.15039558170E+03  0.00000000000E+00 0. -1.
         -1   -1    0    0    0  501 -0.00000000000E+00 -0.00000000000E+00 -0.38748100946E+03  0.38748100946E+03  0.00000000000E+00 0.  1.
         23    2    1    2    0    0 -0.10287523161E+03 -0.99669095957E+02 -0.30264184750E+03  0.35739593863E+03  0.12499010809E+03 0.  0.
         23    2    1    2    0    0  0.10287523161E+03  0.99669095957E+02  0.65556419748E+02  0.18048065253E+03  0.88081665514E+02 0.  0.
          5    1    3    3  502    0 -0.37630253625E+02  0.24521055085E+02 -0.43616656193E+02  0.62783921730E+02  0.47000000000E+01 0. -1.
         -5    1    3    3    0  502 -0.65244977990E+02 -0.12419015104E+03 -0.25902519131E+03  0.29461201690E+03  0.47000000000E+01 0. -1.
        -11    1    4    4    0    0 -0.38100861229E+00  0.49798433565E+02  0.30766588672E+01  0.49894839241E+02  0.00000000000E+00 0.  1.
         11    1    4    4    0    0  0.10325624023E+03  0.49870662392E+02  0.62479760881E+02  0.13058581329E+03  0.00000000000E+00 0. -1.
<mgrwt>
<rscale>  0 0.18436184E+03</rscale>
<asrwt>0</asrwt>
<pdfrwt beam="1">  1        1 0.23137781E-01 0.19010463E+03</pdfrwt>
<pdfrwt beam="2">  1       -1 0.59612464E-01 0.19010463E+03</pdfrwt>
<totfact> 0.62297952E+02</totfact>
</mgrwt>
</event>
<event>
 8    1  0.8504141E-006  0.2313031E+03  0.7546771E-02  0.1129678E+00
          1   -1    0    0  501    0  0.00000000000E+00  0.00000000000E+00  0.90032316964E+03  0.90032316964E+03  0.00000000000E+00 0. -1.
         -1   -1    0    0    0  501 -0.00000000000E+00 -0.00000000000E+00 -0.55718500648E+02  0.55718500648E+02  0.00000000000E+00 0.  1.
         23    2    1    2    0    0 -0.19238912418E+03  0.29395240356E+02  0.35923018697E+03  0.42725573527E+03  0.12499392320E+03 0.  0.
         23    2    1    2    0    0  0.19238912418E+03 -0.29395240356E+02  0.48537448203E+03  0.52878593502E+03  0.78412511807E+02 0.  0.
          5    1    3    3  502    0 -0.17479756719E+03  0.58473540574E+02  0.23683991933E+03  0.30014760007E+03  0.47000000000E+01 0. -1.
         -5    1    3    3    0  502 -0.17591556991E+02 -0.29078300218E+02  0.12239026764E+03  0.12710813520E+03  0.47000000000E+01 0. -1.
        -11    1    4    4    0    0  0.15841212271E+02 -0.26690701489E+02  0.48522937675E+02  0.57600460353E+02  0.00000000000E+00 0.  1.
         11    1    4    4    0    0  0.17654791191E+03 -0.27045388668E+01  0.43685154436E+03  0.47118547467E+03  0.00000000000E+00 0. -1.
<mgrwt>
<rscale>  0 0.22573557E+03</rscale>
<asrwt>0</asrwt>
<pdfrwt beam="1">  1        1 0.13851125E+00 0.23130313E+03</pdfrwt>
<pdfrwt beam="2">  1       -1 0.85720777E-02 0.23130313E+03</pdfrwt>
<totfact> 0.14771175E+03</totfact>
</mgrwt>
</event>
<event>
 8    1  0.8504141E-006  0.1495131E+03  0.7546771E-02  0.1207542E+00
         -2   -1    0    0    0  501 -0.00000000000E+00  0.00000000000E+00  0.76047113774E+02  0.76047113774E+02  0.00000000000E+00 0.  1.
          2   -1    0    0  501    0  0.00000000000E+00 -0.00000000000E+00 -0.25811957450E+03  0.25811957450E+03  0.00000000000E+00 0. -1.
         23    2    1    2    0    0  0.76501452263E+02  0.29570775322E+02 -0.10867128185E+03  0.18483405680E+03  0.12500911208E+03 0.  0.
         23    2    1    2    0    0 -0.76501452263E+02 -0.29570775322E+02 -0.73401178874E+02  0.14933263148E+03  0.10092372769E+03 0.  0.
          5    1    3    3  502    0 -0.14413056401E+02 -0.19517059087E+02 -0.70302074317E+02  0.74519282361E+02  0.47000000000E+01 0. -1.
         -5    1    3    3    0  502  0.90914508664E+02  0.49087834409E+02 -0.38369207534E+02  0.11031477444E+03  0.47000000000E+01 0. -1.
        -11    1    4    4    0    0 -0.91633669829E+01  0.27988575697E+02  0.63603902293E+01  0.30129424619E+02  0.00000000000E+00 0.  1.
         11    1    4    4    0    0 -0.67338085280E+02 -0.57559351019E+02 -0.79761569103E+02  0.11920320686E+03  0.00000000000E+00 0. -1.
<mgrwt>
<rscale>  0 0.14438947E+03</rscale>
<asrwt>0</asrwt>
<pdfrwt beam="2">  1        2 0.39710704E-01 0.14951315E+03</pdfrwt>
<pdfrwt beam="1">  1       -2 0.11699556E-01 0.14951315E+03</pdfrwt>
<totfact> 0.63641522E+03</totfact>
</mgrwt>
</event>
<event>
 7    1  0.8504141E-006  0.1851027E+03  0.7546771E-02  0.1172992E+00
         -1   -1    0    0    0  501 -0.00000000000E+00  0.00000000000E+00  0.13172412306E+03  0.13172412306E+03  0.00000000000E+00 0.  1.
          1   -1    0    0  501    0  0.00000000000E+00 -0.00000000000E+00 -0.25079467829E+03  0.25079467829E+03  0.00000000000E+00 0. -1.
         23    2    1    2    0    0 -0.34142976627E+02 -0.11219445480E+03 -0.13116975652E+03  0.19702112632E+03  0.88648071892E+02 0.  0.
          5    1    1    2  502    0  0.37730307811E+02 -0.19521586780E+02  0.30310310737E+02  0.52397265338E+02  0.47000000000E+01 0. -1.
         -5    1    1    2    0  502 -0.35873311839E+01  0.13171604158E+03 -0.18211109441E+02  0.13310040969E+03  0.47000000000E+01 0.  1.
        -11    1    3    3    0    0 -0.62701965846E+02 -0.80988126405E+02 -0.76205413794E+02  0.12766314359E+03  0.00000000000E+00 0.  1.
         11    1    3    3    0    0  0.28558989219E+02 -0.31206328391E+02 -0.54964342729E+02  0.69357982731E+02  0.00000000000E+00 0. -1.
<mgrwt>
<rscale>  0 0.17474144E+03</rscale>
<asrwt>0</asrwt>
<pdfrwt beam="2">  1        1 0.38583797E-01 0.18510267E+03</pdfrwt>
<pdfrwt beam="1">  1       -1 0.20265250E-01 0.18510267E+03</pdfrwt>
<totfact> 0.21405034E+03</totfact>
</mgrwt>
</event>
<event>
 8    1  0.8504141E-006  0.1591929E+03  0.7546771E-02  0.1195870E+00
         -2   -1    0    0    0  501 -0.00000000000E+00  0.00000000000E+00  0.58522524032E+02  0.58522524032E+02  0.00000000000E+00 0. -1.
          2   -1    0    0  501    0  0.00000000000E+00 -0.00000000000E+00 -0.38079207850E+03  0.38079207850E+03  0.00000000000E+00 0.  1.
         23    2    1    2    0    0  0.97410138790E+02  0.15127060518E+02 -0.15773364984E+03  0.22410327650E+03  0.12499924458E+03 0.  0.
         23    2    1    2    0    0 -0.97410138790E+02 -0.15127060518E+02 -0.16453590462E+03  0.21521132603E+03  0.97602704077E+02 0.  0.
          5    1    3    3  502    0  0.62439203699E+02 -0.47518320362E+01 -0.17045375094E+03  0.18165298036E+03  0.47000000000E+01 0. -1.
         -5    1    3    3    0  502  0.34970935091E+02  0.19878892554E+02  0.12720101092E+02  0.42450296137E+02  0.47000000000E+01 0. -1.
        -11    1    4    4    0    0 -0.81805443583E+02  0.30589272663E+02 -0.12653440438E+03  0.15374911282E+03  0.00000000000E+00 0. -1.
         11    1    4    4    0    0 -0.15604695207E+02 -0.45716333181E+02 -0.38001500248E+02  0.61462213213E+02  0.00000000000E+00 0.  1.
<mgrwt>
<rscale>  0 0.15380811E+03</rscale>
<asrwt>0</asrwt>
<pdfrwt beam="2">  1        2 0.58583397E-01 0.15919288E+03</pdfrwt>
<pdfrwt beam="1">  1       -2 0.90034653E-02 0.15919288E+03</pdfrwt>
<totfact> 0.63849879E+03</totfact>
</mgrwt>
</event>
<event>
 8    1  0.8504141E-006  0.1306283E+03  0.7546771E-02  0.1244572E+00
          2   -1    0    0  501    0  0.00000000000E+00  0.00000000000E+00  0.15817775905E+03  0.15817775905E+03  0.00000000000E+00 0. -1.
         -2   -1    0    0    0  501 -0.00000000000E+00 -0.00000000000E+00 -0.77181890347E+02  0.77181890347E+02  0.00000000000E+00 0.  1.
         23    2    1    2    0    0  0.37882527291E+02 -0.23334846892E+01  0.50503950415E+02  0.14005140823E+03  0.12499286745E+03 0.  0.
         23    2    1    2    0    0 -0.37882527291E+02  0.23334846892E+01  0.30491918286E+02  0.95308241169E+02  0.81935173943E+02 0.  0.
          5    1    3    3  502    0  0.13848487090E+02 -0.38575387938E+02  0.78105050820E+02  0.88330799345E+02  0.47000000000E+01 0. -1.
         -5    1    3    3    0  502  0.24034040201E+02  0.36241903248E+02 -0.27601100405E+02  0.51720608881E+02  0.47000000000E+01 0. -1.
        -11    1    4    4    0    0 -0.37780093439E+01  0.30233044614E+02  0.39949541965E+02  0.50242175953E+02  0.00000000000E+00 0. -1.
         11    1    4    4    0    0 -0.34104517947E+02 -0.27899559925E+02 -0.94576236785E+01  0.45066065216E+02  0.00000000000E+00 0.  1.
<mgrwt>
<rscale>  0 0.11911011E+03</rscale>
<asrwt>0</asrwt>
<pdfrwt beam="1">  1        2 0.24335040E-01 0.13062828E+03</pdfrwt>
<pdfrwt beam="2">  1       -2 0.11874137E-01 0.13062828E+03</pdfrwt>
<totfact> 0.10461020E+04</totfact>
</mgrwt>
</event>
<event>
 8    1  0.8504141E-006  0.1261871E+03  0.7546771E-02  0.1247886E+00
         -2   -1    0    0    0  501 -0.00000000000E+00  0.00000000000E+00  0.95405252755E+03  0.95405252755E+03  0.00000000000E+00 0.  1.
          2   -1    0    0  501    0  0.00000000000E+00 -0.00000000000E+00 -0.14406301063E+02  0.14406301063E+02  0.00000000000E+00 0. -1.
         23    2    1    2    0    0  0.80817790112E+01  0.15243242439E+02  0.69724647212E+03  0.70857309131E+03  0.12500204499E+03 0.  0.
         23    2    1    2    0    0 -0.80817790112E+01 -0.15243242439E+02  0.24239975437E+03  0.25988573731E+03  0.92115600985E+02 0.  0.
          5    1    3    3  502    0  0.12483328413E+02  0.60276149812E+01  0.39170427346E+01  0.15152519738E+02  0.47000000000E+01 0.  1.
         -5    1    3    3    0  502 -0.44015494021E+01  0.92156274578E+01  0.69332942939E+03  0.69342057157E+03  0.47000000000E+01 0.  1.
        -11    1    4    4    0    0 -0.71223690951E+01  0.30957920733E+02  0.34439232211E+02  0.46852766331E+02  0.00000000000E+00 0.  1.
         11    1    4    4    0    0 -0.95940991610E+00 -0.46201163172E+02  0.20796052216E+03  0.21303297097E+03  0.00000000000E+00 0. -1.
<mgrwt>
<rscale>  0 0.11714299E+03</rscale>
<asrwt>0</asrwt>
<pdfrwt beam="2">  1        2 0.22163547E-02 0.12618709E+03</pdfrwt>
<pdfrwt beam="1">  1       -2 0.14677726E+00 0.12618709E+03</pdfrwt>
<totfact> 0.15238182E+03</totfact>
</mgrwt>
</event>
<event>
 8    1  0.8504141E-006  0.1502839E+03  0.7546771E-02  0.1209505E+00
          1   -1    0    0  501    0  0.00000000000E+00  0.00000000000E+00  0.17957595377E+02  0.17957595377E+02  0.00000000000E+00 0. -1.
         -1   -1    0    0    0  501 -0.00000000000E+00 -0.00000000000E+00 -0.12235692932E+04  0.12235692932E+04  0.00000000000E+00 0.  1.
         23    2    1    2    0    0 -0.66005968180E+02 -0.51020981943E+02 -0.89493612505E+03  0.90746675395E+03  0.12500125262E+03 0.  0.
         23    2    1    2    0    0  0.66005968180E+02  0.51020981943E+02 -0.31067557281E+03  0.33406013468E+03  0.90094026457E+02 0.  0.
          5    1    3    3  502    0 -0.21831428537E+02 -0.70670258753E+02 -0.25132797110E+03  0.26202812025E+03  0.47000000000E+01 0.  1.
         -5    1    3    3    0  502 -0.44174539643E+02  0.19649276810E+02 -0.64360815396E+03  0.64543863370E+03  0.47000000000E+01 0.  1.
        -11    1    4    4    0    0  0.81054727231E+01  0.62498209848E+02 -0.17865132217E+03  0.18944133613E+03  0.00000000000E+00 0.  1.
         11    1    4    4    0    0  0.57900495457E+02 -0.11477227905E+02 -0.13202425064E+03  0.14461879854E+03  0.00000000000E+00 0. -1.
<mgrwt>
<rscale>  0 0.14288056E+03</rscale>
<asrwt>0</asrwt>
<pdfrwt beam="1">  1        1 0.27627077E-02 0.15028387E+03</pdfrwt>
<pdfrwt beam="2">  1       -1 0.18824138E+00 0.15028387E+03</pdfrwt>
<totfact> 0.75911306E+02</totfact>
</mgrwt>
</event>
<event>
 8    1  0.8504141E-006  0.1265289E+03  0.7546771E-02  0.1247215E+00
          2   -1    0    0  501    0  0.00000000000E+00  0.00000000000E+00  0.16154732163E+02  0.16154732163E+02  0.00000000000E+00 0. -1.
         -2   -1    0    0    0  501 -0.00000000000E+00 -0.00000000000E+00 -0.75419336206E+03  0.75419336206E+03  0.00000000000E+00 0.  1.
         23    2    1    2    0    0 -0.18599182070E+02  0.62736286636E+01 -0.42685048023E+03  0.44520881739E+03  0.12499708244E+03 0.  0.
         23    2    1    2    0    0  0.18599182070E+02 -0.62736286636E+01 -0.31118814967E+03  0.32513927683E+03  0.92153116362E+02 0.  0.
          5    1    3    3  502    0 -0.56603027650E+02 -0.15720766059E+01 -0.37985820536E+03  0.38408426203E+03  0.47000000000E+01 0. -1.
         -5    1    3    3    0  502  0.38003845580E+02  0.78457052695E+01 -0.46992274873E+02  0.61124555358E+02  0.47000000000E+01 0. -1.
        -11    1    4    4    0    0  0.15068285606E+02  0.35730159686E+02 -0.67612481065E+02  0.77943217396E+02  0.00000000000E+00 0. -1.
         11    1    4    4    0    0  0.35308964640E+01 -0.42003788350E+02 -0.24357566860E+03  0.24719605944E+03  0.00000000000E+00 0.  1.
<mgrwt>
<rscale>  0 0.11753806E+03</rscale>
<asrwt>0</asrwt>
<pdfrwt beam="1">  1        2 0.24853430E-02 0.12652888E+03</pdfrwt>
<pdfrwt beam="2">  1       -2 0.11602977E+00 0.12652888E+03</pdfrwt>
<totfact> 0.23233192E+03</totfact>
</mgrwt>
</event>
<event>
 8    1  0.8504141E-006  0.1415286E+03  0.7546771E-02  0.1222797E+00
         -1   -1    0    0    0  501 -0.00000000000E+00  0.00000000000E+00  0.49918218387E+03  0.49918218387E+03  0.00000000000E+00 0.  1.
          1   -1    0    0  501    0  0.00000000000E+00 -0.00000000000E+00 -0.33954900269E+02  0.33954900269E+02  0.00000000000E+00 0. -1.
         23    2    1    2    0    0  0.18908499561E+02  0.63623923838E+02  0.32354698898E+03  0.35314726927E+03  0.12499921869E+03 0.  0.
         23    2    1    2    0    0 -0.18908499561E+02 -0.63623923838E+02  0.14168029463E+03  0.17998981488E+03  0.88980292948E+02 0.  0.
          5    1    3    3  502    0  0.12049972286E+02  0.83986393382E+02  0.11264985635E+03  0.14110632956E+03  0.47000000000E+01 0. -1.
         -5    1    3    3    0  502  0.68585272748E+01 -0.20362469544E+02  0.21089713263E+03  0.21204093971E+03  0.47000000000E+01 0. -1.
        -11    1    4    4    0    0  0.21756030357E+02 -0.60674943982E+02  0.57166873572E+02  0.86155818829E+02  0.00000000000E+00 0.  1.
         11    1    4    4    0    0 -0.40664529918E+02 -0.29489798567E+01  0.84513421055E+02  0.93833996047E+02  0.00000000000E+00 0. -1.
<mgrwt>
<rscale>  0 0.13319036E+03</rscale>
<asrwt>0</asrwt>
<pdfrwt beam="2">  1        1 0.52238311E-02 0.14152858E+03</pdfrwt>
<pdfrwt beam="1">  1       -1 0.76797254E-01 0.14152858E+03</pdfrwt>
<totfact> 0.26915235E+03</totfact>
</mgrwt>
</event>
<event>
 8    1  0.8504141E-006  0.1676631E+03  0.7546771E-02  0.1186688E+00
         -1   -1    0    0    0  501 -0.00000000000E+00  0.00000000000E+00  0.22972789840E+03  0.22972789840E+03  0.00000000000E+00 0.  1.
          1   -1    0    0  501    0  0.00000000000E+00 -0.00000000000E+00 -0.11302029443E+03  0.11302029443E+03  0.00000000000E+00 0. -1.
         23    2    1    2    0    0 -0.31923076148E+02 -0.10708385934E+03  0.10287045517E+03  0.19670602345E+03  0.12499957357E+03 0.  0.
         23    2    1    2    0    0  0.31923076148E+02  0.10708385934E+03  0.13837148791E+02  0.14604216938E+03  0.93009745876E+02 0.  0.
          5    1    3    3  502    0 -0.62097855864E+02 -0.35239963088E+02  0.53019303983E+01  0.71750952379E+02  0.47000000000E+01 0.  1.
         -5    1    3    3    0  502  0.30174779715E+02 -0.71843896256E+02  0.97568524772E+02  0.12495507107E+03  0.47000000000E+01 0.  1.
        -11    1    4    4    0    0  0.16464039085E+02  0.61096407195E+02  0.53901580567E+02  0.83121693575E+02  0.00000000000E+00 0.  1.
         11    1    4    4    0    0  0.15459037063E+02  0.45987452149E+02 -0.40064431776E+02  0.62920475806E+02  0.00000000000E+00 0. -1.
<mgrwt>
<rscale>  0 0.16179244E+03</rscale>
<asrwt>0</asrwt>
<pdfrwt beam="2">  1        1 0.17387738E-01 0.16766314E+03</pdfrwt>
<pdfrwt beam="1">  1       -1 0.35342753E-01 0.16766314E+03</pdfrwt>
<totfact> 0.23095036E+03</totfact>
</mgrwt>
</event>
<event>
 8    1  0.8504141E-006  0.1354953E+03  0.7546771E-02  0.1231768E+00
         -1   -1    0    0    0  501 -0.00000000000E+00  0.00000000000E+00  0.11020301553E+03  0.11020301553E+03  0.00000000000E+00 0.  1.
          1   -1    0    0  501    0  0.00000000000E+00 -0.00000000000E+00 -0.13708153929E+03  0.13708153929E+03  0.00000000000E+00 0. -1.
         23    2    1    2    0    0  0.39364217948E+02 -0.34781116685E+02  0.10259691190E+02  0.13588320883E+03  0.12489882884E+03 0.  0.
         23    2    1    2    0    0 -0.39364217948E+02  0.34781116685E+02 -0.37138214958E+02  0.11140134599E+03  0.90949134939E+02 0.  0.
          5    1    3    3  502    0  0.83928945438E+02 -0.23981873371E+02  0.17709407936E+02  0.89190309239E+02  0.47000000000E+01 0.  1.
         -5    1    3    3    0  502 -0.44564727490E+02 -0.10799243314E+02 -0.74497167455E+01  0.46692899589E+02  0.47000000000E+01 0.  1.
        -11    1    4    4    0    0 -0.22757497127E+02  0.13197072370E+02  0.29432377455E+02  0.39475704392E+02  0.00000000000E+00 0.  1.
         11    1    4    4    0    0 -0.16606720821E+02  0.21584044315E+02 -0.66570592413E+02  0.71925641600E+02  0.00000000000E+00 0. -1.
<mgrwt>
<rscale>  0 0.12713648E+03</rscale>
<asrwt>0</asrwt>
<pdfrwt beam="2">  1        1 0.21089468E-01 0.13549533E+03</pdfrwt>
<pdfrwt beam="1">  1       -1 0.16954310E-01 0.13549533E+03</pdfrwt>
<totfact> 0.59831161E+03</totfact>
</mgrwt>
</event>
<event>
 8    1  0.8504141E-006  0.1323607E+03  0.7546771E-02  0.1238724E+00
         -2   -1    0    0    0  501 -0.00000000000E+00  0.00000000000E+00  0.60660262801E+03  0.60660262801E+03  0.00000000000E+00 0.  1.
          2   -1    0    0  501    0  0.00000000000E+00 -0.00000000000E+00 -0.23293310382E+02  0.23293310382E+02  0.00000000000E+00 0. -1.
         23    2    1    2    0    0  0.31690038340E+02  0.29839064141E+02  0.41125722592E+03  0.43203223163E+03  0.12499886005E+03 0.  0.
         23    2    1    2    0    0 -0.31690038340E+02 -0.29839064141E+02  0.17205209170E+03  0.19786370676E+03  0.87484260957E+02 0.  0.
          5    1    3    3  502    0 -0.38749019561E+02  0.15370243476E+02  0.27218031115E+03  0.27539415876E+03  0.47000000000E+01 0. -1.
         -5    1    3    3    0  502  0.70439057901E+02  0.14468820665E+02  0.13907691478E+03  0.15663807287E+03  0.47000000000E+01 0. -1.
        -11    1    4    4    0    0 -0.17423953892E+01 -0.54570018193E+02  0.12786421484E+03  0.13903301861E+03  0.00000000000E+00 0.  1.
         11    1    4    4    0    0 -0.29947642951E+02  0.24730954053E+02  0.44187876863E+02  0.58830688151E+02  0.00000000000E+00 0. -1.
<mgrwt>
<rscale>  0 0.12268994E+03</rscale>
<asrwt>0</asrwt>
<pdfrwt beam="2">  1        2 0.35835867E-02 0.13236066E+03</pdfrwt>
<pdfrwt beam="1">  1       -2 0.93323469E-01 0.13236066E+03</pdfrwt>
<totfact> 0.23647696E+03</totfact>
</mgrwt>
</event>
<event>
 8    1  0.8504141E-006  0.2123481E+03  0.7546771E-02  0.1143191E+00
          1   -1    0    0  501    0  0.00000000000E+00  0.00000000000E+00  0.63202223466E+03  0.63202223466E+03  0.00000000000E+00 0. -1.
         -1   -1    0    0    0  501 -0.00000000000E+00 -0.00000000000E+00 -0.70759663055E+02  0.70759663055E+02  0.00000000000E+00 0.  1.
         23    2    1    2    0    0 -0.72055811133E+02 -0.15580663605E+03  0.19803428522E+03  0.29036061416E+03  0.12499584143E+03 0.  0.
         23    2    1    2    0    0  0.72055811133E+02  0.15580663605E+03  0.36322828638E+03  0.41242128355E+03  0.93213622115E+02 0.  0.
          5    1    3    3  502    0  0.13451673148E+02 -0.35687669831E+02 -0.56770181052E+01  0.38844250836E+02  0.47000000000E+01 0. -1.
         -5    1    3    3    0  502 -0.85507484282E+02 -0.12011896622E+03  0.20371130333E+03  0.25151636332E+03  0.47000000000E+01 0. -1.
        -11    1    4    4    0    0  0.83656620824E+02  0.71202179291E+02  0.21040087547E+03  0.23735355262E+03  0.00000000000E+00 0.  1.
         11    1    4    4    0    0 -0.11600809690E+02  0.84604456760E+02  0.15282741091E+03  0.17506773094E+03  0.00000000000E+00 0. -1.
<mgrwt>
<rscale>  0 0.20796122E+03</rscale>
<asrwt>0</asrwt>
<pdfrwt beam="1">  1        1 0.97234186E-01 0.21234808E+03</pdfrwt>
<pdfrwt beam="2">  1       -1 0.10886102E-01 0.21234808E+03</pdfrwt>
<totfact> 0.17376743E+03</totfact>
</mgrwt>
</event>
<event>
 8    1  0.8504141E-006  0.1309262E+03  0.7546771E-02  0.1239901E+00
         -2   -1    0    0    0  501 -0.00000000000E+00  0.00000000000E+00  0.36615729921E+02  0.36615729921E+02  0.00000000000E+00 0.  1.
          2   -1    0    0  501    0  0.00000000000E+00 -0.00000000000E+00 -0.35970933894E+03  0.35970933894E+03  0.00000000000E+00 0. -1.
         23    2    1    2    0    0 -0.10127544579E+02  0.37630242672E+02 -0.18114590392E+03  0.22350731473E+03  0.12499231540E+03 0.  0.
         23    2    1    2    0    0  0.10127544579E+02 -0.37630242672E+02 -0.14194770510E+03  0.17281775413E+03  0.90544038103E+02 0.  0.
          5    1    3    3  502    0  0.65814925087E+01 -0.45392670288E+02 -0.63421412957E+02  0.78410306599E+02  0.47000000000E+01 0. -1.
         -5    1    3    3    0  502 -0.16709037088E+02  0.83022912960E+02 -0.11772449096E+03  0.14509700813E+03  0.47000000000E+01 0. -1.
        -11    1    4    4    0    0 -0.38930027581E+02 -0.75547797146E+01 -0.44132568206E+02  0.59332160928E+02  0.00000000000E+00 0.  1.
         11    1    4    4    0    0  0.49057572160E+02 -0.30075462957E+02 -0.97815136893E+02  0.11348559320E+03  0.00000000000E+00 0. -1.
<mgrwt>
<rscale>  0 0.12195808E+03</rscale>
<asrwt>0</asrwt>
<pdfrwt beam="2">  1        2 0.55339900E-01 0.13092624E+03</pdfrwt>
<pdfrwt beam="1">  1       -2 0.56331890E-02 0.13092624E+03</pdfrwt>
<totfact> 0.13750105E+04</totfact>
</mgrwt>
</event>
<event>
 8    1  0.8504141E-006  0.1946380E+03  0.7546771E-02  0.1158687E+00
         -4   -1    0    0    0  501 -0.00000000000E+00  0.00000000000E+00  0.74010237772E+02  0.74010237772E+02  0.00000000000E+00 0.  1.
          4   -1    0    0  501    0  0.00000000000E+00 -0.00000000000E+00 -0.68234350143E+03  0.68234350143E+03  0.00000000000E+00 0. -1.
         23    2    1    2    0    0 -0.14272391544E+03 -0.43449065377E+02 -0.10071505501E+03  0.21915171718E+03  0.12500406199E+03 0.  0.
         23    2    1    2    0    0  0.14272391544E+03  0.43449065377E+02 -0.50761820865E+03  0.53720202202E+03  0.93015210557E+02 0.  0.
          5    1    3    3  502    0 -0.10121106337E+03 -0.39906919917E+02  0.12496243288E+01  0.10890313662E+03  0.47000000000E+01 0. -1.
         -5    1    3    3    0  502 -0.41512852075E+02 -0.35421454601E+01 -0.10196467934E+03  0.11024858056E+03  0.47000000000E+01 0. -1.
        -11    1    4    4    0    0  0.95867824847E+02 -0.39850873654E+01 -0.19226606223E+03  0.21487847600E+03  0.00000000000E+00 0.  1.
         11    1    4    4    0    0  0.46856090595E+02  0.47434152742E+02 -0.31535214641E+03  0.32232354602E+03  0.00000000000E+00 0. -1.
<mgrwt>
<rscale>  0 0.18975040E+03</rscale>
<asrwt>0</asrwt>
<pdfrwt beam="2">  1        4 0.10497592E+00 0.19463800E+03</pdfrwt>
<pdfrwt beam="1">  1       -4 0.11386191E-01 0.19463800E+03</pdfrwt>
<totfact> 0.82175570E+01</totfact>
</mgrwt>
</event>
<event>
 8    1  0.8504141E-006  0.2413777E+03  0.7546771E-02  0.1121914E+00
         -2   -1    0    0    0  501 -0.00000000000E+00  0.00000000000E+00  0.33695328181E+02  0.33695328181E+02  0.00000000000E+00 0.  1.
          2   -1    0    0  501    0  0.00000000000E+00 -0.00000000000E+00 -0.16726869955E+04  0.16726869955E+04  0.00000000000E+00 0. -1.
         23    2    1    2    0    0 -0.18362279329E+03  0.94455354256E+02 -0.10206846182E+04  0.10488375767E+04  0.12499611277E+03 0.  0.
         23    2    1    2    0    0  0.18362279329E+03 -0.94455354256E+02 -0.61830704908E+03  0.65754474699E+03  0.86153021933E+02 0.  0.
          5    1    3    3  502    0 -0.37409192098E+02  0.45338773326E+02 -0.55779965219E+03  0.56090783022E+03  0.47000000000E+01 0. -1.
         -5    1    3    3    0  502 -0.14621360119E+03  0.49116580930E+02 -0.46288496604E+03  0.48792974646E+03  0.47000000000E+01 0. -1.
        -11    1    4    4    0    0  0.65407930804E+02 -0.21847341452E+02 -0.33584799189E+03  0.34285474680E+03  0.00000000000E+00 0. -1.
         11    1    4    4    0    0  0.11821486249E+03 -0.72608012804E+02 -0.28245905718E+03  0.31469000019E+03  0.00000000000E+00 0.  1.
<mgrwt>
<rscale>  0 0.23684312E+03</rscale>
<asrwt>0</asrwt>
<pdfrwt beam="2">  1        2 0.25733647E+00 0.24137766E+03</pdfrwt>
<pdfrwt beam="1">  1       -2 0.51838964E-02 0.24137766E+03</pdfrwt>
<totfact> 0.20483331E+03</totfact>
</mgrwt>
</event>
<event>
 8    1  0.8504141E-006  0.1273482E+03  0.7546771E-02  0.1249676E+00
          2   -1    0    0  501    0  0.00000000000E+00  0.00000000000E+00  0.15458128008E+03  0.15458128008E+03  0.00000000000E+00 0. -1.
         -2   -1    0    0    0  501 -0.00000000000E+00 -0.00000000000E+00 -0.12365349026E+03  0.12365349026E+03  0.00000000000E+00 0.  1.
         23    2    1    2    0    0 -0.23414347138E+02  0.66862059221E+01 -0.69214826534E+02  0.14494222654E+03  0.12499847928E+03 0.  0.
         23    2    1    2    0    0  0.23414347138E+02 -0.66862059221E+01  0.10014261636E+03  0.13329254380E+03  0.84530595756E+02 0.  0.
          5    1    3    3  502    0  0.60867609364E+01 -0.55459040051E+02 -0.17203187863E+02  0.58572975464E+02  0.47000000000E+01 0. -1.
         -5    1    3    3    0  502 -0.29501108074E+02  0.62145245973E+02 -0.52011638671E+02  0.86369251079E+02  0.47000000000E+01 0. -1.
        -11    1    4    4    0    0 -0.21436045414E+02 -0.29610739868E+02  0.32196288020E+02  0.48712430865E+02  0.00000000000E+00 0.  1.
         11    1    4    4    0    0  0.44850392552E+02  0.22924533946E+02  0.67946328343E+02  0.84580112934E+02  0.00000000000E+00 0. -1.
<mgrwt>
<rscale>  0 0.11609824E+03</rscale>
<asrwt>0</asrwt>
<pdfrwt beam="1">  1        2 0.23781735E-01 0.12734817E+03</pdfrwt>
<pdfrwt beam="2">  1       -2 0.19023614E-01 0.12734817E+03</pdfrwt>
<totfact> 0.49596647E+03</totfact>
</mgrwt>
</event>
<event>
 8    1  0.8504141E-006  0.1363060E+03  0.7546771E-02  0.1230006E+00
         -2   -1    0    0    0  501 -0.00000000000E+00  0.00000000000E+00  0.23183657584E+03  0.23183657584E+03  0.00000000000E+00 0.  1.
          2   -1    0    0  501    0  0.00000000000E+00 -0.00000000000E+00 -0.97226565255E+02  0.97226565255E+02  0.00000000000E+00 0. -1.
         23    2    1    2    0    0 -0.44301468024E+02 -0.31463080081E+02  0.16860341993E+03  0.21680969082E+03  0.12500713318E+03 0.  0.
         23    2    1    2    0    0  0.44301468024E+02  0.31463080081E+02 -0.33993409340E+02  0.11225345028E+03  0.92156061892E+02 0.  0.
          5    1    3    3  502    0  0.46889679083E+01  0.12268544034E+02  0.14679156421E+03  0.14745289728E+03  0.47000000000E+01 0. -1.
         -5    1    3    3    0  502 -0.48990435933E+02 -0.43731624115E+02  0.21811855718E+02  0.69356793542E+02  0.47000000000E+01 0. -1.
        -11    1    4    4    0    0  0.20567558172E+02 -0.27122987032E+02  0.97197415845E+01  0.35399918802E+02  0.00000000000E+00 0.  1.
         11    1    4    4    0    0  0.23733909852E+02  0.58586067113E+02 -0.43713150924E+02  0.76853531476E+02  0.00000000000E+00 0. -1.
<mgrwt>
<rscale>  0 0.12829643E+03</rscale>
<asrwt>0</asrwt>
<pdfrwt beam="2">  1        2 0.14957933E-01 0.13630601E+03</pdfrwt>
<pdfrwt beam="1">  1       -2 0.35667165E-01 0.13630601E+03</pdfrwt>
<totfact> 0.27930546E+03</totfact>
</mgrwt>
</event>
<event>
 8    1  0.8504141E-006  0.1309185E+03  0.7546771E-02  0.1239595E+00
         -4   -1    0    0    0  501 -0.00000000000E+00  0.00000000000E+00  0.55109748833E+02  0.55109748833E+02  0.00000000000E+00 0.  1.
          4   -1    0    0  501    0  0.00000000000E+00 -0.00000000000E+00 -0.33125259567E+03  0.33125259567E+03  0.00000000000E+00 0. -1.
         23    2    1    2    0    0  0.29378635273E+02 -0.25565006299E+02 -0.51309698064E+02  0.14061410837E+03  0.12499187413E+03 0.  0.
         23    2    1    2    0    0 -0.29378635273E+02  0.25565006299E+02 -0.22483314877E+03  0.24574823613E+03  0.91244599940E+02 0.  0.
          5    1    3    3  502    0  0.58219291408E+02 -0.53349431427E+02 -0.60098367371E+02  0.99345616342E+02  0.47000000000E+01 0. -1.
         -5    1    3    3    0  502 -0.28840656135E+02  0.27784425128E+02  0.87886693071E+01  0.41268492027E+02  0.47000000000E+01 0. -1.
        -11    1    4    4    0    0  0.60221978749E+01 -0.15773264314E+02 -0.27658141426E+01  0.17108841640E+02  0.00000000000E+00 0.  1.
         11    1    4    4    0    0 -0.35400833148E+02  0.41338270613E+02 -0.22206733463E+03  0.22863939449E+03  0.00000000000E+00 0. -1.
<mgrwt>
<rscale>  0 0.12214831E+03</rscale>
<asrwt>0</asrwt>
<pdfrwt beam="2">  1        4 0.50961937E-01 0.13091846E+03</pdfrwt>
<pdfrwt beam="1">  1       -4 0.84784231E-02 0.13091846E+03</pdfrwt>
<totfact> 0.61499435E+02</totfact>
</mgrwt>
</event>
<event>
 7    1  0.8504141E-006  0.1851815E+03  0.7546771E-02  0.1177995E+00
         -2   -1    0    0    0  501 -0.00000000000E+00  0.00000000000E+00  0.99647276098E+02  0.99647276098E+02  0.00000000000E+00 0.  1.
          2   -1    0    0  501    0  0.00000000000E+00 -0.00000000000E+00 -0.52505527368E+03  0.52505527368E+03  0.00000000000E+00 0. -1.
         23    2    1    2    0    0 -0.64271889177E+02 -0.71212346702E+02 -0.41941584287E+03  0.43942417267E+03  0.89341369010E+02 0.  0.
          5    1    1    2  502    0  0.27416746440E+02 -0.14401834406E+02 -0.66874846245E+02  0.73847314643E+02  0.47000000000E+01 0. -1.
         -5    1    1    2    0  502  0.36855142737E+02  0.85614181108E+02  0.60882691535E+02  0.11143106246E+03  0.47000000000E+01 0.  1.
        -11    1    3    3    0    0 -0.16485457736E+02  0.19796462257E+02 -0.54074925852E+02  0.59897978601E+02  0.00000000000E+00 0.  1.
         11    1    3    3    0    0 -0.47786431442E+02 -0.91008808959E+02 -0.36534091702E+03  0.37952619407E+03  0.00000000000E+00 0. -1.
<mgrwt>
<rscale>  0 0.16985898E+03</rscale>
<asrwt>0</asrwt>
<pdfrwt beam="2">  1        2 0.80777735E-01 0.18518145E+03</pdfrwt>
<pdfrwt beam="1">  1       -2 0.15330350E-01 0.18518145E+03</pdfrwt>
<totfact> 0.19261015E+03</totfact>
</mgrwt>
</event>
<event>
 8    1  0.8504141E-006  0.1535376E+03  0.7546771E-02  0.1206574E+00
         -2   -1    0    0    0  501 -0.00000000000E+00  0.00000000000E+00  0.58249107669E+02  0.58249107669E+02  0.00000000000E+00 0.  1.
          2   -1    0    0  501    0  0.00000000000E+00 -0.00000000000E+00 -0.34279893008E+03  0.34279893008E+03  0.00000000000E+00 0. -1.
         23    2    1    2    0    0 -0.85958543518E+02  0.23664155604E+02 -0.11508877952E+03  0.19188334024E+03  0.12499970251E+03 0.  0.
         23    2    1    2    0    0  0.85958543518E+02 -0.23664155604E+02 -0.16946104290E+03  0.20916469751E+03  0.84166276864E+02 0.  0.
          5    1    3    3  502    0 -0.13829989895E+02  0.58198014474E+02 -0.11769150252E+02  0.61146385068E+02  0.47000000000E+01 0.  1.
         -5    1    3    3    0  502 -0.72128553623E+02 -0.34533858871E+02 -0.10331962927E+03  0.13073695517E+03  0.47000000000E+01 0.  1.
        -11    1    4    4    0    0  0.37975247450E+02  0.28911667225E+01 -0.83694111770E+01  0.38993913722E+02  0.00000000000E+00 0.  1.
         11    1    4    4    0    0  0.47983296069E+02 -0.26555322326E+02 -0.16109163172E+03  0.17017078379E+03  0.00000000000E+00 0. -1.
<mgrwt>
<rscale>  0 0.14514133E+03</rscale>
<asrwt>0</asrwt>
<pdfrwt beam="2">  1        2 0.52738297E-01 0.15353758E+03</pdfrwt>
<pdfrwt beam="1">  1       -2 0.89614012E-02 0.15353758E+03</pdfrwt>
<totfact> 0.71807439E+03</totfact>
</mgrwt>
</event>
<event>
 8    1  0.8504141E-006  0.1306529E+03  0.7546771E-02  0.1240060E+00
         -2   -1    0    0    0  501 -0.00000000000E+00  0.00000000000E+00  0.55013220310E+02  0.55013220310E+02  0.00000000000E+00 0.  1.
          2   -1    0    0  501    0  0.00000000000E+00 -0.00000000000E+00 -0.24227646821E+03  0.24227646821E+03  0.00000000000E+00 0. -1.
         23    2    1    2    0    0 -0.10743794802E+02  0.36482755318E+02 -0.90425716441E+02  0.15889303369E+03  0.12499506150E+03 0.  0.
         23    2    1    2    0    0  0.10743794802E+02 -0.36482755318E+02 -0.96837531459E+02  0.13839665483E+03  0.91267223063E+02 0.  0.
          5    1    3    3  502    0  0.39946045393E+01 -0.45952157165E+02 -0.26214667381E+02  0.53262147905E+02  0.47000000000E+01 0. -1.
         -5    1    3    3    0  502 -0.14738399342E+02  0.82434912483E+02 -0.64211049059E+02  0.10563088579E+03  0.47000000000E+01 0. -1.
        -11    1    4    4    0    0  0.25510569577E+02 -0.53143600109E+02 -0.26522077097E+02  0.64640946514E+02  0.00000000000E+00 0.  1.
         11    1    4    4    0    0 -0.14766774775E+02  0.16660844792E+02 -0.70315454362E+02  0.73755708312E+02  0.00000000000E+00 0. -1.
<mgrwt>
<rscale>  0 0.12185973E+03</rscale>
<asrwt>0</asrwt>
<pdfrwt beam="2">  1        2 0.37273301E-01 0.13065292E+03</pdfrwt>
<pdfrwt beam="1">  1       -2 0.84635727E-02 0.13065292E+03</pdfrwt>
<totfact> 0.11220078E+04</totfact>
</mgrwt>
</event>
<event>
 8    1  0.8504141E-006  0.1528464E+03  0.7546771E-02  0.1205564E+00
         -1   -1    0    0    0  501 -0.00000000000E+00  0.00000000000E+00  0.28844926484E+03  0.28844926484E+03  0.00000000000E+00 0.  1.
          1   -1    0    0  501    0  0.00000000000E+00 -0.00000000000E+00 -0.68354067425E+02  0.68354067425E+02  0.00000000000E+00 0. -1.
         23    2    1    2    0    0  0.83579543902E+02  0.27411597029E+02  0.13495644329E+03  0.20390013787E+03  0.12500035532E+03 0.  0.
         23    2    1    2    0    0 -0.83579543902E+02 -0.27411597029E+02  0.85138754122E+02  0.15290319439E+03  0.91617921770E+02 0.  0.
          5    1    3    3  502    0  0.46430614539E+02  0.65650876725E+02  0.12613300496E+03  0.14965782479E+03  0.47000000000E+01 0. -1.
         -5    1    3    3    0  502  0.37148929363E+02 -0.38239279696E+02  0.88234383277E+01  0.54242313082E+02  0.47000000000E+01 0. -1.
        -11    1    4    4    0    0 -0.48225549923E+02  0.24388158924E+02  0.69916891696E+02  0.88367741318E+02  0.00000000000E+00 0.  1.
         11    1    4    4    0    0 -0.35353993979E+02 -0.51799755953E+02  0.15221862426E+02  0.64535453069E+02  0.00000000000E+00 0. -1.
<mgrwt>
<rscale>  0 0.14593127E+03</rscale>
<asrwt>0</asrwt>
<pdfrwt beam="2">  1        1 0.10516011E-01 0.15284641E+03</pdfrwt>
<pdfrwt beam="1">  1       -1 0.44376809E-01 0.15284641E+03</pdfrwt>
<totfact> 0.29770903E+03</totfact>
</mgrwt>
</event>
<event>
 8    1  0.8504141E-006  0.1326012E+03  0.7546771E-02  0.1236563E+00
          2   -1    0    0  501    0  0.00000000000E+00  0.00000000000E+00  0.61731047751E+03  0.61731047751E+03  0.00000000000E+00 0. -1.
         -2   -1    0    0    0  501 -0.00000000000E+00 -0.00000000000E+00 -0.27023716432E+02  0.27023716432E+02  0.00000000000E+00 0.  1.
         23    2    1    2    0    0  0.37844505959E+02  0.22927946151E+02  0.19225156644E+03  0.23354603202E+03  0.12500074772E+03 0.  0.
         23    2    1    2    0    0 -0.37844505959E+02 -0.22927946151E+02  0.39803519464E+03  0.41078816192E+03  0.91416631171E+02 0.  0.
          5    1    3    3  502    0  0.30595626209E+02  0.59934773146E+02  0.44086659962E+02  0.80585314802E+02  0.47000000000E+01 0. -1.
         -5    1    3    3    0  502  0.72488797500E+01 -0.37006826994E+02  0.14816490648E+03  0.15296071722E+03  0.47000000000E+01 0. -1.
        -11    1    4    4    0    0  0.19665731391E+02  0.29210647550E+01  0.22622370495E+02  0.30117192055E+02  0.00000000000E+00 0.  1.
         11    1    4    4    0    0 -0.57510237350E+02 -0.25849010906E+02  0.37541282414E+03  0.38067096986E+03  0.00000000000E+00 0. -1.
<mgrwt>
<rscale>  0 0.12404914E+03</rscale>
<asrwt>0</asrwt>
<pdfrwt beam="1">  1        2 0.94970832E-01 0.13260122E+03</pdfrwt>
<pdfrwt beam="2">  1       -2 0.41574953E-02 0.13260122E+03</pdfrwt>
<totfact> 0.12027983E+04</totfact>
</mgrwt>
</event>
<event>
 8    1  0.8504141E-006  0.1765263E+03  0.7546771E-02  0.1177126E+00
          1   -1    0    0  501    0  0.00000000000E+00  0.00000000000E+00  0.93549677059E+03  0.93549677059E+03  0.00000000000E+00 0. -1.
         -1   -1    0    0    0  501 -0.00000000000E+00 -0.00000000000E+00 -0.30889614440E+02  0.30889614440E+02  0.00000000000E+00 0.  1.
         23    2    1    2    0    0  0.52106948172E+02  0.11323052638E+03  0.37006710981E+03  0.41001363725E+03  0.12500092325E+03 0.  0.
         23    2    1    2    0    0 -0.52106948172E+02 -0.11323052638E+03  0.53454004634E+03  0.55637274778E+03  0.91001577901E+02 0.  0.
          5    1    3    3  502    0  0.72307285800E+02  0.41687313486E+02  0.10247561398E+03  0.13224793815E+03  0.47000000000E+01 0. -1.
         -5    1    3    3    0  502 -0.20200337628E+02  0.71543212897E+02  0.26759149583E+03  0.27776569910E+03  0.47000000000E+01 0. -1.
        -11    1    4    4    0    0 -0.23535190139E+02 -0.15665785949E+02  0.28215493101E+02  0.39942910199E+02  0.00000000000E+00 0.  1.
         11    1    4    4    0    0 -0.28571758034E+02 -0.97564740434E+02  0.50632455323E+03  0.51642983758E+03  0.00000000000E+00 0. -1.
<mgrwt>
<rscale>  0 0.17069436E+03</rscale>
<asrwt>0</asrwt>
<pdfrwt beam="1">  1        1 0.14392256E+00 0.17652625E+03</pdfrwt>
<pdfrwt beam="2">  1       -1 0.47522491E-02 0.17652625E+03</pdfrwt>
<totfact> 0.33653966E+03</totfact>
</mgrwt>
</event>
<event>
 8    1  0.8504141E-006  0.1356473E+03  0.7546771E-02  0.1230558E+00
         -2   -1    0    0    0  501 -0.00000000000E+00  0.00000000000E+00  0.20695418240E+03  0.20695418240E+03  0.00000000000E+00 0.  1.
          2   -1    0    0  501    0  0.00000000000E+00 -0.00000000000E+00 -0.74574025282E+02  0.74574025282E+02  0.00000000000E+00 0. -1.
         23    2    1    2    0    0 -0.10057146373E+02  0.51727567964E+02  0.10282547334E+03  0.17021536996E+03  0.12499322671E+03 0.  0.
         23    2    1    2    0    0  0.10057146373E+02 -0.51727567964E+02  0.29554683774E+02  0.11131283772E+03  0.93488935321E+02 0.  0.
          5    1    3    3  502    0 -0.39032902869E+02  0.81101414897E+02  0.88425701308E+02  0.12626243169E+03  0.47000000000E+01 0. -1.
         -5    1    3    3    0  502  0.28975756496E+02 -0.29373846933E+02  0.14399772036E+02  0.43952938273E+02  0.47000000000E+01 0. -1.
        -11    1    4    4    0    0  0.45339688031E+02 -0.16304197239E+02  0.37020065471E+02  0.60761825234E+02  0.00000000000E+00 0.  1.
         11    1    4    4    0    0 -0.35282541658E+02 -0.35423370726E+02 -0.74653816965E+01  0.50551012485E+02  0.00000000000E+00 0. -1.
<mgrwt>
<rscale>  0 0.12793110E+03</rscale>
<asrwt>0</asrwt>
<pdfrwt beam="2">  1        2 0.11472927E-01 0.13564732E+03</pdfrwt>
<pdfrwt beam="1">  1       -2 0.31839105E-01 0.13564732E+03</pdfrwt>
<totfact> 0.47147233E+03</totfact>
</mgrwt>
</event>
<event>
 8    1  0.8504141E-006  0.1470965E+03  0.7546771E-02  0.1215210E+00
         -1   -1    0    0    0  501 -0.00000000000E+00  0.00000000000E+00  0.38659914007E+02  0.38659914007E+02  0.00000000000E+00 0.  1.
          1   -1    0    0  501    0  0.00000000000E+00 -0.00000000000E+00 -0.45090732987E+03  0.45090732987E+03  0.00000000000E+00 0. -1.
         23    2    1    2    0    0 -0.23613509662E+02 -0.73866443641E+02 -0.20935915156E+03  0.25586839376E+03  0.12499412487E+03 0.  0.
         23    2    1    2    0    0  0.23613509662E+02  0.73866443641E+02 -0.20288826431E+03  0.23369885012E+03  0.86241842612E+02 0.  0.
          5    1    3    3  502    0 -0.20462143480E+02  0.32280659143E+02 -0.37227688023E+02  0.53560536088E+02  0.47000000000E+01 0. -1.
         -5    1    3    3    0  502 -0.31513661815E+01 -0.10614710278E+03 -0.17213146353E+03  0.20230785767E+03  0.47000000000E+01 0. -1.
        -11    1    4    4    0    0 -0.13642645860E+02  0.63753160682E+02 -0.71523314441E+02  0.96778984245E+02  0.00000000000E+00 0.  1.
         11    1    4    4    0    0  0.37256155522E+02  0.10113282960E+02 -0.13136494987E+03  0.13691986587E+03  0.00000000000E+00 0. -1.
<mgrwt>
<rscale>  0 0.13861113E+03</rscale>
<asrwt>0</asrwt>
<pdfrwt beam="2">  1        1 0.69370354E-01 0.14709650E+03</pdfrwt>
<pdfrwt beam="1">  1       -1 0.59476794E-02 0.14709650E+03</pdfrwt>
<totfact> 0.67497605E+03</totfact>
</mgrwt>
</event>
<event>
 8    1  0.8504141E-006  0.2714941E+03  0.7546771E-02  0.1102469E+00
         -1   -1    0    0    0  501 -0.00000000000E+00  0.00000000000E+00  0.98411303271E+02  0.98411303271E+02  0.00000000000E+00 0.  1.
          1   -1    0    0  501    0  0.00000000000E+00 -0.00000000000E+00 -0.13748147674E+04  0.13748147674E+04  0.00000000000E+00 0. -1.
         23    2    1    2    0    0 -0.18429276466E+02  0.24030012364E+03 -0.13514155837E+03  0.30326930865E+03  0.12500098047E+03 0.  0.
         23    2    1    2    0    0  0.18429276466E+02 -0.24030012364E+03 -0.11412619058E+04  0.11699567620E+04  0.90754062183E+02 0.  0.
          5    1    3    3  502    0 -0.25919707384E+02  0.11051033483E+03  0.28259564325E+01  0.11364172370E+03  0.47000000000E+01 0. -1.
         -5    1    3    3    0  502  0.74904309178E+01  0.12978978881E+03 -0.13796751480E+03  0.18962758495E+03  0.47000000000E+01 0. -1.
        -11    1    4    4    0    0 -0.25302395830E+02 -0.66151026275E+02 -0.21233629976E+03  0.22383671215E+03  0.00000000000E+00 0.  1.
         11    1    4    4    0    0  0.43731672296E+02 -0.17414909736E+03 -0.92892560600E+03  0.94612004987E+03  0.00000000000E+00 0. -1.
<mgrwt>
<rscale>  0 0.26793281E+03</rscale>
<asrwt>0</asrwt>
<pdfrwt beam="2">  1        1 0.21150995E+00 0.27149408E+03</pdfrwt>
<pdfrwt beam="1">  1       -1 0.15140201E-01 0.27149408E+03</pdfrwt>
<totfact> 0.27636086E+02</totfact>
</mgrwt>
</event>
<event>
 8    1  0.8504141E-006  0.1554605E+03  0.7546771E-02  0.1201051E+00
          1   -1    0    0  501    0  0.00000000000E+00  0.00000000000E+00  0.15331808455E+03  0.15331808455E+03  0.00000000000E+00 0. -1.
         -1   -1    0    0    0  501 -0.00000000000E+00 -0.00000000000E+00 -0.13606833896E+03  0.13606833896E+03  0.00000000000E+00 0.  1.
         23    2    1    2    0    0  0.30499710380E+02 -0.87247712010E+02  0.22213012111E+01  0.15547634087E+03  0.12500225120E+03 0.  0.
         23    2    1    2    0    0 -0.30499710380E+02  0.87247712010E+02  0.15028444378E+02  0.13391008264E+03  0.95727010341E+02 0.  0.
          5    1    3    3  502    0 -0.96494489199E+01 -0.86204310961E+02  0.43962337768E+02  0.97360527088E+02  0.47000000000E+01 0. -1.
         -5    1    3    3    0  502  0.40149159299E+02 -0.10434010486E+01 -0.41741036557E+02  0.58115813778E+02  0.47000000000E+01 0. -1.
        -11    1    4    4    0    0  0.24625661391E+02 -0.53632118059E+01  0.47365734488E+01  0.25644148804E+02  0.00000000000E+00 0.  1.
         11    1    4    4    0    0 -0.55125371771E+02  0.92610923816E+02  0.10291870929E+02  0.10826593384E+03  0.00000000000E+00 0. -1.
<mgrwt>
<rscale>  0 0.14953065E+03</rscale>
<asrwt>0</asrwt>
<pdfrwt beam="1">  1        1 0.23587398E-01 0.15546047E+03</pdfrwt>
<pdfrwt beam="2">  1       -1 0.20933591E-01 0.15546047E+03</pdfrwt>
<totfact> 0.37364438E+03</totfact>
</mgrwt>
</event>
<event>
 8    1  0.8504141E-006  0.2312840E+03  0.7546771E-02  0.1128652E+00
         -2   -1    0    0    0  501 -0.00000000000E+00  0.00000000000E+00  0.98991952331E+02  0.98991952331E+02  0.00000000000E+00 0.  1.
          2   -1    0    0  501    0  0.00000000000E+00 -0.00000000000E+00 -0.54859285383E+03  0.54859285383E+03  0.00000000000E+00 0. -1.
         23    2    1    2    0    0 -0.82925896407E+02 -0.17604722122E+03 -0.13947466535E+03  0.27008415654E+03  0.12499176351E+03 0.  0.
         23    2    1    2    0    0  0.82925896407E+02  0.17604722122E+03 -0.31012623615E+03  0.37750064962E+03  0.91973527273E+02 0.  0.
          5    1    3    3  502    0 -0.30610592746E+02 -0.11538954899E+02 -0.81460750369E+02  0.87909611073E+02  0.47000000000E+01 0.  1.
         -5    1    3    3    0  502 -0.52315303661E+02 -0.16450826632E+03 -0.58013914980E+02  0.18217454547E+03  0.47000000000E+01 0.  1.
        -11    1    4    4    0    0  0.61625131559E+02  0.17696473327E+03 -0.24171205323E+03  0.30584128292E+03  0.00000000000E+00 0.  1.
         11    1    4    4    0    0  0.21300764848E+02 -0.91751204454E+00 -0.68414182920E+02  0.71659366702E+02  0.00000000000E+00 0. -1.
<mgrwt>
<rscale>  0 0.22716432E+03</rscale>
<asrwt>0</asrwt>
<pdfrwt beam="2">  1        2 0.84398899E-01 0.23128396E+03</pdfrwt>
<pdfrwt beam="1">  1       -2 0.15229531E-01 0.23128396E+03</pdfrwt>
<totfact> 0.18615695E+03</totfact>
</mgrwt>
</event>
<event>
 8    1  0.8504141E-006  0.1335414E+03  0.7546771E-02  0.1235777E+00
         -1   -1    0    0    0  501 -0.00000000000E+00  0.00000000000E+00  0.96586557649E+02  0.96586557649E+02  0.00000000000E+00 0.  1.
          1   -1    0    0  501    0  0.00000000000E+00 -0.00000000000E+00 -0.14342767886E+03  0.14342767886E+03  0.00000000000E+00 0. -1.
         23    2    1    2    0    0  0.37623314463E+02 -0.28163026470E+02 -0.36528387095E+02  0.13844725172E+03  0.12499859436E+03 0.  0.
         23    2    1    2    0    0 -0.37623314463E+02  0.28163026470E+02 -0.10312734117E+02  0.10156698480E+03  0.89447359180E+02 0.  0.
          5    1    3    3  502    0  0.83893487201E+02 -0.18502957161E+02 -0.23139440488E+02  0.89095456251E+02  0.47000000000E+01 0. -1.
         -5    1    3    3    0  502 -0.46270172739E+02 -0.96600693090E+01 -0.13388946607E+02  0.49351795465E+02  0.47000000000E+01 0. -1.
        -11    1    4    4    0    0 -0.65382725150E+02  0.10798077883E+02 -0.16388309074E+02  0.68264748651E+02  0.00000000000E+00 0.  1.
         11    1    4    4    0    0  0.27759410688E+02  0.17364948587E+02  0.60755749574E+01  0.33302236145E+02  0.00000000000E+00 0. -1.
<mgrwt>
<rscale>  0 0.12454825E+03</rscale>
<asrwt>0</asrwt>
<pdfrwt beam="2">  1        1 0.22065797E-01 0.13354145E+03</pdfrwt>
<pdfrwt beam="1">  1       -1 0.14859470E-01 0.13354145E+03</pdfrwt>
<totfact> 0.69465240E+03</totfact>
</mgrwt>
</event>
<event>
 8    1  0.8504141E-006  0.1521867E+03  0.7546771E-02  0.1206376E+00
         -2   -1    0    0    0  501 -0.00000000000E+00  0.00000000000E+00  0.54243858192E+02  0.54243858192E+02  0.00000000000E+00 0.  1.
          2   -1    0    0  501    0  0.00000000000E+00 -0.00000000000E+00 -0.41240457436E+03  0.41240457436E+03  0.00000000000E+00 0. -1.
         23    2    1    2    0    0 -0.70735602273E+02  0.50304627016E+02 -0.10884370861E+03  0.18710356783E+03  0.12500684486E+03 0.  0.
         23    2    1    2    0    0  0.70735602273E+02 -0.50304627016E+02 -0.24931700755E+03  0.27954486472E+03  0.91936283419E+02 0.  0.
          5    1    3    3  502    0  0.24265995457E+02  0.17582096325E+00  0.10158208308E+02  0.26723559728E+02  0.47000000000E+01 0. -1.
         -5    1    3    3    0  502 -0.95001597730E+02  0.50128806052E+02 -0.11900191692E+03  0.16038000810E+03  0.47000000000E+01 0. -1.
        -11    1    4    4    0    0 -0.17685976398E+02 -0.29483624042E+02 -0.86832166015E+02  0.93391128608E+02  0.00000000000E+00 0.  1.
         11    1    4    4    0    0  0.88421578671E+02 -0.20821002973E+02 -0.16248484154E+03  0.18615373611E+03  0.00000000000E+00 0. -1.
<mgrwt>
<rscale>  0 0.14529519E+03</rscale>
<asrwt>0</asrwt>
<pdfrwt beam="2">  1        2 0.63446861E-01 0.15218670E+03</pdfrwt>
<pdfrwt beam="1">  1       -2 0.83452086E-02 0.15218670E+03</pdfrwt>
<totfact> 0.65799676E+03</totfact>
</mgrwt>
</event>
<event>
 8    1  0.8504141E-006  0.1529674E+03  0.7546771E-02  0.1205278E+00
         -1   -1    0    0    0  501 -0.00000000000E+00  0.00000000000E+00  0.53953886027E+02  0.53953886027E+02  0.00000000000E+00 0.  1.
          1   -1    0    0  501    0  0.00000000000E+00 -0.00000000000E+00 -0.36482521577E+03  0.36482521577E+03  0.00000000000E+00 0. -1.
         23    2    1    2    0    0  0.86740185194E+02  0.15835408653E+02 -0.17617180170E+03  0.23331422624E+03  0.12499761820E+03 0.  0.
         23    2    1    2    0    0 -0.86740185194E+02 -0.15835408653E+02 -0.13469952804E+03  0.18546487556E+03  0.92079516273E+02 0.  0.
          5    1    3    3  502    0  0.74506767451E+02 -0.47237774797E+02 -0.10777236769E+03  0.13935436484E+03  0.47000000000E+01 0.  1.
         -5    1    3    3    0  502  0.12233417743E+02  0.63073183450E+02 -0.68399434017E+02  0.93959861398E+02  0.47000000000E+01 0.  1.
        -11    1    4    4    0    0 -0.36495059401E+02 -0.85268297106E+01  0.40699800853E+01  0.37698288071E+02  0.00000000000E+00 0. -1.
         11    1    4    4    0    0 -0.50245125793E+02 -0.73085789420E+01 -0.13876950813E+03  0.14776658749E+03  0.00000000000E+00 0.  1.
<mgrwt>
<rscale>  0 0.14615602E+03</rscale>
<asrwt>0</asrwt>
<pdfrwt beam="2">  1        1 0.56126958E-01 0.15296740E+03</pdfrwt>
<pdfrwt beam="1">  1       -1 0.83005976E-02 0.15296740E+03</pdfrwt>
<totfact> 0.53611979E+03</totfact>
</mgrwt>
</event>
<event>
 8    1  0.8504141E-006  0.1733015E+03  0.7546771E-02  0.1180489E+00
          1   -1    0    0  501    0  0.00000000000E+00  0.00000000000E+00  0.24510623496E+03  0.24510623496E+03  0.00000000000E+00 0. -1.
         -1   -1    0    0    0  501 -0.00000000000E+00 -0.00000000000E+00 -0.11098105377E+03  0.11098105377E+03  0.00000000000E+00 0.  1.
         23    2    1    2    0    0 -0.12001543053E+03 -0.25628651693E+01  0.39603814935E+02  0.17776916559E+03  0.12499256872E+03 0.  0.
         23    2    1    2    0    0  0.12001543053E+03  0.25628651693E+01  0.94521366256E+02  0.17831812313E+03  0.91939069583E+02 0.  0.
          5    1    3    3  502    0 -0.20767385299E+02  0.50474006603E+02 -0.82444527576E+01  0.55398290912E+02  0.47000000000E+01 0. -1.
         -5    1    3    3    0  502 -0.99248045229E+02 -0.53036871772E+02  0.47848267692E+02  0.12237087468E+03  0.47000000000E+01 0. -1.
        -11    1    4    4    0    0  0.39791298024E+02  0.29771568288E+02 -0.21994207629E+01  0.49744659296E+02  0.00000000000E+00 0.  1.
         11    1    4    4    0    0  0.80224132504E+02 -0.27208703118E+02  0.96720787018E+02  0.12857346384E+03  0.00000000000E+00 0. -1.
<mgrwt>
<rscale>  0 0.16749181E+03</rscale>
<asrwt>0</asrwt>
<pdfrwt beam="1">  1        1 0.37708651E-01 0.17330151E+03</pdfrwt>
<pdfrwt beam="2">  1       -1 0.17074008E-01 0.17330151E+03</pdfrwt>
<totfact> 0.28935273E+03</totfact>
</mgrwt>
</event>
<event>
 8    1  0.8504141E-006  0.1139564E+03  0.7546771E-02  0.1264014E+00
          1   -1    0    0  501    0  0.00000000000E+00  0.00000000000E+00  0.14240412167E+03  0.14240412167E+03  0.00000000000E+00 0. -1.
         -1   -1    0    0    0  501 -0.00000000000E+00 -0.00000000000E+00 -0.25800933644E+03  0.25800933644E+03  0.00000000000E+00 0.  1.
         23    2    1    2    0    0  0.19891005189E+02  0.21290804573E+01 -0.22798029340E+03  0.25487461024E+03  0.11218675366E+03 0.  0.
         23    2    1    2    0    0 -0.19891005189E+02 -0.21290804573E+01  0.11237507863E+03  0.14553884787E+03  0.90295143121E+02 0.  0.
          5    1    3    3  502    0  0.55295443420E+02 -0.28324099866E+02 -0.92779471878E+02  0.11175849452E+03  0.47000000000E+01 0. -1.
         -5    1    3    3    0  502 -0.35404438232E+02  0.30453180323E+02 -0.13520082152E+03  0.14311611572E+03  0.47000000000E+01 0.  1.
        -11    1    4    4    0    0  0.29286346229E+02 -0.24625349260E+02  0.42616173683E+02  0.57273345991E+02  0.00000000000E+00 0.  1.
         11    1    4    4    0    0 -0.49177351418E+02  0.22496268803E+02  0.69758904946E+02  0.88265501878E+02  0.00000000000E+00 0. -1.
<mgrwt>
<rscale>  0 0.10816114E+03</rscale>
<asrwt>0</asrwt>
<pdfrwt beam="1">  1        1 0.21908326E-01 0.11395636E+03</pdfrwt>
<pdfrwt beam="2">  1       -1 0.39693744E-01 0.11395636E+03</pdfrwt>
<totfact> 0.13873113E+03</totfact>
</mgrwt>
</event>
<event>
 7    1  0.8504141E-006  0.1671253E+03  0.7546771E-02  0.1194985E+00
         -2   -1    0    0    0  501 -0.00000000000E+00  0.00000000000E+00  0.14265362560E+03  0.14265362560E+03  0.00000000000E+00 0.  1.
          2   -1    0    0  501    0  0.00000000000E+00 -0.00000000000E+00 -0.30266943237E+03  0.30266943237E+03  0.00000000000E+00 0. -1.
         23    2    1    2    0    0  0.85961998709E+02  0.70127765684E+02  0.72858867700E+02  0.18231642558E+03  0.12499398262E+03 0.  0.
          5    1    3    3  502    0  0.79464526414E+02  0.46429864335E+02  0.10621531153E+03  0.14062050229E+03  0.47000000000E+01 0.  1.
         -5    1    3    3    0  502  0.64974722949E+01  0.23697901349E+02 -0.33356443827E+02  0.41695923294E+02  0.47000000000E+01 0.  1.
        -11    1    1    2    0    0 -0.47743947620E+02 -0.14117120390E+02 -0.64419266294E+02  0.81416334309E+02  0.00000000000E+00 0.  1.
         11    1    1    2    0    0 -0.38218051089E+02 -0.56010645294E+02 -0.16845540818E+03  0.18159029809E+03  0.00000000000E+00 0. -1.
<mgrwt>
<rscale>  0 0.15455472E+03</rscale>
<asrwt>0</asrwt>
<pdfrwt beam="2">  1        2 0.46564528E-01 0.16712530E+03</pdfrwt>
<pdfrwt beam="1">  1       -2 0.21946712E-01 0.16712530E+03</pdfrwt>
<totfact> 0.19070903E+03</totfact>
</mgrwt>
</event>
<event>
 8    1  0.8504141E-006  0.1443201E+03  0.7546771E-02  0.1219364E+00
         -3   -1    0    0    0  501 -0.00000000000E+00  0.00000000000E+00  0.10201279238E+03  0.10201279238E+03  0.00000000000E+00 0.  1.
          3   -1    0    0  501    0  0.00000000000E+00 -0.00000000000E+00 -0.21537221517E+03  0.21537221517E+03  0.00000000000E+00 0. -1.
         23    2    1    2    0    0 -0.28286984066E+02  0.66315741387E+02  0.16855892306E+02  0.14530112122E+03  0.12502145296E+03 0.  0.
         23    2    1    2    0    0  0.28286984066E+02 -0.66315741387E+02 -0.13021531509E+03  0.17208388633E+03  0.86364950224E+02 0.  0.
          5    1    3    3  502    0 -0.54836570766E+02  0.81056003940E+02 -0.17153336218E+02  0.99465834393E+02  0.47000000000E+01 0.  1.
         -5    1    3    3    0  502  0.26549586700E+02 -0.14740262553E+02  0.34009228524E+02  0.45835286831E+02  0.47000000000E+01 0.  1.
        -11    1    4    4    0    0  0.77125676593E+01 -0.23188660470E+02 -0.12097078730E+03  0.12341446048E+03  0.00000000000E+00 0. -1.
         11    1    4    4    0    0  0.20574416406E+02 -0.43127080917E+02 -0.92445277889E+01  0.48669425853E+02  0.00000000000E+00 0.  1.
<mgrwt>
<rscale>  0 0.13560815E+03</rscale>
<asrwt>0</asrwt>
<pdfrwt beam="2">  1        3 0.33134186E-01 0.14432011E+03</pdfrwt>
<pdfrwt beam="1">  1       -3 0.15694276E-01 0.14432011E+03</pdfrwt>
<totfact> 0.71377250E+02</totfact>
</mgrwt>
</event>
<event>
 8    1  0.8504141E-006  0.1256884E+03  0.7546771E-02  0.1248228E+00
         -2   -1    0    0    0  501 -0.00000000000E+00  0.00000000000E+00  0.63123914810E+02  0.63123914810E+02  0.00000000000E+00 0. -1.
          2   -1    0    0  501    0  0.00000000000E+00 -0.00000000000E+00 -0.19858588106E+03  0.19858588106E+03  0.00000000000E+00 0.  1.
         23    2    1    2    0    0  0.11879283187E+02  0.57975908745E+01 -0.52568031413E+02  0.13623866141E+03  0.12499138173E+03 0.  0.
         23    2    1    2    0    0 -0.11879283187E+02 -0.57975908745E+01 -0.82893934833E+02  0.12547113446E+03  0.93257019688E+02 0.  0.
          5    1    3    3  502    0 -0.18064996884E+02  0.47438234254E+02 -0.65630772207E+02  0.83103660822E+02  0.47000000000E+01 0. -1.
         -5    1    3    3    0  502  0.29944280072E+02 -0.41640643380E+02  0.13062740794E+02  0.53135000585E+02  0.47000000000E+01 0. -1.
        -11    1    4    4    0    0 -0.16360542336E+02 -0.45046089232E+02 -0.68132398803E+02  0.83299707486E+02  0.00000000000E+00 0. -1.
         11    1    4    4    0    0  0.44812591490E+01  0.39248498358E+02 -0.14761536030E+02  0.42171426972E+02  0.00000000000E+00 0.  1.
<mgrwt>
<rscale>  0 0.11694231E+03</rscale>
<asrwt>0</asrwt>
<pdfrwt beam="2">  1        2 0.30551673E-01 0.12568840E+03</pdfrwt>
<pdfrwt beam="1">  1       -2 0.97113717E-02 0.12568840E+03</pdfrwt>
<totfact> 0.11173869E+04</totfact>
</mgrwt>
</event>
<event>
 8    1  0.8504141E-006  0.3973710E+03  0.7546771E-02  0.1045448E+00
         -3   -1    0    0    0  501 -0.00000000000E+00  0.00000000000E+00  0.43545726743E+03  0.43545726743E+03  0.00000000000E+00 0.  1.
          3   -1    0    0  501    0  0.00000000000E+00 -0.00000000000E+00 -0.39569727709E+03  0.39569727709E+03  0.00000000000E+00 0. -1.
         23    2    1    2    0    0  0.29216737942E+03 -0.23858837969E+03  0.15356494791E+03  0.42601161687E+03  0.12497004426E+03 0.  0.
         23    2    1    2    0    0 -0.29216737942E+03  0.23858837969E+03 -0.11380495757E+03  0.40514292765E+03  0.94355873899E+02 0.  0.
          5    1    3    3  502    0  0.97388056577E+02 -0.13247470245E+02  0.24755823454E+02  0.10146363795E+03  0.47000000000E+01 0.  1.
         -5    1    3    3    0  502  0.19477932284E+03 -0.22534090945E+03  0.12880912446E+03  0.32454797892E+03  0.47000000000E+01 0.  1.
        -11    1    4    4    0    0 -0.18416488318E+03  0.13199606002E+03 -0.21667777449E+02  0.22761624862E+03  0.00000000000E+00 0. -1.
         11    1    4    4    0    0 -0.10800249624E+03  0.10659231967E+03 -0.92137180123E+02  0.17752667903E+03  0.00000000000E+00 0.  1.
<mgrwt>
<rscale>  0 0.39521846E+03</rscale>
<asrwt>0</asrwt>
<pdfrwt beam="2">  1        3 0.60876504E-01 0.39737099E+03</pdfrwt>
<pdfrwt beam="1">  1       -3 0.66993426E-01 0.39737099E+03</pdfrwt>
<totfact> 0.14650821E+01</totfact>
</mgrwt>
</event>
<event>
 8    1  0.8504141E-006  0.1274140E+03  0.7546771E-02  0.1245397E+00
         -1   -1    0    0    0  501 -0.00000000000E+00  0.00000000000E+00  0.82368830573E+02  0.82368830573E+02  0.00000000000E+00 0.  1.
          1   -1    0    0  501    0  0.00000000000E+00 -0.00000000000E+00 -0.15719366580E+03  0.15719366580E+03  0.00000000000E+00 0. -1.
         23    2    1    2    0    0 -0.80015147716E+01 -0.23354263302E+02 -0.19157870300E+02  0.12884625434E+03  0.12499954964E+03 0.  0.
         23    2    1    2    0    0  0.80015147716E+01  0.23354263302E+02 -0.55666964926E+02  0.11071624204E+03  0.92465287614E+02 0.  0.
          5    1    3    3  502    0 -0.62678690422E+02 -0.55255766121E+01  0.10505875442E+02  0.63965722451E+02  0.47000000000E+01 0.  1.
         -5    1    3    3    0  502  0.54677175650E+02 -0.17828686690E+02 -0.29663745742E+02  0.64880531885E+02  0.47000000000E+01 0.  1.
        -11    1    4    4    0    0 -0.40301004702E+02  0.17304484226E+02 -0.12376623400E+02  0.45571887838E+02  0.00000000000E+00 0.  1.
         11    1    4    4    0    0  0.48302519474E+02  0.60497790760E+01 -0.43290341526E+02  0.65144354198E+02  0.00000000000E+00 0. -1.
<mgrwt>
<rscale>  0 0.11861662E+03</rscale>
<asrwt>0</asrwt>
<pdfrwt beam="2">  1        1 0.24183641E-01 0.12741402E+03</pdfrwt>
<pdfrwt beam="1">  1       -1 0.12672128E-01 0.12741402E+03</pdfrwt>
<totfact> 0.79015372E+03</totfact>
</mgrwt>
</event>
<event>
 8    1  0.8504141E-006  0.1686095E+03  0.7546771E-02  0.1186048E+00
         -2   -1    0    0    0  501 -0.00000000000E+00  0.00000000000E+00  0.72509114294E+03  0.72509114294E+03  0.00000000000E+00 0. -1.
          2   -1    0    0  501    0  0.00000000000E+00 -0.00000000000E+00 -0.38222594171E+02  0.38222594171E+02  0.00000000000E+00 0.  1.
         23    2    1    2    0    0 -0.83300312851E+02 -0.76595200215E+02  0.49424901416E+03  0.52221764326E+03  0.12499364827E+03 0.  0.
         23    2    1    2    0    0  0.83300312851E+02  0.76595200215E+02  0.19261953460E+03  0.24109609385E+03  0.90660214776E+02 0.  0.
          5    1    3    3  502    0 -0.10683711128E+03 -0.23050741901E+02  0.34105149573E+03  0.35816716459E+03  0.47000000000E+01 0.  1.
         -5    1    3    3    0  502  0.23536798434E+02 -0.53544458314E+02  0.15319751844E+03  0.16405047867E+03  0.47000000000E+01 0.  1.
        -11    1    4    4    0    0 -0.13246895637E+02  0.34884851058E+02  0.71768154863E+02  0.80889437690E+02  0.00000000000E+00 0. -1.
         11    1    4    4    0    0  0.96547208488E+02  0.41710349157E+02  0.12085137974E+03  0.16020665616E+03  0.00000000000E+00 0.  1.
<mgrwt>
<rscale>  0 0.16236923E+03</rscale>
<asrwt>0</asrwt>
<pdfrwt beam="2">  1        2 0.58803996E-02 0.16860955E+03</pdfrwt>
<pdfrwt beam="1">  1       -2 0.11155247E+00 0.16860955E+03</pdfrwt>
<totfact> 0.82566301E+02</totfact>
</mgrwt>
</event>
<event>
 8    1  0.8504141E-006  0.1788271E+03  0.7546771E-02  0.1174768E+00
         -1   -1    0    0    0  501 -0.00000000000E+00  0.00000000000E+00  0.26523062981E+02  0.26523062981E+02  0.00000000000E+00 0.  1.
          1   -1    0    0  501    0  0.00000000000E+00 -0.00000000000E+00 -0.11031719125E+04  0.11031719125E+04  0.00000000000E+00 0. -1.
         23    2    1    2    0    0 -0.57733457712E+02 -0.11403520283E+03 -0.68360513605E+03  0.70660817420E+03  0.12506778239E+03 0.  0.
         23    2    1    2    0    0  0.57733457712E+02  0.11403520283E+03 -0.39304371352E+03  0.42308680132E+03  0.90453861697E+02 0.  0.
          5    1    3    3  502    0  0.34834569849E+02 -0.58044867358E+02 -0.32508110399E+03  0.33208804263E+03  0.47000000000E+01 0. -1.
         -5    1    3    3    0  502 -0.92568027561E+02 -0.55990335477E+02 -0.35852403206E+03  0.37452013158E+03  0.47000000000E+01 0. -1.
        -11    1    4    4    0    0  0.41065459852E+02  0.69350709163E+02 -0.34894259832E+03  0.35812962705E+03  0.00000000000E+00 0. -1.
         11    1    4    4    0    0  0.16667997860E+02  0.44684493672E+02 -0.44101115200E+02  0.64957174271E+02  0.00000000000E+00 0.  1.
<mgrwt>
<rscale>  0 0.17298682E+03</rscale>
<asrwt>0</asrwt>
<pdfrwt beam="2">  1        1 0.16971875E+00 0.17882709E+03</pdfrwt>
<pdfrwt beam="1">  1       -1 0.40804713E-02 0.17882709E+03</pdfrwt>
<totfact> 0.31781397E+03</totfact>
</mgrwt>
</event>
<event>
 8    1  0.8504141E-006  0.1796532E+03  0.7546771E-02  0.1174352E+00
         -1   -1    0    0    0  501 -0.00000000000E+00  0.00000000000E+00  0.62249204458E+03  0.62249204458E+03  0.00000000000E+00 0.  1.
          1   -1    0    0  501    0  0.00000000000E+00 -0.00000000000E+00 -0.48361232730E+02  0.48361232730E+02  0.00000000000E+00 0. -1.
         23    2    1    2    0    0  0.10262744914E+03  0.78212441738E+02  0.22078149655E+03  0.28463969691E+03  0.12500283388E+03 0.  0.
         23    2    1    2    0    0 -0.10262744914E+03 -0.78212441738E+02  0.35334931530E+03  0.38621358040E+03  0.87496352524E+02 0.  0.
          5    1    3    3  502    0  0.38794135126E+02  0.33530575529E+02  0.19613567114E+03  0.20278208971E+03  0.47000000000E+01 0. -1.
         -5    1    3    3    0  502  0.63833314014E+02  0.44681866208E+02  0.24645825415E+02  0.81857607198E+02  0.47000000000E+01 0. -1.
        -11    1    4    4    0    0 -0.10171356064E+02 -0.53232715728E+02  0.80492304678E+02  0.97037052822E+02  0.00000000000E+00 0. -1.
         11    1    4    4    0    0 -0.92456093075E+02 -0.24979726010E+02  0.27285701062E+03  0.28917652758E+03  0.00000000000E+00 0.  1.
<mgrwt>
<rscale>  0 0.17339584E+03</rscale>
<asrwt>0</asrwt>
<pdfrwt beam="2">  1        1 0.74401901E-02 0.17965324E+03</pdfrwt>
<pdfrwt beam="1">  1       -1 0.95768001E-01 0.17965324E+03</pdfrwt>
<totfact> 0.10556585E+03</totfact>
</mgrwt>
</event>
<event>
 8    1  0.8504141E-006  0.1264723E+03  0.7546771E-02  0.1250292E+00
          1   -1    0    0  501    0  0.00000000000E+00  0.00000000000E+00  0.11167566327E+03  0.11167566327E+03  0.00000000000E+00 0. -1.
         -1   -1    0    0    0  501 -0.00000000000E+00 -0.00000000000E+00 -0.10365591789E+03  0.10365591789E+03  0.00000000000E+00 0.  1.
         23    2    1    2    0    0 -0.95046175607E+01 -0.16771773908E+02  0.48142572171E+01  0.12656394395E+03  0.12499449860E+03 0.  0.
         23    2    1    2    0    0  0.95046175607E+01  0.16771773908E+02  0.32054881613E+01  0.88767637208E+02  0.86589769062E+02 0.  0.
          5    1    3    3  502    0 -0.53835239368E+02  0.20291617653E+02 -0.23155804105E+02  0.62195369671E+02  0.47000000000E+01 0.  1.
         -5    1    3    3    0  502  0.44330621808E+02 -0.37063391562E+02  0.27970061322E+02  0.64368574275E+02  0.47000000000E+01 0.  1.
        -11    1    4    4    0    0  0.43857293963E+02  0.24947925545E+02 -0.92999458749E+01  0.51306434451E+02  0.00000000000E+00 0.  1.
         11    1    4    4    0    0 -0.34352676402E+02 -0.81761516367E+01  0.12505434036E+02  0.37461202757E+02  0.00000000000E+00 0. -1.
<mgrwt>
<rscale>  0 0.11574161E+03</rscale>
<asrwt>0</asrwt>
<pdfrwt beam="1">  1        1 0.17180871E-01 0.12647235E+03</pdfrwt>
<pdfrwt beam="2">  1       -1 0.15947064E-01 0.12647235E+03</pdfrwt>
<totfact> 0.85125955E+03</totfact>
</mgrwt>
</event>
<event>
 8    1  0.8504141E-006  0.2121413E+03  0.7546771E-02  0.1142855E+00
         -2   -1    0    0    0  501 -0.00000000000E+00  0.00000000000E+00  0.22549998335E+03  0.22549998335E+03  0.00000000000E+00 0.  1.
          2   -1    0    0  501    0  0.00000000000E+00 -0.00000000000E+00 -0.19354201873E+03  0.19354201873E+03  0.00000000000E+00 0. -1.
         23    2    1    2    0    0 -0.19173193469E+02 -0.17032091957E+03 -0.24719557630E+02  0.21357663486E+03  0.12500838146E+03 0.  0.
         23    2    1    2    0    0  0.19173193469E+02  0.17032091957E+03  0.56677522252E+02  0.20546536723E+03  0.98116505289E+02 0.  0.
          5    1    3    3  502    0  0.15625322963E+00 -0.79690068563E+02  0.50214773147E+02  0.94308774167E+02  0.47000000000E+01 0. -1.
         -5    1    3    3    0  502 -0.19329446698E+02 -0.90630851007E+02 -0.74934330778E+02  0.11926786069E+03  0.47000000000E+01 0. -1.
        -11    1    4    4    0    0 -0.31302613000E+02  0.11923000146E+03  0.20206216803E+02  0.12491572369E+03  0.00000000000E+00 0. -1.
         11    1    4    4    0    0  0.50475806469E+02  0.51090918111E+02  0.36471305450E+02  0.80549643533E+02  0.00000000000E+00 0.  1.
<mgrwt>
<rscale>  0 0.20838050E+03</rscale>
<asrwt>0</asrwt>
<pdfrwt beam="2">  1        2 0.29775695E-01 0.21214128E+03</pdfrwt>
<pdfrwt beam="1">  1       -2 0.34692305E-01 0.21214128E+03</pdfrwt>
<totfact> 0.13721008E+03</totfact>
</mgrwt>
</event>
<event>
 8    1  0.8504141E-006  0.1275399E+03  0.7546771E-02  0.1246007E+00
          2   -1    0    0  501    0  0.00000000000E+00  0.00000000000E+00  0.20608010636E+03  0.20608010636E+03  0.00000000000E+00 0. -1.
         -2   -1    0    0    0  501 -0.00000000000E+00 -0.00000000000E+00 -0.61181270243E+02  0.61181270243E+02  0.00000000000E+00 0.  1.
         23    2    1    2    0    0 -0.20285291032E+02 -0.15203670718E+02  0.62340103861E+02  0.14196027270E+03  0.12499514326E+03 0.  0.
         23    2    1    2    0    0  0.20285291032E+02  0.15203670718E+02  0.82558732256E+02  0.12530110391E+03  0.90784237250E+02 0.  0.
          5    1    3    3  502    0 -0.39901859983E+02 -0.30331878710E+02 -0.21255427297E+02  0.54644894416E+02  0.47000000000E+01 0. -1.
         -5    1    3    3    0  502  0.19616568951E+02  0.15128207992E+02  0.83595531158E+02  0.87315378279E+02  0.47000000000E+01 0. -1.
        -11    1    4    4    0    0 -0.16631483438E+02 -0.15613244175E+02 -0.68177140822E+01  0.23808839962E+02  0.00000000000E+00 0.  1.
         11    1    4    4    0    0  0.36916774470E+02  0.30816914893E+02  0.89376446338E+02  0.10149226395E+03  0.00000000000E+00 0. -1.
<mgrwt>
<rscale>  0 0.11825329E+03</rscale>
<asrwt>0</asrwt>
<pdfrwt beam="1">  1        2 0.31704631E-01 0.12753992E+03</pdfrwt>
<pdfrwt beam="2">  1       -2 0.94125032E-02 0.12753992E+03</pdfrwt>
<totfact> 0.11287950E+04</totfact>
</mgrwt>
</event>
<event>
 8    1  0.8504141E-006  0.1319982E+03  0.7546771E-02  0.1239047E+00
         -1   -1    0    0    0  501 -0.00000000000E+00  0.00000000000E+00  0.32804554498E+03  0.32804554498E+03  0.00000000000E+00 0.  1.
          1   -1    0    0  501    0  0.00000000000E+00 -0.00000000000E+00 -0.51530871157E+02  0.51530871157E+02  0.00000000000E+00 0. -1.
         23    2    1    2    0    0 -0.25127310076E+02  0.34175694645E+02  0.24224510228E+03  0.27587355257E+03  0.12499667042E+03 0.  0.
         23    2    1    2    0    0  0.25127310076E+02 -0.34175694645E+02  0.34269571551E+02  0.10370286357E+03  0.88207259123E+02 0.  0.
          5    1    3    3  502    0 -0.72020856347E+02  0.32893751457E+01  0.10445177574E+03  0.12700428022E+03  0.47000000000E+01 0. -1.
         -5    1    3    3    0  502  0.46893546271E+02  0.30886319499E+02  0.13779332653E+03  0.14886927235E+03  0.47000000000E+01 0. -1.
        -11    1    4    4    0    0  0.46255321540E+02 -0.28551115463E+02 -0.91189516156E+01  0.55116932457E+02  0.00000000000E+00 0. -1.
         11    1    4    4    0    0 -0.21128011464E+02 -0.56245791820E+01  0.43388523166E+02  0.48585931112E+02  0.00000000000E+00 0.  1.
<mgrwt>
<rscale>  0 0.12248870E+03</rscale>
<asrwt>0</asrwt>
<pdfrwt beam="2">  1        1 0.79278265E-02 0.13199821E+03</pdfrwt>
<pdfrwt beam="1">  1       -1 0.50468544E-01 0.13199821E+03</pdfrwt>
<totfact> 0.34120813E+03</totfact>
</mgrwt>
</event>
<event>
 8    1  0.8504141E-006  0.1455899E+03  0.7546771E-02  0.1216243E+00
         -4   -1    0    0    0  501 -0.00000000000E+00  0.00000000000E+00  0.67153308556E+02  0.67153308556E+02  0.00000000000E+00 0.  1.
          4   -1    0    0  501    0  0.00000000000E+00 -0.00000000000E+00 -0.25806538663E+03  0.25806538663E+03  0.00000000000E+00 0. -1.
         23    2    1    2    0    0 -0.34599018842E+02 -0.66125536820E+02 -0.11725381693E+03  0.18693546350E+03  0.12500692463E+03 0.  0.
         23    2    1    2    0    0  0.34599018842E+02  0.66125536820E+02 -0.73658261142E+02  0.13828323168E+03  0.90150063814E+02 0.  0.
          5    1    3    3  502    0 -0.66560564073E+02  0.10046636650E+00 -0.31246342265E+02  0.73680001956E+02  0.47000000000E+01 0. -1.
         -5    1    3    3    0  502  0.31961545231E+02 -0.66226003187E+02 -0.86007474664E+02  0.11325546154E+03  0.47000000000E+01 0. -1.
        -11    1    4    4    0    0  0.17116740814E+02  0.58077869993E+01  0.19079888815E+02  0.26282225232E+02  0.00000000000E+00 0.  1.
         11    1    4    4    0    0  0.17482278027E+02  0.60317749821E+02 -0.92738149957E+02  0.11200100645E+03  0.00000000000E+00 0. -1.
<mgrwt>
<rscale>  0 0.13785592E+03</rscale>
<asrwt>0</asrwt>
<pdfrwt beam="2">  1        4 0.39702368E-01 0.14558987E+03</pdfrwt>
<pdfrwt beam="1">  1       -4 0.10331278E-01 0.14558987E+03</pdfrwt>
<totfact> 0.74370243E+02</totfact>
</mgrwt>
</event>
<event>
 8    1  0.8504141E-006  0.1765250E+03  0.7546771E-02  0.1177294E+00
          1   -1    0    0  501    0  0.00000000000E+00  0.00000000000E+00  0.12771688782E+04  0.12771688782E+04  0.00000000000E+00 0. -1.
         -1   -1    0    0    0  501 -0.00000000000E+00 -0.00000000000E+00 -0.21434203677E+02  0.21434203677E+02  0.00000000000E+00 0.  1.
         23    2    1    2    0    0  0.11303427576E+03 -0.52533757443E+02  0.71112979397E+03  0.73271184747E+03  0.12499809749E+03 0.  0.
         23    2    1    2    0    0 -0.11303427576E+03  0.52533757443E+02  0.54460488059E+03  0.56589123445E+03  0.90010388814E+02 0.  0.
          5    1    3    3  502    0  0.11904951460E+03  0.10300962415E+01  0.41886326437E+03  0.43547947399E+03  0.47000000000E+01 0. -1.
         -5    1    3    3    0  502 -0.60152388360E+01 -0.53563853684E+02  0.29226652960E+03  0.29723237348E+03  0.47000000000E+01 0. -1.
        -11    1    4    4    0    0 -0.73665397338E+02  0.55802960805E+02  0.48915459054E+03  0.49780796965E+03  0.00000000000E+00 0. -1.
         11    1    4    4    0    0 -0.39368878426E+02 -0.32692033627E+01  0.55450290053E+02  0.68083264802E+02  0.00000000000E+00 0.  1.
<mgrwt>
<rscale>  0 0.17053240E+03</rscale>
<asrwt>0</asrwt>
<pdfrwt beam="1">  1        1 0.19648746E+00 0.17652498E+03</pdfrwt>
<pdfrwt beam="2">  1       -1 0.32975708E-02 0.17652498E+03</pdfrwt>
<totfact> 0.32947656E+03</totfact>
</mgrwt>
</event>
<event>
 8    1  0.8504141E-006  0.1911440E+03  0.7546771E-02  0.1162249E+00
         -1   -1    0    0    0  501 -0.00000000000E+00  0.00000000000E+00  0.52804810677E+02  0.52804810677E+02  0.00000000000E+00 0.  1.
          1   -1    0    0  501    0  0.00000000000E+00 -0.00000000000E+00 -0.68249698296E+03  0.68249698296E+03  0.00000000000E+00 0. -1.
         23    2    1    2    0    0 -0.10541066410E+02 -0.14422356580E+03 -0.22019006379E+03  0.29158139631E+03  0.12499798186E+03 0.  0.
         23    2    1    2    0    0  0.10541066410E+02  0.14422356580E+03 -0.40950210849E+03  0.44372039732E+03  0.91017927532E+02 0.  0.
          5    1    3    3  502    0 -0.54763836930E+02 -0.11656132702E+03 -0.19431467745E+03  0.23316497307E+03  0.47000000000E+01 0.  1.
         -5    1    3    3    0  502  0.44222770520E+02 -0.27662238775E+02 -0.25875386343E+02  0.58416423246E+02  0.47000000000E+01 0.  1.
        -11    1    4    4    0    0  0.33393572372E+02  0.61635007773E+02 -0.27845454301E+03  0.28714271257E+03  0.00000000000E+00 0. -1.
         11    1    4    4    0    0 -0.22852505962E+02  0.82588558025E+02 -0.13104756548E+03  0.15657768476E+03  0.00000000000E+00 0.  1.
<mgrwt>
<rscale>  0 0.18585988E+03</rscale>
<asrwt>0</asrwt>
<pdfrwt beam="2">  1        1 0.10499954E+00 0.19114405E+03</pdfrwt>
<pdfrwt beam="1">  1       -1 0.81238169E-02 0.19114405E+03</pdfrwt>
<totfact> 0.24379854E+03</totfact>
</mgrwt>
</event>
<event>
 8    1  0.8504141E-006  0.1410215E+03  0.7546771E-02  0.1222293E+00
          1   -1    0    0  501    0  0.00000000000E+00  0.00000000000E+00  0.65248387887E+03  0.65248387887E+03  0.00000000000E+00 0. -1.
         -1   -1    0    0    0  501 -0.00000000000E+00 -0.00000000000E+00 -0.24904478587E+02  0.24904478587E+02  0.00000000000E+00 0.  1.
         23    2    1    2    0    0 -0.33670734187E+02 -0.55945825036E+02  0.32607420702E+03  0.35526251841E+03  0.12499365913E+03 0.  0.
         23    2    1    2    0    0  0.33670734187E+02  0.55945825036E+02  0.30150519326E+03  0.32212583905E+03  0.92714728809E+02 0.  0.
          5    1    3    3  502    0 -0.36604179893E+01 -0.92801470428E+02  0.20484950599E+03  0.22496871266E+03  0.47000000000E+01 0. -1.
         -5    1    3    3    0  502 -0.30010316198E+02  0.36855645392E+02  0.12122470104E+03  0.13029380575E+03  0.47000000000E+01 0. -1.
        -11    1    4    4    0    0  0.51856276789E+02  0.52667070672E+02  0.29226431931E+03  0.30146529837E+03  0.00000000000E+00 0. -1.
         11    1    4    4    0    0 -0.18185542601E+02  0.32787543631E+01  0.92408739494E+01  0.20660540681E+02  0.00000000000E+00 0.  1.
<mgrwt>
<rscale>  0 0.13354197E+03</rscale>
<asrwt>0</asrwt>
<pdfrwt beam="1">  1        1 0.10038212E+00 0.14102152E+03</pdfrwt>
<pdfrwt beam="2">  1       -1 0.38314587E-02 0.14102152E+03</pdfrwt>
<totfact> 0.78840198E+03</totfact>
</mgrwt>
</event>
<event>
 8    1  0.8504141E-006  0.1550527E+03  0.7546771E-02  0.1202565E+00
          2   -1    0    0  501    0  0.00000000000E+00  0.00000000000E+00  0.95325045549E+02  0.95325045549E+02  0.00000000000E+00 0. -1.
         -2   -1    0    0    0  501 -0.00000000000E+00 -0.00000000000E+00 -0.21430975593E+03  0.21430975593E+03  0.00000000000E+00 0.  1.
         23    2    1    2    0    0 -0.76902203084E+02 -0.50023698461E+02 -0.77730834257E+02  0.17344574221E+03  0.12500009460E+03 0.  0.
         23    2    1    2    0    0  0.76902203084E+02  0.50023698461E+02 -0.41253876119E+02  0.13618905927E+03  0.91810992383E+02 0.  0.
          5    1    3    3  502    0 -0.11782218222E+02 -0.67960945162E+02 -0.79956377792E+02  0.10570062953E+03  0.47000000000E+01 0. -1.
         -5    1    3    3    0  502 -0.65119984862E+02  0.17937246701E+02  0.22255435351E+01  0.67745112677E+02  0.47000000000E+01 0. -1.
        -11    1    4    4    0    0 -0.17829110933E+02  0.23789765548E+02 -0.19379233941E+02  0.35487812691E+02  0.00000000000E+00 0.  1.
         11    1    4    4    0    0  0.94731314017E+02  0.26233932914E+02 -0.21874642178E+02  0.10070124658E+03  0.00000000000E+00 0. -1.
<mgrwt>
<rscale>  0 0.14830994E+03</rscale>
<asrwt>0</asrwt>
<pdfrwt beam="1">  1        2 0.14665392E-01 0.15505271E+03</pdfrwt>
<pdfrwt beam="2">  1       -2 0.32970731E-01 0.15505271E+03</pdfrwt>
<totfact> 0.33273866E+03</totfact>
</mgrwt>
</event>
<event>
 8    1  0.8504141E-006  0.1381381E+03  0.7546771E-02  0.1227324E+00
         -1   -1    0    0    0  501 -0.00000000000E+00  0.00000000000E+00  0.26977552325E+02  0.26977552325E+02  0.00000000000E+00 0.  1.
          1   -1    0    0  501    0  0.00000000000E+00 -0.00000000000E+00 -0.63746763274E+03  0.63746763274E+03  0.00000000000E+00 0. -1.
         23    2    1    2    0    0 -0.22697827138E+02  0.54230895262E+02 -0.22576645405E+03  0.26467458212E+03  0.12500384508E+03 0.  0.
         23    2    1    2    0    0  0.22697827138E+02 -0.54230895262E+02 -0.38472362636E+03  0.39977060295E+03  0.91367855085E+02 0.  0.
          5    1    3    3  502    0 -0.66586250667E+02  0.58005017705E+02 -0.18227048984E+03  0.20259055339E+03  0.47000000000E+01 0.  1.
         -5    1    3    3    0  502  0.43888423529E+02 -0.37741224438E+01 -0.43495964214E+02  0.62084028727E+02  0.47000000000E+01 0.  1.
        -11    1    4    4    0    0 -0.75333146698E+01 -0.71989780532E+02 -0.22984809014E+03  0.24097598194E+03  0.00000000000E+00 0.  1.
         11    1    4    4    0    0  0.30231141808E+02  0.17758885271E+02 -0.15487553622E+03  0.15879462100E+03  0.00000000000E+00 0. -1.
<mgrwt>
<rscale>  0 0.13008884E+03</rscale>
<asrwt>0</asrwt>
<pdfrwt beam="2">  1        1 0.98071935E-01 0.13813813E+03</pdfrwt>
<pdfrwt beam="1">  1       -1 0.41503930E-02 0.13813813E+03</pdfrwt>
<totfact> 0.72325511E+03</totfact>
</mgrwt>
</event>
<event>
 8    1  0.8504141E-006  0.1298410E+03  0.7546771E-02  0.1242746E+00
         -4   -1    0    0    0  501 -0.00000000000E+00  0.00000000000E+00  0.26422752611E+03  0.26422752611E+03  0.00000000000E+00 0.  1.
          4   -1    0    0  501    0  0.00000000000E+00 -0.00000000000E+00 -0.49327109314E+02  0.49327109314E+02  0.00000000000E+00 0. -1.
         23    2    1    2    0    0 -0.23954574193E+02 -0.25710962953E+02  0.14882245200E+03  0.19750143964E+03  0.12499528472E+03 0.  0.
         23    2    1    2    0    0  0.23954574193E+02  0.25710962953E+02  0.66077964800E+02  0.11605319578E+03  0.88697077623E+02 0.  0.
          5    1    3    3  502    0 -0.55919385211E+02 -0.45700416358E+02  0.14132315472E+03  0.15877603647E+03  0.47000000000E+01 0.  1.
         -5    1    3    3    0  502  0.31964811018E+02  0.19989453404E+02  0.74992972731E+01  0.38725403166E+02  0.47000000000E+01 0.  1.
        -11    1    4    4    0    0  0.34390757938E+01  0.31425563143E+02 -0.12982139137E+02  0.34174979118E+02  0.00000000000E+00 0. -1.
         11    1    4    4    0    0  0.20515498399E+02 -0.57146001891E+01  0.79060103937E+02  0.81878216666E+02  0.00000000000E+00 0.  1.
<mgrwt>
<rscale>  0 0.12021298E+03</rscale>
<asrwt>0</asrwt>
<pdfrwt beam="2">  1        4 0.75887862E-02 0.12984104E+03</pdfrwt>
<pdfrwt beam="1">  1       -4 0.40650388E-01 0.12984104E+03</pdfrwt>
<totfact> 0.11606803E+03</totfact>
</mgrwt>
</event>
<event>
 8    1  0.8504141E-006  0.1303445E+03  0.7546771E-02  0.1240300E+00
         -1   -1    0    0    0  501 -0.00000000000E+00  0.00000000000E+00  0.13562198017E+02  0.13562198017E+02  0.00000000000E+00 0.  1.
          1   -1    0    0  501    0  0.00000000000E+00 -0.00000000000E+00 -0.97215934088E+03  0.97215934088E+03  0.00000000000E+00 0. -1.
         23    2    1    2    0    0  0.36606406864E+02 -0.56239278206E+01 -0.56536461547E+03  0.58019551077E+03  0.12497209571E+03 0.  0.
         23    2    1    2    0    0 -0.36606406864E+02  0.56239278206E+01 -0.39323252739E+03  0.40552602813E+03  0.91912356627E+02 0.  0.
          5    1    3    3  502    0  0.73336186447E+02  0.22968311583E+02 -0.25644091102E+03  0.26774945457E+03  0.47000000000E+01 0.  1.
         -5    1    3    3    0  502 -0.36729779583E+02 -0.28592239404E+02 -0.30892370445E+03  0.31244605619E+03  0.47000000000E+01 0.  1.
        -11    1    4    4    0    0 -0.59666814826E+02  0.26447511840E+02 -0.21799700519E+03  0.22755723224E+03  0.00000000000E+00 0.  1.
         11    1    4    4    0    0  0.23060407962E+02 -0.20823584019E+02 -0.17523552220E+03  0.17796879588E+03  0.00000000000E+00 0. -1.
<mgrwt>
<rscale>  0 0.12171129E+03</rscale>
<asrwt>0</asrwt>
<pdfrwt beam="2">  1        1 0.14956300E+00 0.13034448E+03</pdfrwt>
<pdfrwt beam="1">  1       -1 0.20864917E-02 0.13034448E+03</pdfrwt>
<totfact> 0.10395049E+04</totfact>
</mgrwt>
</event>
<event>
 8    1  0.8504141E-006  0.2300826E+03  0.7546771E-02  0.1129499E+00
         -3   -1    0    0    0  501 -0.00000000000E+00  0.00000000000E+00  0.45886053716E+03  0.45886053716E+03  0.00000000000E+00 0.  1.
          3   -1    0    0  501    0  0.00000000000E+00 -0.00000000000E+00 -0.11181999177E+03  0.11181999177E+03  0.00000000000E+00 0. -1.
         23    2    1    2    0    0  0.35682001687E+02 -0.18984064727E+03  0.23554824242E+03  0.32927343379E+03  0.12500137237E+03 0.  0.
         23    2    1    2    0    0 -0.35682001687E+02  0.18984064727E+03  0.11149230297E+03  0.24140709513E+03  0.92380600555E+02 0.  0.
          5    1    3    3  502    0  0.50197357352E+02 -0.85434267395E+02  0.39779238598E+02  0.10687968261E+03  0.47000000000E+01 0.  1.
         -5    1    3    3    0  502 -0.14515355666E+02 -0.10440637987E+03  0.19576900383E+03  0.22239375119E+03  0.47000000000E+01 0.  1.
        -11    1    4    4    0    0 -0.54872446408E+02  0.72222234020E+02  0.72175941824E+02  0.11591549957E+03  0.00000000000E+00 0. -1.
         11    1    4    4    0    0  0.19190444722E+02  0.11761841325E+03  0.39316361148E+02  0.12549159557E+03  0.00000000000E+00 0.  1.
<mgrwt>
<rscale>  0 0.22598342E+03</rscale>
<asrwt>0</asrwt>
<pdfrwt beam="2">  1        3 0.17203076E-01 0.23008264E+03</pdfrwt>
<pdfrwt beam="1">  1       -3 0.70593928E-01 0.23008264E+03</pdfrwt>
<totfact> 0.14148378E+02</totfact>
</mgrwt>
</event>
<event>
 8    1  0.8504141E-006  0.1871305E+03  0.7546771E-02  0.1165998E+00
          2   -1    0    0  501    0  0.00000000000E+00  0.00000000000E+00  0.18011190689E+03  0.18011190689E+03  0.00000000000E+00 0.  1.
         -2   -1    0    0    0  501 -0.00000000000E+00 -0.00000000000E+00 -0.18080184635E+03  0.18080184635E+03  0.00000000000E+00 0. -1.
         23    2    1    2    0    0  0.93269001776E+02  0.10342628737E+03 -0.35164171671E+02  0.19040575624E+03  0.12498691703E+03 0.  0.
         23    2    1    2    0    0 -0.93269001776E+02 -0.10342628737E+03  0.34474232205E+02  0.17050799699E+03  0.92132517283E+02 0.  0.
          5    1    3    3  502    0 -0.25473733071E+02 -0.27752158077E+01  0.38218893592E+01  0.26330775484E+02  0.47000000000E+01 0. -1.
         -5    1    3    3    0  502  0.11874273485E+03  0.10620150318E+03 -0.38986061030E+02  0.16407498076E+03  0.47000000000E+01 0. -1.
        -11    1    4    4    0    0 -0.11197942874E+02 -0.67325750967E+02  0.42642214589E+02  0.80476761446E+02  0.00000000000E+00 0.  1.
         11    1    4    4    0    0 -0.82071058902E+02 -0.36100536407E+02 -0.81679823840E+01  0.90031235549E+02  0.00000000000E+00 0. -1.
<mgrwt>
<rscale>  0 0.18187744E+03</rscale>
<asrwt>0</asrwt>
<pdfrwt beam="1">  1        2 0.27709524E-01 0.18713052E+03</pdfrwt>
<pdfrwt beam="2">  1       -2 0.27815668E-01 0.18713052E+03</pdfrwt>
<totfact> 0.22129827E+03</totfact>
</mgrwt>
</event>
<event>
 8    1  0.8504141E-006  0.1251003E+03  0.7546771E-02  0.1246911E+00
          2   -1    0    0  501    0  0.00000000000E+00  0.00000000000E+00  0.49316518107E+03  0.49316518107E+03  0.00000000000E+00 0. -1.
         -2   -1    0    0    0  501 -0.00000000000E+00 -0.00000000000E+00 -0.28205900282E+02  0.28205900282E+02  0.00000000000E+00 0.  1.
         23    2    1    2    0    0  0.11886621433E+01  0.48732361022E+01  0.17384033795E+03  0.21417413156E+03  0.12499973673E+03 0.  0.
         23    2    1    2    0    0 -0.11886621433E+01 -0.48732361022E+01  0.29111894284E+03  0.30719694979E+03  0.97951854166E+02 0.  0.
          5    1    3    3  502    0  0.47969026755E+02  0.39654440401E+02  0.62049251588E+02  0.88009668753E+02  0.47000000000E+01 0.  1.
         -5    1    3    3    0  502 -0.46780364612E+02 -0.34781204299E+02  0.11179108636E+03  0.12616446281E+03  0.47000000000E+01 0.  1.
        -11    1    4    4    0    0  0.36239954951E+02  0.28878897030E+02  0.11432072577E+03  0.12335539457E+03  0.00000000000E+00 0.  1.
         11    1    4    4    0    0 -0.37428617094E+02 -0.33752133132E+02  0.17679821707E+03  0.18384155523E+03  0.00000000000E+00 0. -1.
<mgrwt>
<rscale>  0 0.11771701E+03</rscale>
<asrwt>0</asrwt>
<pdfrwt beam="1">  1        2 0.75871560E-01 0.12510034E+03</pdfrwt>
<pdfrwt beam="2">  1       -2 0.43393696E-02 0.12510034E+03</pdfrwt>
<totfact> 0.14435072E+04</totfact>
</mgrwt>
</event>
<event>
 7    1  0.8504141E-006  0.1551503E+03  0.7546771E-02  0.1205856E+00
         -1   -1    0    0    0  501 -0.00000000000E+00  0.00000000000E+00  0.49015769302E+03  0.49015769302E+03  0.00000000000E+00 0.  1.
          1   -1    0    0  501    0  0.00000000000E+00 -0.00000000000E+00 -0.10083748917E+03  0.10083748917E+03  0.00000000000E+00 0. -1.
         23    2    1    2    0    0 -0.76340849946E+02  0.16595956430E+02 -0.45776747162E+02  0.12906338786E+03  0.91970084075E+02 0.  0.
          5    1    1    2  502    0  0.20272451876E+02  0.56761113700E+02  0.21163963132E+03  0.22010502011E+03  0.47000000000E+01 0. -1.
         -5    1    1    2    0  502  0.56068398070E+02 -0.73357070130E+02  0.22345731970E+03  0.24182677421E+03  0.47000000000E+01 0.  1.
        -11    1    3    3    0    0 -0.18658774794E+02  0.43961225565E+02 -0.44394296103E+02  0.65204238793E+02  0.00000000000E+00 0.  1.
         11    1    3    3    0    0 -0.57682075152E+02 -0.27365269135E+02 -0.13824510590E+01  0.63859149067E+02  0.00000000000E+00 0. -1.
<mgrwt>
<rscale>  0 0.14570236E+03</rscale>
<asrwt>0</asrwt>
<pdfrwt beam="2">  1        1 0.15513460E-01 0.15515033E+03</pdfrwt>
<pdfrwt beam="1">  1       -1 0.75408875E-01 0.15515033E+03</pdfrwt>
<totfact> 0.65508793E+02</totfact>
</mgrwt>
</event>
<event>
 8    1  0.8504141E-006  0.1300504E+03  0.7546771E-02  0.1240941E+00
         -2   -1    0    0    0  501 -0.00000000000E+00  0.00000000000E+00  0.28831769755E+02  0.28831769755E+02  0.00000000000E+00 0.  1.
          2   -1    0    0  501    0  0.00000000000E+00 -0.00000000000E+00 -0.52894651829E+03  0.52894651829E+03  0.00000000000E+00 0. -1.
         23    2    1    2    0    0  0.15940680474E+02  0.32106926526E+02 -0.17471721478E+03  0.21780545720E+03  0.12501260745E+03 0.  0.
         23    2    1    2    0    0 -0.15940680474E+02 -0.32106926526E+02 -0.32539753376E+03  0.33997283085E+03  0.91722465692E+02 0.  0.
          5    1    3    3  502    0 -0.11826123027E+02 -0.40685117400E+02 -0.10433727294E+03  0.11270977105E+03  0.47000000000E+01 0. -1.
         -5    1    3    3    0  502  0.27766803501E+02  0.72792043926E+02 -0.70379941831E+02  0.10509568615E+03  0.47000000000E+01 0. -1.
        -11    1    4    4    0    0 -0.52532860820E+02 -0.87501338149E+01 -0.14638265460E+03  0.15576953449E+03  0.00000000000E+00 0. -1.
         11    1    4    4    0    0  0.36592180345E+02 -0.23356792711E+02 -0.17901487916E+03  0.18420329635E+03  0.00000000000E+00 0.  1.
<mgrwt>
<rscale>  0 0.12131624E+03</rscale>
<asrwt>0</asrwt>
<pdfrwt beam="2">  1        2 0.81376387E-01 0.13005042E+03</pdfrwt>
<pdfrwt beam="1">  1       -2 0.44356569E-02 0.13005042E+03</pdfrwt>
<totfact> 0.12975042E+04</totfact>
</mgrwt>
</event>
<event>
 8    1  0.8504141E-006  0.1306562E+03  0.7546771E-02  0.1238819E+00
          2   -1    0    0  501    0  0.00000000000E+00  0.00000000000E+00  0.19468852334E+03  0.19468852334E+03  0.00000000000E+00 0. -1.
         -2   -1    0    0    0  501 -0.00000000000E+00 -0.00000000000E+00 -0.77968246844E+02  0.77968246844E+02  0.00000000000E+00 0.  1.
         23    2    1    2    0    0 -0.22367927704E+02  0.30737213362E+02  0.19350398891E+02  0.13208131787E+03  0.12500374441E+03 0.  0.
         23    2    1    2    0    0  0.22367927704E+02 -0.30737213362E+02  0.97369877606E+02  0.14057545232E+03  0.93997150247E+02 0.  0.
          5    1    3    3  502    0 -0.20746287134E+02  0.10042570178E+02  0.71758793590E+02  0.75516065198E+02  0.47000000000E+01 0.  1.
         -5    1    3    3    0  502 -0.16216405707E+01  0.20694643184E+02 -0.52408394698E+02  0.56565252669E+02  0.47000000000E+01 0.  1.
        -11    1    4    4    0    0  0.97036189407E+01  0.59932192827E+01 -0.16613928247E+02  0.20151960443E+02  0.00000000000E+00 0.  1.
         11    1    4    4    0    0  0.12664308764E+02 -0.36730432645E+02  0.11398380585E+03  0.12042349188E+03  0.00000000000E+00 0. -1.
<mgrwt>
<rscale>  0 0.12263081E+03</rscale>
<asrwt>0</asrwt>
<pdfrwt beam="1">  1        2 0.29952080E-01 0.13065618E+03</pdfrwt>
<pdfrwt beam="2">  1       -2 0.11995115E-01 0.13065618E+03</pdfrwt>
<totfact> 0.82030479E+03</totfact>
</mgrwt>
</event>
<event>
 8    1  0.8504141E-006  0.1342301E+03  0.7546771E-02  0.1232738E+00
         -1   -1    0    0    0  501 -0.00000000000E+00  0.00000000000E+00  0.56564794451E+02  0.56564794451E+02  0.00000000000E+00 0.  1.
          1   -1    0    0  501    0  0.00000000000E+00 -0.00000000000E+00 -0.25630641670E+03  0.25630641670E+03  0.00000000000E+00 0. -1.
         23    2    1    2    0    0 -0.28895303164E+02 -0.39481464942E+02 -0.12336366480E+03  0.18230826132E+03  0.12499593487E+03 0.  0.
         23    2    1    2    0    0  0.28895303164E+02  0.39481464942E+02 -0.76377957449E+02  0.13056294983E+03  0.93911484205E+02 0.  0.
          5    1    3    3  502    0 -0.41859399649E+02 -0.33283503857E+02 -0.14573425675E+03  0.15530796682E+03  0.47000000000E+01 0. -1.
         -5    1    3    3    0  502  0.12964096485E+02 -0.61979610842E+01  0.22370591944E+02  0.27000294503E+02  0.47000000000E+01 0. -1.
        -11    1    4    4    0    0 -0.29435079399E+02 -0.30755427796E+01 -0.69633408709E+01  0.30403469846E+02  0.00000000000E+00 0.  1.
         11    1    4    4    0    0  0.58330382563E+02  0.42557007721E+02 -0.69414616578E+02  0.10015947998E+03  0.00000000000E+00 0. -1.
<mgrwt>
<rscale>  0 0.12650363E+03</rscale>
<asrwt>0</asrwt>
<pdfrwt beam="2">  1        1 0.39431756E-01 0.13423006E+03</pdfrwt>
<pdfrwt beam="1">  1       -1 0.87022761E-02 0.13423006E+03</pdfrwt>
<totfact> 0.76759184E+03</totfact>
</mgrwt>
</event>
<event>
 8    1  0.8504141E-006  0.1162747E+03  0.7546771E-02  0.1259293E+00
         -1   -1    0    0    0  501 -0.00000000000E+00  0.00000000000E+00  0.32401218768E+02  0.32401218768E+02  0.00000000000E+00 0.  1.
          1   -1    0    0  501    0  0.00000000000E+00 -0.00000000000E+00 -0.34613392447E+03  0.34613392447E+03  0.00000000000E+00 0. -1.
         23    2    1    2    0    0 -0.10299827177E+02 -0.25944206233E+01 -0.16931246240E+03  0.20539354893E+03  0.11578852516E+03 0.  0.
         23    2    1    2    0    0  0.10299827177E+02  0.25944206233E+01 -0.14442024331E+03  0.17314159431E+03  0.94910418531E+02 0.  0.
          5    1    3    3  502    0 -0.28120722956E+02  0.41378025984E+02 -0.14158753177E+03  0.15023992561E+03  0.47000000000E+01 0. -1.
         -5    1    3    3    0  502  0.17820895779E+02 -0.43972446607E+02 -0.27724930625E+02  0.55153623318E+02  0.47000000000E+01 0.  1.
        -11    1    4    4    0    0 -0.27627977585E+02 -0.20772561920E+02 -0.17731138339E+02  0.38848394316E+02  0.00000000000E+00 0.  1.
         11    1    4    4    0    0  0.37927804762E+02  0.23366982543E+02 -0.12668910497E+03  0.13429320000E+03  0.00000000000E+00 0. -1.
<mgrwt>
<rscale>  0 0.11069245E+03</rscale>
<asrwt>0</asrwt>
<pdfrwt beam="2">  1        1 0.53251374E-01 0.11627467E+03</pdfrwt>
<pdfrwt beam="1">  1       -1 0.49848028E-02 0.11627467E+03</pdfrwt>
<totfact> 0.12032013E+04</totfact>
</mgrwt>
</event>
<event>
 8    1  0.8504141E-006  0.1715690E+03  0.7546771E-02  0.1182279E+00
         -1   -1    0    0    0  501 -0.00000000000E+00  0.00000000000E+00  0.94102114453E+03  0.94102114453E+03  0.00000000000E+00 0.  1.
          1   -1    0    0  501    0  0.00000000000E+00 -0.00000000000E+00 -0.38064335205E+02  0.38064335205E+02  0.00000000000E+00 0. -1.
         23    2    1    2    0    0  0.11706330091E+03  0.10328250187E+02  0.73204488509E+03  0.75188140612E+03  0.12500178360E+03 0.  0.
         23    2    1    2    0    0 -0.11706330091E+03 -0.10328250187E+02  0.17091192423E+03  0.22720407362E+03  0.92737888977E+02 0.  0.
          5    1    3    3  502    0  0.99443119800E+02  0.49025924984E+02  0.64947861776E+03  0.65889076509E+03  0.47000000000E+01 0. -1.
         -5    1    3    3    0  502  0.17620181110E+02 -0.38697674798E+02  0.82566267331E+02  0.92990641024E+02  0.47000000000E+01 0. -1.
        -11    1    4    4    0    0 -0.40056893624E+02 -0.45628032093E+02  0.98753882387E+02  0.11592584408E+03  0.00000000000E+00 0.  1.
         11    1    4    4    0    0 -0.77006407286E+02  0.35299781907E+02  0.72158041845E+02  0.11127822954E+03  0.00000000000E+00 0. -1.
<mgrwt>
<rscale>  0 0.16581979E+03</rscale>
<asrwt>0</asrwt>
<pdfrwt beam="2">  1        1 0.58560522E-02 0.17156904E+03</pdfrwt>
<pdfrwt beam="1">  1       -1 0.14477247E+00 0.17156904E+03</pdfrwt>
<totfact> 0.55227833E+02</totfact>
</mgrwt>
</event>
<event>
 8    1  0.8504141E-006  0.1332995E+03  0.7546771E-02  0.1235190E+00
         -2   -1    0    0    0  501 -0.00000000000E+00  0.00000000000E+00  0.10516292304E+03  0.10516292304E+03  0.00000000000E+00 0.  1.
          2   -1    0    0  501    0  0.00000000000E+00 -0.00000000000E+00 -0.15207571649E+03  0.15207571649E+03  0.00000000000E+00 0. -1.
         23    2    1    2    0    0  0.34831823420E+02  0.30513001147E+02  0.19667830754E+02  0.13474268271E+03  0.12499787125E+03 0.  0.
         23    2    1    2    0    0 -0.34831823420E+02 -0.30513001147E+02 -0.66580624201E+02  0.12249595681E+03  0.91804034524E+02 0.  0.
          5    1    3    3  502    0 -0.38274104165E+02  0.36729057480E+02 -0.12166367933E+02  0.54626378442E+02  0.47000000000E+01 0.  1.
         -5    1    3    3    0  502  0.73105927584E+02 -0.62160563334E+01  0.31834198687E+02  0.80116304273E+02  0.47000000000E+01 0.  1.
        -11    1    4    4    0    0  0.39628041191E+00  0.12974863316E+02 -0.65234603545E+02  0.66513589709E+02  0.00000000000E+00 0. -1.
         11    1    4    4    0    0 -0.35228103832E+02 -0.43487864463E+02 -0.13460206559E+01  0.55982367105E+02  0.00000000000E+00 0.  1.
<mgrwt>
<rscale>  0 0.12492305E+03</rscale>
<asrwt>0</asrwt>
<pdfrwt beam="2">  1        2 0.23396264E-01 0.13329954E+03</pdfrwt>
<pdfrwt beam="1">  1       -2 0.16178911E-01 0.13329954E+03</pdfrwt>
<totfact> 0.66313809E+03</totfact>
</mgrwt>
</event>
<event>
 8    1  0.8504141E-006  0.1302067E+03  0.7546771E-02  0.1241811E+00
          2   -1    0    0  501    0  0.00000000000E+00  0.00000000000E+00  0.28056952810E+03  0.28056952810E+03  0.00000000000E+00 0. -1.
         -2   -1    0    0    0  501 -0.00000000000E+00 -0.00000000000E+00 -0.48866744670E+02  0.48866744670E+02  0.00000000000E+00 0.  1.
         23    2    1    2    0    0 -0.35976583540E+02  0.59074979309E+01  0.90930914794E+02  0.15881505918E+03  0.12499831464E+03 0.  0.
         23    2    1    2    0    0  0.35976583540E+02 -0.59074979309E+01  0.14077186864E+03  0.17062121359E+03  0.89250582256E+02 0.  0.
          5    1    3    3  502    0 -0.81978989439E+02  0.36245665900E+01  0.70182059660E+02  0.10808007999E+03  0.47000000000E+01 0. -1.
         -5    1    3    3    0  502  0.46002405899E+02  0.22829313409E+01  0.20748855134E+02  0.50734979190E+02  0.47000000000E+01 0. -1.
        -11    1    4    4    0    0  0.45819072519E+02 -0.21226342033E+02  0.30792903228E+02  0.59145142588E+02  0.00000000000E+00 0.  1.
         11    1    4    4    0    0 -0.98424889786E+01  0.15318844102E+02  0.10997896541E+03  0.11147607101E+03  0.00000000000E+00 0. -1.
<mgrwt>
<rscale>  0 0.12078292E+03</rscale>
<asrwt>0</asrwt>
<pdfrwt beam="1">  1        2 0.43164542E-01 0.13020673E+03</pdfrwt>
<pdfrwt beam="2">  1       -2 0.75179609E-02 0.13020673E+03</pdfrwt>
<totfact> 0.11523307E+04</totfact>
</mgrwt>
</event>
<event>
 7    1  0.8504141E-006  0.1761841E+03  0.7546771E-02  0.1186104E+00
         -1   -1    0    0    0  501 -0.00000000000E+00  0.00000000000E+00  0.11567340134E+03  0.11567340134E+03  0.00000000000E+00 0.  1.
          1   -1    0    0  501    0  0.00000000000E+00 -0.00000000000E+00 -0.33386195346E+03  0.33386195346E+03  0.00000000000E+00 0. -1.
         23    2    1    2    0    0 -0.86358244440E+02 -0.32017528835E+01 -0.24050287864E+03  0.27194376110E+03  0.92971914897E+02 0.  0.
          5    1    1    2  502    0 -0.21946897690E+02 -0.28575607999E+02 -0.35403945641E+02  0.50732248695E+02  0.47000000000E+01 0. -1.
         -5    1    1    2    0  502  0.10830514213E+03  0.31777360883E+02  0.57718272160E+02  0.12685934501E+03  0.47000000000E+01 0.  1.
        -11    1    3    3    0    0  0.61805605436E+01 -0.28182338073E+02 -0.36346131606E+02  0.46405654726E+02  0.00000000000E+00 0.  1.
         11    1    3    3    0    0 -0.92538804984E+02  0.24980585190E+02 -0.20415674704E+03  0.22553810637E+03  0.00000000000E+00 0. -1.
<mgrwt>
<rscale>  0 0.16231849E+03</rscale>
<asrwt>0</asrwt>
<pdfrwt beam="2">  1        1 0.51363377E-01 0.17618412E+03</pdfrwt>
<pdfrwt beam="1">  1       -1 0.17795908E-01 0.17618412E+03</pdfrwt>
<totfact> 0.18430664E+03</totfact>
</mgrwt>
</event>
<event>
 8    1  0.8504141E-006  0.2940037E+03  0.7546771E-02  0.1089936E+00
         -3   -1    0    0    0  501 -0.00000000000E+00  0.00000000000E+00  0.44198503040E+03  0.44198503040E+03  0.00000000000E+00 0.  1.
          3   -1    0    0  501    0  0.00000000000E+00 -0.00000000000E+00 -0.20945966446E+03  0.20945966446E+03  0.00000000000E+00 0. -1.
         23    2    1    2    0    0 -0.16482232188E+03 -0.20893360236E+03  0.22457135378E+03  0.36996010245E+03  0.12497414324E+03 0.  0.
         23    2    1    2    0    0  0.16482232188E+03  0.20893360236E+03  0.79540121599E+01  0.28148459241E+03  0.91381953741E+02 0.  0.
          5    1    3    3  502    0 -0.14032907957E+03 -0.18572064332E+03  0.12402254589E+03  0.26379554549E+03  0.47000000000E+01 0.  1.
         -5    1    3    3    0  502 -0.24493242302E+02 -0.23212959044E+02  0.10054880789E+03  0.10616455696E+03  0.47000000000E+01 0.  1.
        -11    1    4    4    0    0  0.95034637352E+02  0.85851548887E+02  0.44099192108E+02  0.13545039493E+03  0.00000000000E+00 0.  1.
         11    1    4    4    0    0  0.69787684523E+02  0.12308205348E+03 -0.36145179948E+02  0.14603419748E+03  0.00000000000E+00 0. -1.
<mgrwt>
<rscale>  0 0.29079364E+03</rscale>
<asrwt>0</asrwt>
<pdfrwt beam="2">  1        3 0.32224564E-01 0.29400372E+03</pdfrwt>
<pdfrwt beam="1">  1       -3 0.67997697E-01 0.29400372E+03</pdfrwt>
<totfact> 0.49822416E+01</totfact>
</mgrwt>
</event>
<event>
 8    1  0.8504141E-006  0.1845964E+03  0.7546771E-02  0.1168799E+00
         -1   -1    0    0    0  501 -0.00000000000E+00  0.00000000000E+00  0.55413341669E+02  0.55413341669E+02  0.00000000000E+00 0.  1.
          1   -1    0    0  501    0  0.00000000000E+00 -0.00000000000E+00 -0.69130986873E+03  0.69130986873E+03  0.00000000000E+00 0. -1.
         23    2    1    2    0    0  0.12846975542E+03 -0.44120241445E+02 -0.16221257682E+03  0.24574123534E+03  0.12499904361E+03 0.  0.
         23    2    1    2    0    0 -0.12846975542E+03  0.44120241445E+02 -0.47368395024E+03  0.50098197506E+03  0.90307147316E+02 0.  0.
          5    1    3    3  502    0  0.48779623734E+02  0.29597992885E+02 -0.11254207389E+03  0.12626678609E+03  0.47000000000E+01 0. -1.
         -5    1    3    3    0  502  0.79690131691E+02 -0.73718234330E+02 -0.49670502934E+02  0.11947444925E+03  0.47000000000E+01 0. -1.
        -11    1    4    4    0    0 -0.70540273975E+02  0.14704041470E+02 -0.10972531007E+03  0.13126988519E+03  0.00000000000E+00 0. -1.
         11    1    4    4    0    0 -0.57929481450E+02  0.29416199975E+02 -0.36395864016E+03  0.36971208986E+03  0.00000000000E+00 0.  1.
<mgrwt>
<rscale>  0 0.17897436E+03</rscale>
<asrwt>0</asrwt>
<pdfrwt beam="2">  1        1 0.10635537E+00 0.18459641E+03</pdfrwt>
<pdfrwt beam="1">  1       -1 0.85251292E-02 0.18459641E+03</pdfrwt>
<totfact> 0.22221465E+03</totfact>
</mgrwt>
</event>
<event>
 8    1  0.8504141E-006  0.1333478E+03  0.7546771E-02  0.1234155E+00
         -2   -1    0    0    0  501 -0.00000000000E+00  0.00000000000E+00  0.22030106106E+02  0.22030106106E+02  0.00000000000E+00 0.  1.
          2   -1    0    0  501    0  0.00000000000E+00 -0.00000000000E+00 -0.64581706770E+03  0.64581706770E+03  0.00000000000E+00 0. -1.
         23    2    1    2    0    0  0.92688523120E+01  0.45497940421E+02 -0.33243767581E+03  0.35818493381E+03  0.12500265720E+03 0.  0.
         23    2    1    2    0    0 -0.92688523120E+01 -0.45497940421E+02 -0.29134928579E+03  0.30966223999E+03  0.94076151833E+02 0.  0.
          5    1    3    3  502    0 -0.82624931823E+01  0.46646461832E+02 -0.32373023248E+02  0.57569643296E+02  0.47000000000E+01 0.  1.
         -5    1    3    3    0  502  0.17531345494E+02 -0.11485214114E+01 -0.30006465256E+03  0.30061529052E+03  0.47000000000E+01 0.  1.
        -11    1    4    4    0    0 -0.24939464335E+02 -0.68343854590E+02 -0.16525495977E+03  0.18056040837E+03  0.00000000000E+00 0.  1.
         11    1    4    4    0    0  0.15670612023E+02  0.22845914170E+02 -0.12609432602E+03  0.12910183162E+03  0.00000000000E+00 0. -1.
<mgrwt>
<rscale>  0 0.12558697E+03</rscale>
<asrwt>0</asrwt>
<pdfrwt beam="2">  1        2 0.99356460E-01 0.13334781E+03</pdfrwt>
<pdfrwt beam="1">  1       -2 0.33892475E-02 0.13334781E+03</pdfrwt>
<totfact> 0.15460686E+04</totfact>
</mgrwt>
</event>
<event>
 8    1  0.8504141E-006  0.1558258E+03  0.7546771E-02  0.1201328E+00
         -2   -1    0    0    0  501 -0.00000000000E+00  0.00000000000E+00  0.67175524363E+02  0.67175524363E+02  0.00000000000E+00 0.  1.
          2   -1    0    0  501    0  0.00000000000E+00 -0.00000000000E+00 -0.34974640480E+03  0.34974640480E+03  0.00000000000E+00 0. -1.
         23    2    1    2    0    0 -0.18570578943E+02 -0.91172994217E+02 -0.79121974790E+02  0.17476258606E+03  0.12499717323E+03 0.  0.
         23    2    1    2    0    0  0.18570578943E+02  0.91172994217E+02 -0.20344890565E+03  0.24215934310E+03  0.92694708396E+02 0.  0.
          5    1    3    3  502    0 -0.69788988663E+02 -0.65859448697E+02 -0.34364625108E+02  0.10203424611E+03  0.47000000000E+01 0.  1.
         -5    1    3    3    0  502  0.51218409720E+02 -0.25313545520E+02 -0.44757349682E+02  0.72728339948E+02  0.47000000000E+01 0.  1.
        -11    1    4    4    0    0 -0.33477529238E+02  0.17588568652E+02 -0.37181362256E+02  0.53033540428E+02  0.00000000000E+00 0.  1.
         11    1    4    4    0    0  0.52048108181E+02  0.73584425565E+02 -0.16626754339E+03  0.18912580267E+03  0.00000000000E+00 0. -1.
<mgrwt>
<rscale>  0 0.14930596E+03</rscale>
<asrwt>0</asrwt>
<pdfrwt beam="2">  1        2 0.53807140E-01 0.15582578E+03</pdfrwt>
<pdfrwt beam="1">  1       -2 0.10334696E-01 0.15582578E+03</pdfrwt>
<totfact> 0.56228312E+03</totfact>
</mgrwt>
</event>
<event>
 8    1  0.8504141E-006  0.2170657E+03  0.7546771E-02  0.1139415E+00
         -2   -1    0    0    0  501 -0.00000000000E+00  0.00000000000E+00  0.37945651655E+03  0.37945651655E+03  0.00000000000E+00 0. -1.
          2   -1    0    0  501    0  0.00000000000E+00 -0.00000000000E+00 -0.14967523383E+03  0.14967523383E+03  0.00000000000E+00 0.  1.
         23    2    1    2    0    0 -0.89028226066E+02  0.15350968267E+03  0.24615641960E+03  0.32819277847E+03  0.12500507679E+03 0.  0.
         23    2    1    2    0    0  0.89028226066E+02 -0.15350968267E+03 -0.16375136883E+02  0.20093897191E+03  0.92828215600E+02 0.  0.
          5    1    3    3  502    0  0.14091185667E+01  0.38605296746E+02  0.14548834795E+03  0.15060313390E+03  0.47000000000E+01 0.  1.
         -5    1    3    3    0  502 -0.90437344632E+02  0.11490438593E+03  0.10066807165E+03  0.17758964457E+03  0.47000000000E+01 0.  1.
        -11    1    4    4    0    0  0.91884092750E+02 -0.13374218892E+03  0.15839309993E+02  0.16303540517E+03  0.00000000000E+00 0. -1.
         11    1    4    4    0    0 -0.28558666848E+01 -0.19767493753E+02 -0.32214446875E+02  0.37903566736E+02  0.00000000000E+00 0.  1.
<mgrwt>
<rscale>  0 0.21273929E+03</rscale>
<asrwt>0</asrwt>
<pdfrwt beam="2">  1        2 0.23026959E-01 0.21706570E+03</pdfrwt>
<pdfrwt beam="1">  1       -2 0.58377925E-01 0.21706570E+03</pdfrwt>
<totfact> 0.66044367E+02</totfact>
</mgrwt>
</event>
<event>
 8    1  0.8504141E-006  0.1411143E+03  0.7546771E-02  0.1222634E+00
         -1   -1    0    0    0  501 -0.00000000000E+00  0.00000000000E+00  0.23903297335E+03  0.23903297335E+03  0.00000000000E+00 0.  1.
          1   -1    0    0  501    0  0.00000000000E+00 -0.00000000000E+00 -0.10004025652E+03  0.10004025652E+03  0.00000000000E+00 0. -1.
         23    2    1    2    0    0  0.62137082855E+02 -0.20674827425E+02  0.17149953537E+03  0.22209309436E+03  0.12499914551E+03 0.  0.
         23    2    1    2    0    0 -0.62137082855E+02  0.20674827425E+02 -0.32506818532E+02  0.11698013551E+03  0.91319183619E+02 0.  0.
          5    1    3    3  502    0  0.73236106516E+02 -0.25543696278E+02  0.18662097022E+03  0.20215213144E+03  0.47000000000E+01 0. -1.
         -5    1    3    3    0  502 -0.11099023661E+02  0.48688688530E+01 -0.15121434859E+02  0.19940962924E+02  0.47000000000E+01 0. -1.
        -11    1    4    4    0    0 -0.65802097460E+01 -0.33071807362E+02 -0.16853453939E+01  0.33762168052E+02  0.00000000000E+00 0.  1.
         11    1    4    4    0    0 -0.55556873109E+02  0.53746634787E+02 -0.30821473138E+02  0.83217967453E+02  0.00000000000E+00 0. -1.
<mgrwt>
<rscale>  0 0.13330415E+03</rscale>
<asrwt>0</asrwt>
<pdfrwt beam="2">  1        1 0.15390809E-01 0.14111432E+03</pdfrwt>
<pdfrwt beam="1">  1       -1 0.36774303E-01 0.14111432E+03</pdfrwt>
<totfact> 0.25060233E+03</totfact>
</mgrwt>
</event>
<event>
 8    1  0.8504141E-006  0.2414195E+03  0.7546771E-02  0.1121602E+00
         -2   -1    0    0    0  501 -0.00000000000E+00  0.00000000000E+00  0.18407762381E+04  0.18407762381E+04  0.00000000000E+00 0.  1.
          2   -1    0    0  501    0  0.00000000000E+00 -0.00000000000E+00 -0.29733879410E+02  0.29733879410E+02  0.00000000000E+00 0. -1.
         23    2    1    2    0    0 -0.15155107452E+03 -0.14031772571E+03  0.10008563271E+04  0.10295614397E+04  0.12500631339E+03 0.  0.
         23    2    1    2    0    0  0.15155107452E+03  0.14031772571E+03  0.81018603163E+03  0.84094867779E+03  0.90202441792E+02 0.  0.
          5    1    3    3  502    0 -0.12593191790E+03 -0.80590018911E+02  0.87645352777E+03  0.88912680504E+03  0.47000000000E+01 0. -1.
         -5    1    3    3    0  502 -0.25619156624E+02 -0.59727706799E+02  0.12440279930E+03  0.14043463469E+03  0.47000000000E+01 0. -1.
        -11    1    4    4    0    0  0.69466895131E+02  0.85359944326E+02  0.58175572124E+03  0.59207405686E+03  0.00000000000E+00 0.  1.
         11    1    4    4    0    0  0.82084179391E+02  0.54957781384E+02  0.22843031039E+03  0.24887462094E+03  0.00000000000E+00 0. -1.
<mgrwt>
<rscale>  0 0.23730398E+03</rscale>
<asrwt>0</asrwt>
<pdfrwt beam="2">  1        2 0.45744444E-02 0.24141949E+03</pdfrwt>
<pdfrwt beam="1">  1       -2 0.28319626E+00 0.24141949E+03</pdfrwt>
<totfact> 0.81262455E+01</totfact>
</mgrwt>
</event>
<event>
 8    1  0.8504141E-006  0.1535843E+03  0.7546771E-02  0.1205221E+00
         -2   -1    0    0    0  501 -0.00000000000E+00  0.00000000000E+00  0.48181764551E+03  0.48181764551E+03  0.00000000000E+00 0.  1.
          2   -1    0    0  501    0  0.00000000000E+00 -0.00000000000E+00 -0.43447866492E+02  0.43447866492E+02  0.00000000000E+00 0. -1.
         23    2    1    2    0    0 -0.75644658740E+02 -0.47321090143E+02  0.30634219542E+03  0.34268596360E+03  0.12500691575E+03 0.  0.
         23    2    1    2    0    0  0.75644658740E+02  0.47321090143E+02  0.13202758360E+03  0.18257954841E+03  0.89121314491E+02 0.  0.
          5    1    3    3  502    0  0.34974010345E+02 -0.13058608446E+02  0.71070570234E+02  0.80416569235E+02  0.47000000000E+01 0.  1.
         -5    1    3    3    0  502 -0.11061866909E+03 -0.34262481697E+02  0.23527162519E+03  0.26226939436E+03  0.47000000000E+01 0.  1.
        -11    1    4    4    0    0  0.91049491232E+02  0.29496162510E+02  0.12606127896E+03  0.15827659179E+03  0.00000000000E+00 0.  1.
         11    1    4    4    0    0 -0.15404832492E+02  0.17824927633E+02  0.59663046447E+01  0.24302956617E+02  0.00000000000E+00 0. -1.
<mgrwt>
<rscale>  0 0.14620034E+03</rscale>
<asrwt>0</asrwt>
<pdfrwt beam="2">  1        2 0.66842875E-02 0.15358427E+03</pdfrwt>
<pdfrwt beam="1">  1       -2 0.74125788E-01 0.15358427E+03</pdfrwt>
<totfact> 0.17555741E+03</totfact>
</mgrwt>
</event>
<event>
 8    1  0.8504141E-006  0.1489253E+03  0.7546771E-02  0.1211907E+00
          2   -1    0    0  501    0  0.00000000000E+00  0.00000000000E+00  0.17667997062E+03  0.17667997062E+03  0.00000000000E+00 0. -1.
         -2   -1    0    0    0  501 -0.00000000000E+00 -0.00000000000E+00 -0.10250787373E+03  0.10250787373E+03  0.00000000000E+00 0.  1.
         23    2    1    2    0    0 -0.27830750377E+01 -0.80905927145E+02  0.33981251146E+02  0.15275293954E+03  0.12500088221E+03 0.  0.
         23    2    1    2    0    0  0.27830750377E+01  0.80905927145E+02  0.40190845745E+02  0.12643490481E+03  0.88413610480E+02 0.  0.
          5    1    3    3  502    0 -0.51412180241E+02 -0.58242634513E+02  0.54613622257E+02  0.95079727010E+02  0.47000000000E+01 0.  1.
         -5    1    3    3    0  502  0.48629105203E+02 -0.22663292632E+02 -0.20632371111E+02  0.57673212529E+02  0.47000000000E+01 0.  1.
        -11    1    4    4    0    0 -0.22263135482E+02  0.63012672745E+02  0.60015056715E+02  0.89822331079E+02  0.00000000000E+00 0. -1.
         11    1    4    4    0    0  0.25046210520E+02  0.17893254400E+02 -0.19824210970E+02  0.36612573728E+02  0.00000000000E+00 0.  1.
<mgrwt>
<rscale>  0 0.14106205E+03</rscale>
<asrwt>0</asrwt>
<pdfrwt beam="1">  1        2 0.27181534E-01 0.14892527E+03</pdfrwt>
<pdfrwt beam="2">  1       -2 0.15770442E-01 0.14892527E+03</pdfrwt>
<totfact> 0.59048847E+03</totfact>
</mgrwt>
</event>
<event>
 8    1  0.8504141E-006  0.1564364E+03  0.7546771E-02  0.1200355E+00
          2   -1    0    0  501    0  0.00000000000E+00  0.00000000000E+00  0.14721595724E+03  0.14721595724E+03  0.00000000000E+00 0. -1.
         -2   -1    0    0    0  501 -0.00000000000E+00 -0.00000000000E+00 -0.15495159467E+03  0.15495159467E+03  0.00000000000E+00 0.  1.
         23    2    1    2    0    0  0.69479012533E+02  0.63413548837E+02 -0.47960348512E+02  0.16362315091E+03  0.12499491640E+03 0.  0.
         23    2    1    2    0    0 -0.69479012533E+02 -0.63413548837E+02  0.40224711085E+02  0.13854440100E+03  0.93423296385E+02 0.  0.
          5    1    3    3  502    0  0.10247483931E+03  0.25043227495E+02 -0.33505229401E+02  0.11078333057E+03  0.47000000000E+01 0. -1.
         -5    1    3    3    0  502 -0.32995826779E+02  0.38370321342E+02 -0.14455119112E+02  0.52839820337E+02  0.47000000000E+01 0. -1.
        -11    1    4    4    0    0 -0.22474727300E+02 -0.42611042209E+02  0.65464738355E+02  0.81280048310E+02  0.00000000000E+00 0. -1.
         11    1    4    4    0    0 -0.47004285233E+02 -0.20802506628E+02 -0.25240027270E+02  0.57264352689E+02  0.00000000000E+00 0.  1.
<mgrwt>
<rscale>  0 0.15009628E+03</rscale>
<asrwt>0</asrwt>
<pdfrwt beam="1">  1        2 0.22648609E-01 0.15643638E+03</pdfrwt>
<pdfrwt beam="2">  1       -2 0.23838707E-01 0.15643638E+03</pdfrwt>
<totfact> 0.36047830E+03</totfact>
</mgrwt>
</event>
<event>
 8    1  0.8504141E-006  0.1287172E+03  0.7546771E-02  0.1243914E+00
         -1   -1    0    0    0  501 -0.00000000000E+00  0.00000000000E+00  0.42934031857E+02  0.42934031857E+02  0.00000000000E+00 0.  1.
          1   -1    0    0  501    0  0.00000000000E+00 -0.00000000000E+00 -0.29451427288E+03  0.29451427288E+03  0.00000000000E+00 0. -1.
         23    2    1    2    0    0  0.30399914711E+02 -0.45030152311E+01 -0.15577672541E+03  0.20207547243E+03  0.12499470556E+03 0.  0.
         23    2    1    2    0    0 -0.30399914711E+02  0.45030152311E+01 -0.95803515620E+02  0.13537283231E+03  0.90570735689E+02 0.  0.
          5    1    3    3  502    0  0.61668231692E+01 -0.52568595171E+02 -0.13339644440E+03  0.14359034886E+03  0.47000000000E+01 0. -1.
         -5    1    3    3    0  502  0.24233091542E+02  0.48065579940E+02 -0.22380281004E+02  0.58485123566E+02  0.47000000000E+01 0. -1.
        -11    1    4    4    0    0  0.24606919983E+02  0.13943513689E+02 -0.49008981375E+01  0.28704370531E+02  0.00000000000E+00 0.  1.
         11    1    4    4    0    0 -0.55006834694E+02 -0.94404984584E+01 -0.90902617482E+02  0.10666846178E+03  0.00000000000E+00 0. -1.
<mgrwt>
<rscale>  0 0.11950610E+03</rscale>
<asrwt>0</asrwt>
<pdfrwt beam="2">  1        1 0.45309888E-01 0.12871716E+03</pdfrwt>
<pdfrwt beam="1">  1       -1 0.66052357E-02 0.12871716E+03</pdfrwt>
<totfact> 0.97575259E+03</totfact>
</mgrwt>
</event>
<event>
 8    1  0.8504141E-006  0.3428035E+03  0.7546771E-02  0.1066899E+00
         -2   -1    0    0    0  501 -0.00000000000E+00  0.00000000000E+00  0.14071747169E+03  0.14071747169E+03  0.00000000000E+00 0.  1.
          2   -1    0    0  501    0  0.00000000000E+00 -0.00000000000E+00 -0.88724928980E+03  0.88724928980E+03  0.00000000000E+00 0. -1.
         23    2    1    2    0    0  0.29036677237E+03  0.13257816606E+03 -0.22388260493E+03  0.40943577574E+03  0.12499760421E+03 0.  0.
         23    2    1    2    0    0 -0.29036677237E+03 -0.13257816606E+03 -0.52264921318E+03  0.61853098574E+03  0.86767203908E+02 0.  0.
          5    1    3    3  502    0  0.26871956158E+03  0.15552023312E+03 -0.19706804646E+03  0.36776983376E+03  0.47000000000E+01 0. -1.
         -5    1    3    3    0  502  0.21647210787E+02 -0.22942067061E+02 -0.26814558468E+02  0.41665941987E+02  0.47000000000E+01 0. -1.
        -11    1    4    4    0    0 -0.13090561755E+03 -0.17710135974E+02 -0.17614734233E+03  0.22017678314E+03  0.00000000000E+00 0.  1.
         11    1    4    4    0    0 -0.15946115482E+03 -0.11486803008E+03 -0.34650187085E+03  0.39835420261E+03  0.00000000000E+00 0. -1.
<mgrwt>
<rscale>  0 0.33975841E+03</rscale>
<asrwt>0</asrwt>
<pdfrwt beam="2">  1        2 0.13649989E+00 0.34280349E+03</pdfrwt>
<pdfrwt beam="1">  1       -2 0.21648842E-01 0.34280349E+03</pdfrwt>
<totfact> 0.56748611E+02</totfact>
</mgrwt>
</event>
<event>
 8    1  0.8504141E-006  0.1393479E+03  0.7546771E-02  0.1225264E+00
         -2   -1    0    0    0  501 -0.00000000000E+00  0.00000000000E+00  0.50263192764E+02  0.50263192764E+02  0.00000000000E+00 0.  1.
          2   -1    0    0  501    0  0.00000000000E+00 -0.00000000000E+00 -0.46773649246E+03  0.46773649246E+03  0.00000000000E+00 0. -1.
         23    2    1    2    0    0  0.61372737199E+02  0.56007131219E+01 -0.75207350580E+02  0.15834770162E+03  0.12497947099E+03 0.  0.
         23    2    1    2    0    0 -0.61372737199E+02 -0.56007131219E+01 -0.34226594912E+03  0.35965198360E+03  0.91681996747E+02 0.  0.
          5    1    3    3  502    0  0.86012911656E+02 -0.17188801007E+02 -0.14792649890E+02  0.89076306290E+02  0.47000000000E+01 0.  1.
         -5    1    3    3    0  502 -0.24640174456E+02  0.22789514129E+02 -0.60414700690E+02  0.69271395329E+02  0.47000000000E+01 0.  1.
        -11    1    4    4    0    0 -0.16635621983E+02 -0.46261648900E+02 -0.17597015478E+03  0.18270845479E+03  0.00000000000E+00 0. -1.
         11    1    4    4    0    0 -0.44737115216E+02  0.40660935778E+02 -0.16629579434E+03  0.17694352882E+03  0.00000000000E+00 0.  1.
<mgrwt>
<rscale>  0 0.13148805E+03</rscale>
<asrwt>0</asrwt>
<pdfrwt beam="2">  1        2 0.71959461E-01 0.13934794E+03</pdfrwt>
<pdfrwt beam="1">  1       -2 0.77327988E-02 0.13934794E+03</pdfrwt>
<totfact> 0.64280300E+03</totfact>
</mgrwt>
</event>
<event>
 8    1  0.8504141E-006  0.1969242E+03  0.7546771E-02  0.1157044E+00
          1   -1    0    0  501    0  0.00000000000E+00  0.00000000000E+00  0.10676296702E+04  0.10676296702E+04  0.00000000000E+00 0. -1.
         -1   -1    0    0    0  501 -0.00000000000E+00 -0.00000000000E+00 -0.37646714843E+02  0.37646714843E+02  0.00000000000E+00 0.  1.
         23    2    1    2    0    0 -0.14876877741E+03  0.31969753559E+02  0.33817669937E+03  0.39133439760E+03  0.12499966588E+03 0.  0.
         23    2    1    2    0    0  0.14876877741E+03 -0.31969753559E+02  0.69180625604E+03  0.71394198749E+03  0.89235930775E+02 0.  0.
          5    1    3    3  502    0  0.15693669863E+02  0.97259018395E+01  0.94965965982E+02  0.96858190852E+02  0.47000000000E+01 0.  1.
         -5    1    3    3    0  502 -0.16446244728E+03  0.22243851720E+02  0.24321073339E+03  0.29447620674E+03  0.47000000000E+01 0.  1.
        -11    1    4    4    0    0  0.98133411556E+02 -0.83936341828E+01  0.58676492124E+03  0.59497369047E+03  0.00000000000E+00 0. -1.
         11    1    4    4    0    0  0.50635365857E+02 -0.23576119376E+02  0.10504133480E+03  0.11896829702E+03  0.00000000000E+00 0.  1.
<mgrwt>
<rscale>  0 0.19157968E+03</rscale>
<asrwt>0</asrwt>
<pdfrwt beam="1">  1        1 0.16425070E+00 0.19692418E+03</pdfrwt>
<pdfrwt beam="2">  1       -1 0.57918031E-02 0.19692418E+03</pdfrwt>
<totfact> 0.20028183E+03</totfact>
</mgrwt>
</event>
<event>
 8    1  0.8504141E-006  0.1927828E+03  0.7546771E-02  0.1161090E+00
          3   -1    0    0  501    0  0.00000000000E+00  0.00000000000E+00  0.14815812354E+04  0.14815812354E+04  0.00000000000E+00 0. -1.
         -3   -1    0    0    0  501 -0.00000000000E+00 -0.00000000000E+00 -0.22851398929E+02  0.22851398929E+02  0.00000000000E+00 0.  1.
         23    2    1    2    0    0 -0.14587230162E+03  0.16144681625E+02  0.65969754707E+03  0.68728893242E+03  0.12500337553E+03 0.  0.
         23    2    1    2    0    0  0.14587230162E+03 -0.16144681625E+02  0.79903228944E+03  0.81714370194E+03  0.87930944144E+02 0.  0.
          5    1    3    3  502    0 -0.15356719881E+03  0.24926845132E+01  0.65074141084E+03  0.66863710023E+03  0.47000000000E+01 0. -1.
         -5    1    3    3    0  502  0.76948971881E+01  0.13651997112E+02  0.89561362342E+01  0.18651832192E+02  0.47000000000E+01 0. -1.
        -11    1    4    4    0    0  0.78266174703E+02 -0.49069450371E+02  0.52078132562E+03  0.52891076201E+03  0.00000000000E+00 0.  1.
         11    1    4    4    0    0  0.67606126920E+02  0.32924768746E+02  0.27825096382E+03  0.28823293993E+03  0.00000000000E+00 0. -1.
<mgrwt>
<rscale>  0 0.18711405E+03</rscale>
<asrwt>0</asrwt>
<pdfrwt beam="1">  1        3 0.22793550E+00 0.19278284E+03</pdfrwt>
<pdfrwt beam="2">  1       -3 0.35156010E-02 0.19278284E+03</pdfrwt>
<totfact> 0.10733132E+02</totfact>
</mgrwt>
</event>
<event>
 8    1  0.8504141E-006  0.1319178E+03  0.7546771E-02  0.1238179E+00
          1   -1    0    0  501    0  0.00000000000E+00  0.00000000000E+00  0.31902545913E+03  0.31902545913E+03  0.00000000000E+00 0. -1.
         -1   -1    0    0    0  501 -0.00000000000E+00 -0.00000000000E+00 -0.46868380521E+02  0.46868380521E+02  0.00000000000E+00 0.  1.
         23    2    1    2    0    0  0.41898550441E+02  0.45110413910E+01  0.95022947222E+02  0.16257820403E+03  0.12500589548E+03 0.  0.
         23    2    1    2    0    0 -0.41898550441E+02 -0.45110413910E+01  0.17713413138E+03  0.20331563562E+03  0.90470487792E+02 0.  0.
          5    1    3    3  502    0  0.83105613951E+02 -0.27949149917E+01  0.37628854751E+02  0.91391330715E+02  0.47000000000E+01 0.  1.
         -5    1    3    3    0  502 -0.41207063511E+02  0.73059563827E+01  0.57394092471E+02  0.71186873316E+02  0.47000000000E+01 0.  1.
        -11    1    4    4    0    0 -0.13664044654E+02  0.38640681682E+02  0.42034398063E+02  0.58708594070E+02  0.00000000000E+00 0.  1.
         11    1    4    4    0    0 -0.28234505786E+02 -0.43151723073E+02  0.13509973332E+03  0.14460704155E+03  0.00000000000E+00 0. -1.
<mgrwt>
<rscale>  0 0.12303087E+03</rscale>
<asrwt>0</asrwt>
<pdfrwt beam="1">  1        1 0.49080839E-01 0.13191782E+03</pdfrwt>
<pdfrwt beam="2">  1       -1 0.72105203E-02 0.13191782E+03</pdfrwt>
<totfact> 0.77657052E+03</totfact>
</mgrwt>
</event>
<event>
 8    1  0.8504141E-006  0.1257046E+03  0.7546771E-02  0.1267400E+00
         -2   -1    0    0    0  501 -0.00000000000E+00  0.00000000000E+00  0.62016570332E+02  0.62016570332E+02  0.00000000000E+00 0.  1.
          2   -1    0    0  501    0  0.00000000000E+00 -0.00000000000E+00 -0.15078451530E+03  0.15078451530E+03  0.00000000000E+00 0. -1.
         23    2    1    2    0    0  0.12886566496E+02 -0.32846856652E+01 -0.39932265913E+02  0.13189477746E+03  0.12499917481E+03 0.  0.
         23    2    1    2    0    0 -0.12886566496E+02  0.32846856652E+01 -0.48835679051E+02  0.80906308170E+02  0.63119366263E+02 0.  0.
          5    1    3    3  502    0 -0.20426099893E+02  0.52581884566E+02 -0.24106558363E+01  0.56656697777E+02  0.47000000000E+01 0.  1.
         -5    1    3    3    0  502  0.33312666389E+02 -0.55866570231E+02 -0.37521610077E+02  0.75238079681E+02  0.47000000000E+01 0.  1.
        -11    1    4    4    0    0 -0.26042994123E+01 -0.24098341673E+02 -0.30266512852E+00  0.24240545641E+02  0.00000000000E+00 0.  1.
         11    1    4    4    0    0 -0.10282267083E+02  0.27383027338E+02 -0.48533013922E+02  0.56665762529E+02  0.00000000000E+00 0. -1.
<mgrwt>
<rscale>  0 0.10639271E+03</rscale>
<asrwt>0</asrwt>
<pdfrwt beam="2">  1        2 0.23197618E-01 0.12570460E+03</pdfrwt>
<pdfrwt beam="1">  1       -2 0.95410109E-02 0.12570460E+03</pdfrwt>
<totfact> 0.15523550E+04</totfact>
</mgrwt>
</event>
<event>
 8    1  0.8504141E-006  0.1712703E+03  0.7546771E-02  0.1183694E+00
          2   -1    0    0  501    0  0.00000000000E+00  0.00000000000E+00  0.71384142423E+03  0.71384142423E+03  0.00000000000E+00 0. -1.
         -2   -1    0    0    0  501 -0.00000000000E+00 -0.00000000000E+00 -0.50205102685E+02  0.50205102685E+02  0.00000000000E+00 0.  1.
         23    2    1    2    0    0 -0.16458779845E+02 -0.11590475806E+03  0.14219130771E+03  0.22260252710E+03  0.12501484996E+03 0.  0.
         23    2    1    2    0    0  0.16458779845E+02  0.11590475806E+03  0.52144501384E+03  0.54144399981E+03  0.86901657642E+02 0.  0.
          5    1    3    3  502    0 -0.59720166265E+02 -0.10519187542E+03  0.12657801892E+03  0.17514540755E+03  0.47000000000E+01 0.  1.
         -5    1    3    3    0  502  0.43261386420E+02 -0.10712882647E+02  0.15613288789E+02  0.47457119554E+02  0.47000000000E+01 0.  1.
        -11    1    4    4    0    0  0.34489551366E+02  0.11338850666E+03  0.49716672787E+03  0.51109807072E+03  0.00000000000E+00 0. -1.
         11    1    4    4    0    0 -0.18030771521E+02  0.25162514019E+01  0.24278285969E+02  0.30345929090E+02  0.00000000000E+00 0.  1.
<mgrwt>
<rscale>  0 0.16451236E+03</rscale>
<asrwt>0</asrwt>
<pdfrwt beam="1">  1        2 0.10982175E+00 0.17127030E+03</pdfrwt>
<pdfrwt beam="2">  1       -2 0.77238624E-02 0.17127030E+03</pdfrwt>
<totfact> 0.40183982E+03</totfact>
</mgrwt>
</event>
<event>
 8    1  0.8504141E-006  0.1579658E+03  0.7546771E-02  0.1198946E+00
          2   -1    0    0  501    0  0.00000000000E+00  0.00000000000E+00  0.44705490757E+03  0.44705490757E+03  0.00000000000E+00 0.  1.
         -2   -1    0    0    0  501 -0.00000000000E+00 -0.00000000000E+00 -0.56107054924E+02  0.56107054924E+02  0.00000000000E+00 0. -1.
         23    2    1    2    0    0 -0.82369822346E+02  0.50439408876E+02  0.11020707219E+03  0.19261044773E+03  0.12499705682E+03 0.  0.
         23    2    1    2    0    0  0.82369822346E+02 -0.50439408876E+02  0.28074078046E+03  0.31055151476E+03  0.91093006910E+02 0.  0.
          5    1    3    3  502    0 -0.64673603888E+02  0.29366314209E+02 -0.75559614207E+01  0.71583783102E+02  0.47000000000E+01 0.  1.
         -5    1    3    3    0  502 -0.17696218458E+02  0.21073094667E+02  0.11776303361E+03  0.12102666463E+03  0.47000000000E+01 0.  1.
        -11    1    4    4    0    0  0.34918419197E+01 -0.53478596852E+02  0.12272955348E+03  0.13392048603E+03  0.00000000000E+00 0.  1.
         11    1    4    4    0    0  0.78877980427E+02  0.30391879762E+01  0.15801122697E+03  0.17663102873E+03  0.00000000000E+00 0. -1.
<mgrwt>
<rscale>  0 0.15124956E+03</rscale>
<asrwt>0</asrwt>
<pdfrwt beam="1">  1        2 0.68777676E-01 0.15796577E+03</pdfrwt>
<pdfrwt beam="2">  1       -2 0.86318549E-02 0.15796577E+03</pdfrwt>
<totfact> 0.57337522E+03</totfact>
</mgrwt>
</event>
<event>
 8    1  0.8504141E-006  0.1712578E+03  0.7546771E-02  0.1182698E+00
          1   -1    0    0  501    0  0.00000000000E+00  0.00000000000E+00  0.32715694253E+02  0.32715694253E+02  0.00000000000E+00 0. -1.
         -1   -1    0    0    0  501 -0.00000000000E+00 -0.00000000000E+00 -0.78749952544E+03  0.78749952544E+03  0.00000000000E+00 0.  1.
         23    2    1    2    0    0  0.43565885463E+02  0.10866659459E+03 -0.42938309240E+03  0.46227595811E+03  0.12499122468E+03 0.  0.
         23    2    1    2    0    0 -0.43565885463E+02 -0.10866659459E+03 -0.32540073878E+03  0.35793926158E+03  0.92349656347E+02 0.  0.
          5    1    3    3  502    0  0.35537383426E-01  0.60034144048E+02 -0.36686396902E+03  0.37177326622E+03  0.47000000000E+01 0.  1.
         -5    1    3    3    0  502  0.43530348080E+02  0.48632450540E+02 -0.62519123385E+02  0.90502691885E+02  0.47000000000E+01 0.  1.
        -11    1    4    4    0    0  0.27288617258E+02 -0.41677224378E+02 -0.85100765296E+02  0.98609329770E+02  0.00000000000E+00 0. -1.
         11    1    4    4    0    0 -0.70854502721E+02 -0.66989370210E+02 -0.24029997348E+03  0.25932993181E+03  0.00000000000E+00 0.  1.
<mgrwt>
<rscale>  0 0.16543105E+03</rscale>
<asrwt>0</asrwt>
<pdfrwt beam="1">  1        1 0.50331842E-02 0.17125776E+03</pdfrwt>
<pdfrwt beam="2">  1       -1 0.12115376E+00 0.17125776E+03</pdfrwt>
<totfact> 0.10540821E+03</totfact>
</mgrwt>
</event>
<event>
 8    1  0.8504141E-006  0.1553202E+03  0.7546771E-02  0.1201996E+00
          2   -1    0    0  501    0  0.00000000000E+00  0.00000000000E+00  0.20546752217E+03  0.20546752217E+03  0.00000000000E+00 0.  1.
         -2   -1    0    0    0  501 -0.00000000000E+00 -0.00000000000E+00 -0.99640598964E+02  0.99640598964E+02  0.00000000000E+00 0. -1.
         23    2    1    2    0    0 -0.26368319995E+02  0.88339462912E+02  0.61989262433E+02  0.16723346800E+03  0.12500086062E+03 0.  0.
         23    2    1    2    0    0  0.26368319995E+02 -0.88339462912E+02  0.43837660770E+02  0.13787465313E+03  0.92674324747E+02 0.  0.
          5    1    3    3  502    0 -0.31890453971E+02  0.66935369346E+02 -0.24196628842E+02  0.78133933545E+02  0.47000000000E+01 0. -1.
         -5    1    3    3    0  502  0.55221339756E+01  0.21404093567E+02  0.86185891275E+02  0.89099534454E+02  0.47000000000E+01 0. -1.
        -11    1    4    4    0    0  0.58110206027E+02 -0.39776930519E+02  0.11190982727E+02  0.71303845201E+02  0.00000000000E+00 0.  1.
         11    1    4    4    0    0 -0.31741886032E+02 -0.48562532393E+02  0.32646678043E+02  0.66570807931E+02  0.00000000000E+00 0. -1.
<mgrwt>
<rscale>  0 0.14876691E+03</rscale>
<asrwt>0</asrwt>
<pdfrwt beam="1">  1        2 0.31610388E-01 0.15532020E+03</pdfrwt>
<pdfrwt beam="2">  1       -2 0.15329323E-01 0.15532020E+03</pdfrwt>
<totfact> 0.52627984E+03</totfact>
</mgrwt>
</event>
<event>
 8    1  0.9565130E-006  0.2341464E+03  0.7546771E-02  0.1127705E+00
          2   -1    0    0  501    0  0.00000000000E+00  0.00000000000E+00  0.12320501838E+04  0.12320501838E+04  0.00000000000E+00 0.  1.
         -2   -1    0    0    0  501 -0.00000000000E+00 -0.00000000000E+00 -0.40620996088E+02  0.40620996088E+02  0.00000000000E+00 0. -1.
         23    2    1    2    0    0 -0.18958219400E+03  0.57080130646E+02  0.58348482860E+03  0.62871223547E+03  0.12499992091E+03 0.  0.
         23    2    1    2    0    0  0.18958219400E+03 -0.57080130646E+02  0.60794435907E+03  0.64395894437E+03  0.76728278478E+02 0.  0.
          5    1    3    3  502    0 -0.92319905435E+02 -0.23847509037E+02  0.35365486920E+03  0.36631342473E+03  0.47000000000E+01 0.  1.
         -5    1    3    3    0  502 -0.97262288565E+02  0.80927639684E+02  0.22982995940E+03  0.26239881074E+03  0.47000000000E+01 0.  1.
        -11    1    4    4    0    0  0.16180621639E+03 -0.69766760347E+02  0.56043186169E+03  0.58747980741E+03  0.00000000000E+00 0. -1.
         11    1    4    4    0    0  0.27775977611E+02  0.12686629701E+02  0.47512497373E+02  0.56479136962E+02  0.00000000000E+00 0.  1.
<mgrwt>
<rscale>  0 0.22849239E+03</rscale>
<asrwt>0</asrwt>
<pdfrwt beam="1">  1        2 0.18954615E+00 0.23414639E+03</pdfrwt>
<pdfrwt beam="2">  1       -2 0.62493849E-02 0.23414639E+03</pdfrwt>
<totfact> 0.26583932E+03</totfact>
</mgrwt>
</event>
<event>
 8    1  0.8504141E-006  0.1455003E+03  0.7546771E-02  0.1222031E+00
          2   -1    0    0  501    0  0.00000000000E+00  0.00000000000E+00  0.73145430564E+03  0.73145430564E+03  0.00000000000E+00 0.  1.
         -2   -1    0    0    0  501 -0.00000000000E+00 -0.00000000000E+00 -0.25682003364E+02  0.25682003364E+02  0.00000000000E+00 0. -1.
         23    2    1    2    0    0 -0.33314494607E+02  0.66605129911E+02  0.24616632467E+03  0.28595138956E+03  0.12499695559E+03 0.  0.
         23    2    1    2    0    0  0.33314494607E+02 -0.66605129911E+02  0.45960597761E+03  0.47118491945E+03  0.72328934622E+02 0.  0.
          5    1    3    3  502    0 -0.32408097523E+02  0.22100623844E+01  0.20876440629E+03  0.21132874034E+03  0.47000000000E+01 0.  1.
         -5    1    3    3    0  502 -0.90639708446E+00  0.64395067526E+02  0.37401918383E+02  0.74622649217E+02  0.47000000000E+01 0.  1.
        -11    1    4    4    0    0  0.90643196577E+01 -0.76923732205E+02  0.34091440887E+03  0.34960271257E+03  0.00000000000E+00 0.  1.
         11    1    4    4    0    0  0.24250174949E+02  0.10318602295E+02  0.11869156874E+03  0.12158220688E+03  0.00000000000E+00 0. -1.
<mgrwt>
<rscale>  0 0.13372514E+03</rscale>
<asrwt>0</asrwt>
<pdfrwt beam="1">  1        2 0.11253142E+00 0.14550030E+03</pdfrwt>
<pdfrwt beam="2">  1       -2 0.39510780E-02 0.14550030E+03</pdfrwt>
<totfact> 0.10695624E+04</totfact>
</mgrwt>
</event>
<event>
 8    1  0.8504141E-006  0.1526133E+03  0.7546771E-02  0.1207033E+00
          4   -1    0    0  501    0  0.00000000000E+00  0.00000000000E+00  0.30983533030E+02  0.30983533030E+02  0.00000000000E+00 0. -1.
         -4   -1    0    0    0  501 -0.00000000000E+00 -0.00000000000E+00 -0.64728446296E+03  0.64728446296E+03  0.00000000000E+00 0.  1.
         23    2    1    2    0    0  0.32809063742E+01  0.87493991794E+02 -0.41342342993E+03  0.44069235571E+03  0.12499942809E+03 0.  0.
         23    2    1    2    0    0 -0.32809063742E+01 -0.87493991794E+02 -0.20287750000E+03  0.23757564028E+03  0.87275093242E+02 0.  0.
          5    1    3    3  502    0  0.40594013504E+02  0.57549680659E+02 -0.93358585497E+02  0.11703740924E+03  0.47000000000E+01 0. -1.
         -5    1    3    3    0  502 -0.37313107129E+02  0.29944311136E+02 -0.32006484443E+03  0.32365494647E+03  0.47000000000E+01 0. -1.
        -11    1    4    4    0    0  0.17049038119E+02 -0.66987298540E+02 -0.59150660592E+02  0.90976747112E+02  0.00000000000E+00 0. -1.
         11    1    4    4    0    0 -0.20329944493E+02 -0.20506693254E+02 -0.14372683941E+03  0.14659889317E+03  0.00000000000E+00 0.  1.
<mgrwt>
<rscale>  0 0.14478382E+03</rscale>
<asrwt>0</asrwt>
<pdfrwt beam="1">  1        4 0.47666977E-02 0.15261330E+03</pdfrwt>
<pdfrwt beam="2">  1       -4 0.99582219E-01 0.15261330E+03</pdfrwt>
<totfact> 0.37911357E+02</totfact>
</mgrwt>
</event>
<event>
 8    1  0.8504141E-006  0.2811204E+03  0.7546771E-02  0.1097095E+00
         -2   -1    0    0    0  501 -0.00000000000E+00  0.00000000000E+00  0.10461002075E+03  0.10461002075E+03  0.00000000000E+00 0.  1.
          2   -1    0    0  501    0  0.00000000000E+00 -0.00000000000E+00 -0.75524408501E+03  0.75524408501E+03  0.00000000000E+00 0. -1.
         23    2    1    2    0    0 -0.22819589497E+03 -0.10644917498E+03 -0.23696394463E+03  0.36766912063E+03  0.12499551143E+03 0.  0.
         23    2    1    2    0    0  0.22819589497E+03  0.10644917498E+03 -0.41367011963E+03  0.49218498513E+03  0.87853846663E+02 0.  0.
          5    1    3    3  502    0 -0.70528239449E+02 -0.81921916251E+02 -0.42925599544E+02  0.11640502574E+03  0.47000000000E+01 0.  1.
         -5    1    3    3    0  502 -0.15766765553E+03 -0.24527258726E+02 -0.19403834508E+03  0.25126409489E+03  0.47000000000E+01 0.  1.
        -11    1    4    4    0    0  0.87967209905E+02  0.44296483571E+01 -0.18774874647E+03  0.20738236088E+03  0.00000000000E+00 0.  1.
         11    1    4    4    0    0  0.14022868507E+03  0.10201952662E+03 -0.22592137317E+03  0.28480262425E+03  0.00000000000E+00 0. -1.
<mgrwt>
<rscale>  0 0.27744096E+03</rscale>
<asrwt>0</asrwt>
<pdfrwt beam="2">  1        2 0.11619140E+00 0.28112039E+03</pdfrwt>
<pdfrwt beam="1">  1       -2 0.16093849E-01 0.28112039E+03</pdfrwt>
<totfact> 0.11628497E+03</totfact>
</mgrwt>
</event>
<event>
 8    1  0.8504141E-006  0.1306908E+03  0.7546771E-02  0.1241271E+00
          2   -1    0    0  501    0  0.00000000000E+00  0.00000000000E+00  0.17040696670E+03  0.17040696670E+03  0.00000000000E+00 0. -1.
         -2   -1    0    0    0  501 -0.00000000000E+00 -0.00000000000E+00 -0.11196757536E+03  0.11196757536E+03  0.00000000000E+00 0.  1.
         23    2    1    2    0    0  0.16049722218E+02  0.34597767714E+02 -0.47583854051E+02  0.13908385250E+03  0.12500198296E+03 0.  0.
         23    2    1    2    0    0 -0.16049722218E+02 -0.34597767714E+02  0.10602324538E+03  0.14329068956E+03  0.88525104007E+02 0.  0.
          5    1    3    3  502    0  0.36092209906E+02  0.54347764483E+02  0.17765208597E+02  0.67779198554E+02  0.47000000000E+01 0. -1.
         -5    1    3    3    0  502 -0.20042487687E+02 -0.19749996769E+02 -0.65349062647E+02  0.71304653943E+02  0.47000000000E+01 0. -1.
        -11    1    4    4    0    0 -0.48171925019E+02 -0.20208627512E+02  0.31831907310E+02  0.61173468995E+02  0.00000000000E+00 0.  1.
         11    1    4    4    0    0  0.32122202800E+02 -0.14389140202E+02  0.74191338074E+02  0.82117220567E+02  0.00000000000E+00 0. -1.
<mgrwt>
<rscale>  0 0.12111373E+03</rscale>
<asrwt>0</asrwt>
<pdfrwt beam="1">  1        2 0.26216456E-01 0.13069084E+03</pdfrwt>
<pdfrwt beam="2">  1       -2 0.17225781E-01 0.13069084E+03</pdfrwt>
<totfact> 0.52660101E+03</totfact>
</mgrwt>
</event>
<event>
 8    1  0.8504141E-006  0.1375876E+03  0.7546771E-02  0.1222315E+00
         -3   -1    0    0    0  501 -0.00000000000E+00  0.00000000000E+00  0.31072218566E+02  0.31072218566E+02  0.00000000000E+00 0.  1.
          3   -1    0    0  501    0  0.00000000000E+00 -0.00000000000E+00 -0.62185423902E+03  0.62185423902E+03  0.00000000000E+00 0. -1.
         23    2    1    2    0    0 -0.59389077075E+02 -0.55073710221E+02 -0.19427630572E+03  0.23806225081E+03  0.11122129411E+03 0.  0.
         23    2    1    2    0    0  0.59389077075E+02  0.55073710221E+02 -0.39650571473E+03  0.41486420677E+03  0.91298150105E+02 0.  0.
          5    1    3    3  502    0 -0.63763648886E+02  0.12155281384E+02 -0.12716997467E+03  0.14285603327E+03  0.47000000000E+01 0. -1.
         -5    1    3    3    0  502  0.43745718113E+01 -0.67228991605E+02 -0.67106331045E+02  0.95206217534E+02  0.47000000000E+01 0.  1.
        -11    1    4    4    0    0  0.61729948970E+02  0.72604461535E+02 -0.37549899082E+03  0.38740351901E+03  0.00000000000E+00 0. -1.
         11    1    4    4    0    0 -0.23408718951E+01 -0.17530751314E+02 -0.21006723910E+02  0.27460687761E+02  0.00000000000E+00 0.  1.
<mgrwt>
<rscale>  0 0.13352620E+03</rscale>
<asrwt>0</asrwt>
<pdfrwt beam="2">  1        3 0.95669870E-01 0.13758762E+03</pdfrwt>
<pdfrwt beam="1">  1       -3 0.47803420E-02 0.13758762E+03</pdfrwt>
<totfact> 0.57044926E+02</totfact>
</mgrwt>
</event>
<event>
 8    1  0.8504141E-006  0.1313344E+03  0.7546771E-02  0.1238840E+00
          4   -1    0    0  501    0  0.00000000000E+00  0.00000000000E+00  0.27434980064E+02  0.27434980064E+02  0.00000000000E+00 0. -1.
         -4   -1    0    0    0  501 -0.00000000000E+00 -0.00000000000E+00 -0.49267367875E+03  0.49267367875E+03  0.00000000000E+00 0.  1.
         23    2    1    2    0    0 -0.35467169591E+02  0.19115438395E+02 -0.29221479944E+03  0.32037198306E+03  0.12500159365E+03 0.  0.
         23    2    1    2    0    0  0.35467169591E+02 -0.19115438395E+02 -0.17302389924E+03  0.19973667575E+03  0.91291564924E+02 0.  0.
          5    1    3    3  502    0 -0.23184218797E+02  0.37151425107E+02 -0.21991972094E+02  0.49228784519E+02  0.47000000000E+01 0.  1.
         -5    1    3    3    0  502 -0.12282950795E+02 -0.18035986712E+02 -0.27022282734E+03  0.27114319854E+03  0.47000000000E+01 0.  1.
        -11    1    4    4    0    0  0.60726522311E+02 -0.18760102203E+02 -0.15809639088E+03  0.17039401620E+03  0.00000000000E+00 0. -1.
         11    1    4    4    0    0 -0.25259352720E+02 -0.35533619147E+00 -0.14927508363E+02  0.29342659551E+02  0.00000000000E+00 0.  1.
<mgrwt>
<rscale>  0 0.12261749E+03</rscale>
<asrwt>0</asrwt>
<pdfrwt beam="1">  1        4 0.42207660E-02 0.13133438E+03</pdfrwt>
<pdfrwt beam="2">  1       -4 0.75795953E-01 0.13133438E+03</pdfrwt>
<totfact> 0.82644672E+02</totfact>
</mgrwt>
</event>
<event>
 8    1  0.8504141E-006  0.1611070E+03  0.7546771E-02  0.1194948E+00
          2   -1    0    0  501    0  0.00000000000E+00  0.00000000000E+00  0.63550226916E+02  0.63550226916E+02  0.00000000000E+00 0.  1.
         -2   -1    0    0    0  501 -0.00000000000E+00 -0.00000000000E+00 -0.42684119404E+03  0.42684119404E+03  0.00000000000E+00 0. -1.
         23    2    1    2    0    0  0.10130744447E+03 -0.83110358909E+01 -0.29857738618E+03  0.33926968261E+03  0.12499276132E+03 0.  0.
         23    2    1    2    0    0 -0.10130744447E+03  0.83110358909E+01 -0.64713580948E+02  0.15112173834E+03  0.91201209525E+02 0.  0.
          5    1    3    3  502    0 -0.19749890751E+02 -0.29693668969E+02 -0.46626569382E+02  0.58888871052E+02  0.47000000000E+01 0. -1.
         -5    1    3    3    0  502  0.12105733522E+03  0.21382633078E+02 -0.25195081679E+03  0.28038081156E+03  0.47000000000E+01 0. -1.
        -11    1    4    4    0    0 -0.32650059899E+02  0.35888947611E+02  0.58611402035E+01  0.48871217874E+02  0.00000000000E+00 0.  1.
         11    1    4    4    0    0 -0.68657384568E+02 -0.27577911720E+02 -0.70574721152E+02  0.10225052047E+03  0.00000000000E+00 0. -1.
<mgrwt>
<rscale>  0 0.15458610E+03</rscale>
<asrwt>0</asrwt>
<pdfrwt beam="1">  1        2 0.97769582E-02 0.16110699E+03</pdfrwt>
<pdfrwt beam="2">  1       -2 0.65667875E-01 0.16110699E+03</pdfrwt>
<totfact> 0.14108599E+03</totfact>
</mgrwt>
</event>
<event>
 8    1  0.8504141E-006  0.1283905E+03  0.7546771E-02  0.1240318E+00
          4   -1    0    0  501    0  0.00000000000E+00  0.00000000000E+00  0.94874928277E+02  0.94874928277E+02  0.00000000000E+00 0. -1.
         -4   -1    0    0    0  501 -0.00000000000E+00 -0.00000000000E+00 -0.20020996314E+03  0.20020996314E+03  0.00000000000E+00 0.  1.
         23    2    1    2    0    0  0.28966539210E+02 -0.46419548378E+01 -0.13596542549E+03  0.18700460955E+03  0.12499407555E+03 0.  0.
         23    2    1    2    0    0 -0.28966539210E+02  0.46419548378E+01  0.30630390628E+02  0.10808028188E+03  0.99410856357E+02 0.  0.
          5    1    3    3  502    0  0.33516341598E+02  0.48253612264E+02 -0.11595295378E+03  0.13007280170E+03  0.47000000000E+01 0. -1.
         -5    1    3    3    0  502 -0.45498023883E+01 -0.52895567101E+02 -0.20012471711E+02  0.56931807847E+02  0.47000000000E+01 0. -1.
        -11    1    4    4    0    0 -0.63262915932E+01 -0.36170108436E+02 -0.17813536262E+02  0.40812017639E+02  0.00000000000E+00 0.  1.
         11    1    4    4    0    0 -0.22640247617E+02  0.40812063274E+02  0.48443926890E+02  0.67268264236E+02  0.00000000000E+00 0. -1.
<mgrwt>
<rscale>  0 0.12170014E+03</rscale>
<asrwt>0</asrwt>
<pdfrwt beam="1">  1        4 0.14596143E-01 0.12839053E+03</pdfrwt>
<pdfrwt beam="2">  1       -4 0.30801532E-01 0.12839053E+03</pdfrwt>
<totfact> 0.65452096E+02</totfact>
</mgrwt>
</event>
<event>
 8    1  0.8504141E-006  0.1390264E+03  0.7546771E-02  0.1229600E+00
         -2   -1    0    0    0  501 -0.00000000000E+00  0.00000000000E+00  0.33967907352E+02  0.33967907352E+02  0.00000000000E+00 0.  1.
          2   -1    0    0  501    0  0.00000000000E+00 -0.00000000000E+00 -0.43141853770E+03  0.43141853770E+03  0.00000000000E+00 0. -1.
         23    2    1    2    0    0 -0.46210958261E+02 -0.39605435891E+02 -0.25399761534E+03  0.28955677768E+03  0.12499718272E+03 0.  0.
         23    2    1    2    0    0  0.46210958261E+02  0.39605435891E+02 -0.14345301502E+03  0.17582966738E+03  0.81444835302E+02 0.  0.
          5    1    3    3  502    0 -0.29329096778E+02 -0.85077122941E+02 -0.15768903046E+03  0.18162112513E+03  0.47000000000E+01 0. -1.
         -5    1    3    3    0  502 -0.16881861483E+02  0.45471687050E+02 -0.96308584876E+02  0.10793565255E+03  0.47000000000E+01 0. -1.
        -11    1    4    4    0    0 -0.17886766481E+02 -0.85386382291E+00 -0.62129677476E+02  0.64658814727E+02  0.00000000000E+00 0.  1.
         11    1    4    4    0    0  0.64097724742E+02  0.40459299713E+02 -0.81323337539E+02  0.11117085265E+03  0.00000000000E+00 0. -1.
<mgrwt>
<rscale>  0 0.12856533E+03</rscale>
<asrwt>0</asrwt>
<pdfrwt beam="2">  1        2 0.66372081E-01 0.13902640E+03</pdfrwt>
<pdfrwt beam="1">  1       -2 0.52258320E-02 0.13902640E+03</pdfrwt>
<totfact> 0.12739841E+04</totfact>
</mgrwt>
</event>
<event>
 8    1  0.8504141E-006  0.1441185E+03  0.7546771E-02  0.1218086E+00
         -1   -1    0    0    0  501 -0.00000000000E+00  0.00000000000E+00  0.15114135342E+03  0.15114135342E+03  0.00000000000E+00 0.  1.
          1   -1    0    0  501    0  0.00000000000E+00 -0.00000000000E+00 -0.11428643010E+03  0.11428643010E+03  0.00000000000E+00 0. -1.
         23    2    1    2    0    0 -0.64573180374E+01  0.71432795563E+02  0.39182658160E+02  0.14934998567E+03  0.12500318509E+03 0.  0.
         23    2    1    2    0    0  0.64573180374E+01 -0.71432795563E+02 -0.23277348363E+01  0.11607779785E+03  0.91237577600E+02 0.  0.
          5    1    3    3  502    0 -0.45781657796E+02  0.25507886364E+02 -0.27370620939E+02  0.59311494231E+02  0.47000000000E+01 0.  1.
         -5    1    3    3    0  502  0.39324339759E+02  0.45924909199E+02  0.66553279099E+02  0.90038491442E+02  0.47000000000E+01 0.  1.
        -11    1    4    4    0    0 -0.13415858032E+02 -0.82157636591E+02  0.18589757389E+02  0.85296199076E+02  0.00000000000E+00 0.  1.
         11    1    4    4    0    0  0.19873176069E+02  0.10724841028E+02 -0.20917492225E+02  0.30781598775E+02  0.00000000000E+00 0. -1.
<mgrwt>
<rscale>  0 0.13652281E+03</rscale>
<asrwt>0</asrwt>
<pdfrwt beam="2">  1        1 0.17582528E-01 0.14411848E+03</pdfrwt>
<pdfrwt beam="1">  1       -1 0.23252516E-01 0.14411848E+03</pdfrwt>
<totfact> 0.45600883E+03</totfact>
</mgrwt>
</event>
<event>
 8    1  0.8504141E-006  0.1365140E+03  0.7546771E-02  0.1229959E+00
         -2   -1    0    0    0  501 -0.00000000000E+00  0.00000000000E+00  0.43986047509E+02  0.43986047509E+02  0.00000000000E+00 0. -1.
          2   -1    0    0  501    0  0.00000000000E+00 -0.00000000000E+00 -0.33630245278E+03  0.33630245278E+03  0.00000000000E+00 0.  1.
         23    2    1    2    0    0 -0.89624537299E+01  0.54129695759E+02 -0.15776765714E+03  0.20863053460E+03  0.12500286712E+03 0.  0.
         23    2    1    2    0    0  0.89624537299E+01 -0.54129695759E+02 -0.13454874813E+03  0.17165796569E+03  0.91393336856E+02 0.  0.
          5    1    3    3  502    0  0.36031172180E+02 -0.14242226327E+02 -0.11051423153E+02  0.40562425139E+02  0.47000000000E+01 0. -1.
         -5    1    3    3    0  502 -0.44993625910E+02  0.68371922086E+02 -0.14671623399E+03  0.16806810946E+03  0.47000000000E+01 0. -1.
        -11    1    4    4    0    0  0.28223118122E+02 -0.40282115907E+02 -0.13906778061E+03  0.14750946025E+03  0.00000000000E+00 0.  1.
         11    1    4    4    0    0 -0.19260664392E+02 -0.13847579852E+02  0.45190324799E+01  0.24148505443E+02  0.00000000000E+00 0. -1.
<mgrwt>
<rscale>  0 0.12832755E+03</rscale>
<asrwt>0</asrwt>
<pdfrwt beam="2">  1        2 0.51738839E-01 0.13651398E+03</pdfrwt>
<pdfrwt beam="1">  1       -2 0.67670842E-02 0.13651398E+03</pdfrwt>
<totfact> 0.11215773E+04</totfact>
</mgrwt>
</event>
<event>
 8    1  0.8504141E-006  0.1320804E+03  0.7546771E-02  0.1231403E+00
         -1   -1    0    0    0  501 -0.00000000000E+00  0.00000000000E+00  0.56506900231E+02  0.56506900231E+02  0.00000000000E+00 0.  1.
          1   -1    0    0  501    0  0.00000000000E+00 -0.00000000000E+00 -0.29849974459E+03  0.29849974459E+03  0.00000000000E+00 0. -1.
         23    2    1    2    0    0  0.28321471197E+02  0.31914322489E+02 -0.72679287093E+02  0.15075648208E+03  0.12499843362E+03 0.  0.
         23    2    1    2    0    0 -0.28321471197E+02 -0.31914322489E+02 -0.16931355726E+03  0.20425016274E+03  0.10597366934E+03 0.  0.
          5    1    3    3  502    0 -0.13417324437E+02 -0.25588127049E+02  0.18829639673E+02  0.34805490531E+02  0.47000000000E+01 0.  1.
         -5    1    3    3    0  502  0.41738795634E+02  0.57502449537E+02 -0.91508926766E+02  0.11595099155E+03  0.47000000000E+01 0.  1.
        -11    1    4    4    0    0  0.11984379659E+02  0.31105073437E+02 -0.24884664931E+02  0.41598046806E+02  0.00000000000E+00 0.  1.
         11    1    4    4    0    0 -0.40305850856E+02 -0.63019395926E+02 -0.14442889233E+03  0.16265211593E+03  0.00000000000E+00 0. -1.
<mgrwt>
<rscale>  0 0.12737509E+03</rscale>
<asrwt>0</asrwt>
<pdfrwt beam="2">  1        1 0.45923037E-01 0.13208042E+03</pdfrwt>
<pdfrwt beam="1">  1       -1 0.86933693E-02 0.13208042E+03</pdfrwt>
<totfact> 0.63619845E+03</totfact>
</mgrwt>
</event>
<event>
 8    1  0.8504141E-006  0.1606536E+03  0.7546771E-02  0.1194891E+00
          1   -1    0    0  501    0  0.00000000000E+00  0.00000000000E+00  0.44434627443E+02  0.44434627443E+02  0.00000000000E+00 0. -1.
         -1   -1    0    0    0  501 -0.00000000000E+00 -0.00000000000E+00 -0.56391313861E+03  0.56391313861E+03  0.00000000000E+00 0.  1.
         23    2    1    2    0    0 -0.10018532874E+03 -0.11797466044E+02 -0.37829321959E+03  0.41099311854E+03  0.12503320840E+03 0.  0.
         23    2    1    2    0    0  0.10018532874E+03  0.11797466044E+02 -0.14118529158E+03  0.19735464751E+03  0.94017498573E+02 0.  0.
          5    1    3    3  502    0 -0.11055143363E+03  0.19611563933E+02 -0.34870927457E+03  0.36636932334E+03  0.47000000000E+01 0. -1.
         -5    1    3    3    0  502  0.10366104897E+02 -0.31409029978E+02 -0.29583945022E+02  0.44623795199E+02  0.47000000000E+01 0. -1.
        -11    1    4    4    0    0  0.10278910680E+03 -0.57370877372E+01 -0.14631196154E+03  0.17890138273E+03  0.00000000000E+00 0.  1.
         11    1    4    4    0    0 -0.26037780628E+01  0.17534553781E+02  0.51266699572E+01  0.18453264789E+02  0.00000000000E+00 0. -1.
<mgrwt>
<rscale>  0 0.15463455E+03</rscale>
<asrwt>0</asrwt>
<pdfrwt beam="1">  1        1 0.68360966E-02 0.16065361E+03</pdfrwt>
<pdfrwt beam="2">  1       -1 0.86755867E-01 0.16065361E+03</pdfrwt>
<totfact> 0.14587105E+03</totfact>
</mgrwt>
</event>
<event>
 8    1  0.8504141E-006  0.1334897E+03  0.7546771E-02  0.1236625E+00
          2   -1    0    0  501    0  0.00000000000E+00  0.00000000000E+00  0.11443219567E+03  0.11443219567E+03  0.00000000000E+00 0. -1.
         -2   -1    0    0    0  501 -0.00000000000E+00 -0.00000000000E+00 -0.17585410138E+03  0.17585410138E+03  0.00000000000E+00 0.  1.
         23    2    1    2    0    0 -0.85868972672E+01  0.46276079363E+02 -0.11601799047E+03  0.17686057387E+03  0.12491708510E+03 0.  0.
         23    2    1    2    0    0  0.85868972672E+01 -0.46276079363E+02  0.54596084764E+02  0.11342572318E+03  0.87575406836E+02 0.  0.
          5    1    3    3  502    0 -0.23025293969E+02 -0.37217322437E+02 -0.62807937703E+02  0.76695634102E+02  0.47000000000E+01 0.  1.
         -5    1    3    3    0  502  0.14438396702E+02  0.83493401800E+02 -0.53210052769E+02  0.10016493977E+03  0.47000000000E+01 0.  1.
        -11    1    4    4    0    0 -0.20049797030E+01 -0.32669717464E+02  0.77864764404E+02  0.84464500937E+02  0.00000000000E+00 0. -1.
         11    1    4    4    0    0  0.10591876970E+02 -0.13606361898E+02 -0.23268679640E+02  0.28961222248E+02  0.00000000000E+00 0.  1.
<mgrwt>
<rscale>  0 0.12400978E+03</rscale>
<asrwt>0</asrwt>
<pdfrwt beam="1">  1        2 0.17604953E-01 0.13348966E+03</pdfrwt>
<pdfrwt beam="2">  1       -2 0.27054477E-01 0.13348966E+03</pdfrwt>
<totfact> 0.38077117E+03</totfact>
</mgrwt>
</event>
<event>
 8    1  0.8504141E-006  0.1634692E+03  0.7546771E-02  0.1191906E+00
         -2   -1    0    0    0  501 -0.00000000000E+00  0.00000000000E+00  0.44238307201E+02  0.44238307201E+02  0.00000000000E+00 0.  1.
          2   -1    0    0  501    0  0.00000000000E+00 -0.00000000000E+00 -0.66315688893E+03  0.66315688893E+03  0.00000000000E+00 0. -1.
         23    2    1    2    0    0  0.79956586146E+02 -0.68589894655E+02 -0.16426304969E+03  0.23174239394E+03  0.12499823334E+03 0.  0.
         23    2    1    2    0    0 -0.79956586146E+02  0.68589894655E+02 -0.45465553205E+03  0.47565280220E+03  0.91849366368E+02 0.  0.
          5    1    3    3  502    0  0.29178046587E+02 -0.32140056616E+01 -0.14312162801E+03  0.14617653245E+03  0.47000000000E+01 0. -1.
         -5    1    3    3    0  502  0.50778539558E+02 -0.65375888993E+02 -0.21141421677E+02  0.85565861486E+02  0.47000000000E+01 0. -1.
        -11    1    4    4    0    0 -0.59266148267E+02  0.46659190286E+02 -0.43039209379E+03  0.43695184033E+03  0.00000000000E+00 0. -1.
         11    1    4    4    0    0 -0.20690437879E+02  0.21930704369E+02 -0.24263438256E+02  0.38700961871E+02  0.00000000000E+00 0.  1.
<mgrwt>
<rscale>  0 0.15719029E+03</rscale>
<asrwt>0</asrwt>
<pdfrwt beam="2">  1        2 0.10202414E+00 0.16346923E+03</pdfrwt>
<pdfrwt beam="1">  1       -2 0.68058934E-02 0.16346923E+03</pdfrwt>
<totfact> 0.53221258E+03</totfact>
</mgrwt>
</event>
<event>
 8    1  0.8504141E-006  0.1397533E+03  0.7546771E-02  0.1224862E+00
         -2   -1    0    0    0  501 -0.00000000000E+00  0.00000000000E+00  0.47919240988E+02  0.47919240988E+02  0.00000000000E+00 0.  1.
          2   -1    0    0  501    0  0.00000000000E+00 -0.00000000000E+00 -0.38271188946E+03  0.38271188946E+03  0.00000000000E+00 0. -1.
         23    2    1    2    0    0  0.45219736674E+02  0.43663725010E+02 -0.10214272450E+03  0.17310147995E+03  0.12481843103E+03 0.  0.
         23    2    1    2    0    0 -0.45219736674E+02 -0.43663725010E+02 -0.23264992397E+03  0.25752965050E+03  0.90797512611E+02 0.  0.
          5    1    3    3  502    0 -0.12246526247E+02  0.52777332066E+02  0.12174025684E+01  0.54396656645E+02  0.47000000000E+01 0. -1.
         -5    1    3    3    0  502  0.57466262921E+02 -0.91136070554E+01 -0.10336012707E+03  0.11870482330E+03  0.47000000000E+01 0. -1.
        -11    1    4    4    0    0  0.18531729164E+02 -0.40216385315E+02 -0.70374147324E+02  0.83146276196E+02  0.00000000000E+00 0. -1.
         11    1    4    4    0    0 -0.63751465837E+02 -0.34473396949E+01 -0.16227577665E+03  0.17438337430E+03  0.00000000000E+00 0.  1.
<mgrwt>
<rscale>  0 0.13176397E+03</rscale>
<asrwt>0</asrwt>
<pdfrwt beam="2">  1        2 0.58878751E-01 0.13975330E+03</pdfrwt>
<pdfrwt beam="1">  1       -2 0.73721911E-02 0.13975330E+03</pdfrwt>
<totfact> 0.85867863E+03</totfact>
</mgrwt>
</event>
<event>
 8    1  0.8504141E-006  0.1670628E+03  0.7546771E-02  0.1187321E+00
         -3   -1    0    0    0  501 -0.00000000000E+00  0.00000000000E+00  0.98467750191E+02  0.98467750191E+02  0.00000000000E+00 0. -1.
          3   -1    0    0  501    0  0.00000000000E+00 -0.00000000000E+00 -0.28708771985E+03  0.28708771985E+03  0.00000000000E+00 0.  1.
         23    2    1    2    0    0 -0.93404631342E+02  0.59678426715E+02 -0.28281313350E+02  0.16943969925E+03  0.12499615685E+03 0.  0.
         23    2    1    2    0    0  0.93404631342E+02 -0.59678426715E+02 -0.16033865631E+03  0.21611577079E+03  0.93335962557E+02 0.  0.
          5    1    3    3  502    0  0.14838738169E+01  0.68513485023E+02 -0.27584880938E+02  0.74022396393E+02  0.47000000000E+01 0.  1.
         -5    1    3    3    0  502 -0.94888505159E+02 -0.88350583082E+01 -0.69643241234E+00  0.95417302858E+02  0.47000000000E+01 0.  1.
        -11    1    4    4    0    0  0.18057996648E+02  0.19361883984E+02 -0.61599075173E+01  0.27183050877E+02  0.00000000000E+00 0. -1.
         11    1    4    4    0    0  0.75346634694E+02 -0.79040310699E+02 -0.15417874880E+03  0.18893271992E+03  0.00000000000E+00 0.  1.
<mgrwt>
<rscale>  0 0.16122444E+03</rscale>
<asrwt>0</asrwt>
<pdfrwt beam="2">  1        3 0.44167341E-01 0.16706280E+03</pdfrwt>
<pdfrwt beam="1">  1       -3 0.15148885E-01 0.16706280E+03</pdfrwt>
<totfact> 0.44587554E+02</totfact>
</mgrwt>
</event>
<event>
 8    1  0.8504141E-006  0.1899409E+03  0.7546771E-02  0.1163489E+00
          1   -1    0    0  501    0  0.00000000000E+00  0.00000000000E+00  0.10694832535E+04  0.10694832535E+04  0.00000000000E+00 0. -1.
         -1   -1    0    0    0  501 -0.00000000000E+00 -0.00000000000E+00 -0.31756383467E+02  0.31756383467E+02  0.00000000000E+00 0.  1.
         23    2    1    2    0    0 -0.13533342300E+03 -0.46220492607E+02  0.42372426583E+03  0.46434877428E+03  0.12500424554E+03 0.  0.
         23    2    1    2    0    0  0.13533342300E+03  0.46220492607E+02  0.61400260422E+03  0.63689086270E+03  0.90439502947E+02 0.  0.
          5    1    3    3  502    0 -0.48583690284E+02 -0.10411035854E+02  0.32207955809E+03  0.32592345171E+03  0.47000000000E+01 0.  1.
         -5    1    3    3    0  502 -0.86749732712E+02 -0.35809456753E+02  0.10164470773E+03  0.13842532257E+03  0.47000000000E+01 0.  1.
        -11    1    4    4    0    0  0.88485891558E+02 -0.16342987869E+02  0.29274095971E+03  0.30625825009E+03  0.00000000000E+00 0.  1.
         11    1    4    4    0    0  0.46847531437E+02  0.62563480476E+02  0.32126164451E+03  0.33063261262E+03  0.00000000000E+00 0. -1.
<mgrwt>
<rscale>  0 0.18453041E+03</rscale>
<asrwt>0</asrwt>
<pdfrwt beam="1">  1        1 0.16453586E+00 0.18994086E+03</pdfrwt>
<pdfrwt beam="2">  1       -1 0.48855983E-02 0.18994086E+03</pdfrwt>
<totfact> 0.25742318E+03</totfact>
</mgrwt>
</event>
<event>
 8    1  0.8504141E-006  0.1714023E+03  0.7546771E-02  0.1182700E+00
          1   -1    0    0  501    0  0.00000000000E+00  0.00000000000E+00  0.82558704797E+02  0.82558704797E+02  0.00000000000E+00 0. -1.
         -1   -1    0    0    0  501 -0.00000000000E+00 -0.00000000000E+00 -0.31229733826E+03  0.31229733826E+03  0.00000000000E+00 0.  1.
         23    2    1    2    0    0 -0.11723259152E+03 -0.32784846778E+01 -0.10735804750E+03  0.20224857437E+03  0.12499802597E+03 0.  0.
         23    2    1    2    0    0  0.11723259152E+03  0.32784846778E+01 -0.12238058597E+03  0.19260746869E+03  0.91468028276E+02 0.  0.
          5    1    3    3  502    0 -0.13166236218E+01 -0.33787992877E+02  0.88153260029E+01  0.35258501570E+02  0.47000000000E+01 0.  1.
         -5    1    3    3    0  502 -0.11591596790E+03  0.30509508199E+02 -0.11617337350E+03  0.16699007280E+03  0.47000000000E+01 0.  1.
        -11    1    4    4    0    0  0.89262778043E+02  0.32898944221E+02 -0.11809075451E+03  0.15164303603E+03  0.00000000000E+00 0.  1.
         11    1    4    4    0    0  0.27969813475E+02 -0.29620459543E+02 -0.42898314600E+01  0.40964432662E+02  0.00000000000E+00 0. -1.
<mgrwt>
<rscale>  0 0.16542917E+03</rscale>
<asrwt>0</asrwt>
<pdfrwt beam="1">  1        1 0.12701339E-01 0.17140226E+03</pdfrwt>
<pdfrwt beam="2">  1       -1 0.48045744E-01 0.17140226E+03</pdfrwt>
<totfact> 0.20196881E+03</totfact>
</mgrwt>
</event>
<event>
 8    1  0.8504141E-006  0.1994820E+03  0.7546771E-02  0.1154957E+00
         -1   -1    0    0    0  501 -0.00000000000E+00  0.00000000000E+00  0.49951051721E+02  0.49951051721E+02  0.00000000000E+00 0.  1.
          1   -1    0    0  501    0  0.00000000000E+00 -0.00000000000E+00 -0.72060869193E+03  0.72060869193E+03  0.00000000000E+00 0. -1.
         23    2    1    2    0    0 -0.15398323362E+03 -0.21376232846E+02 -0.31708424367E+03  0.37461375994E+03  0.12500108796E+03 0.  0.
         23    2    1    2    0    0  0.15398323362E+03  0.21376232846E+02 -0.35357339654E+03  0.39594598371E+03  0.87128042026E+02 0.  0.
          5    1    3    3  502    0 -0.45599587649E+02  0.35802222646E+02 -0.37203006871E+02  0.69045457927E+02  0.47000000000E+01 0.  1.
         -5    1    3    3    0  502 -0.10838364597E+03 -0.57178455492E+02 -0.27988123680E+03  0.30556830202E+03  0.47000000000E+01 0.  1.
        -11    1    4    4    0    0  0.61347094920E+02  0.57105882141E+01 -0.53802574606E+02  0.81797273226E+02  0.00000000000E+00 0. -1.
         11    1    4    4    0    0  0.92636138696E+02  0.15665644632E+02 -0.29977082193E+03  0.31414871048E+03  0.00000000000E+00 0.  1.
<mgrwt>
<rscale>  0 0.19393723E+03</rscale>
<asrwt>0</asrwt>
<pdfrwt beam="2">  1        1 0.11086288E+00 0.19948196E+03</pdfrwt>
<pdfrwt beam="1">  1       -1 0.76847769E-02 0.19948196E+03</pdfrwt>
<totfact> 0.24543345E+03</totfact>
</mgrwt>
</event>
<event>
 8    1  0.8504141E-006  0.1256993E+03  0.7546771E-02  0.1241781E+00
         -2   -1    0    0    0  501 -0.00000000000E+00  0.00000000000E+00  0.75761993199E+02  0.75761993199E+02  0.00000000000E+00 0.  1.
          2   -1    0    0  501    0  0.00000000000E+00 -0.00000000000E+00 -0.19020819648E+03  0.19020819648E+03  0.00000000000E+00 0. -1.
         23    2    1    2    0    0 -0.12251183436E+02  0.49656187129E+01 -0.29344032707E+02  0.12907901890E+03  0.12500228798E+03 0.  0.
         23    2    1    2    0    0  0.12251183436E+02 -0.49656187129E+01 -0.85102170579E+02  0.13689117078E+03  0.10640518942E+03 0.  0.
          5    1    3    3  502    0 -0.19661135550E+02  0.36754071612E+02  0.36393404671E+02  0.55533700892E+02  0.47000000000E+01 0.  1.
         -5    1    3    3    0  502  0.74099521143E+01 -0.31788452899E+02 -0.65737437378E+02  0.73545318009E+02  0.47000000000E+01 0.  1.
        -11    1    4    4    0    0  0.58874671715E+02 -0.75710905387E+01 -0.57524136591E+02  0.82659389497E+02  0.00000000000E+00 0. -1.
         11    1    4    4    0    0 -0.46623488279E+02  0.26054718257E+01 -0.27578033988E+02  0.54231781286E+02  0.00000000000E+00 0.  1.
<mgrwt>
<rscale>  0 0.12080138E+03</rscale>
<asrwt>0</asrwt>
<pdfrwt beam="2">  1        2 0.29262799E-01 0.12569933E+03</pdfrwt>
<pdfrwt beam="1">  1       -2 0.11655691E-01 0.12569933E+03</pdfrwt>
<totfact> 0.87796710E+03</totfact>
</mgrwt>
</event>
<event>
 8    1  0.8504141E-006  0.1418491E+03  0.7546771E-02  0.1221759E+00
          2   -1    0    0  501    0  0.00000000000E+00  0.00000000000E+00  0.20175463800E+03  0.20175463800E+03  0.00000000000E+00 0. -1.
         -2   -1    0    0    0  501 -0.00000000000E+00 -0.00000000000E+00 -0.88933140483E+02  0.88933140483E+02  0.00000000000E+00 0.  1.
         23    2    1    2    0    0 -0.56161824528E+02  0.36714706392E+02  0.17168603859E+02  0.14288426939E+03  0.12497613084E+03 0.  0.
         23    2    1    2    0    0  0.56161824528E+02 -0.36714706392E+02  0.95652893663E+02  0.14780350910E+03  0.90522268183E+02 0.  0.
          5    1    3    3  502    0 -0.31512415752E+01  0.14636321826E+02  0.65702422588E+02  0.67550355839E+02  0.47000000000E+01 0. -1.
         -5    1    3    3    0  502 -0.53010582952E+02  0.22078384566E+02 -0.48533818728E+02  0.75333913547E+02  0.47000000000E+01 0. -1.
        -11    1    4    4    0    0  0.35889506163E+02  0.18778176819E+02  0.74961565213E+02  0.85205122126E+02  0.00000000000E+00 0. -1.
         11    1    4    4    0    0  0.20272318365E+02 -0.55492883211E+02  0.20691328450E+02  0.62598386976E+02  0.00000000000E+00 0.  1.
<mgrwt>
<rscale>  0 0.13391521E+03</rscale>
<asrwt>0</asrwt>
<pdfrwt beam="1">  1        2 0.31039175E-01 0.14184905E+03</pdfrwt>
<pdfrwt beam="2">  1       -2 0.13682022E-01 0.14184905E+03</pdfrwt>
<totfact> 0.64247206E+03</totfact>
</mgrwt>
</event>
<event>
 8    1  0.8504141E-006  0.1429425E+03  0.7546771E-02  0.1219922E+00
         -3   -1    0    0    0  501 -0.00000000000E+00  0.00000000000E+00  0.60067364125E+02  0.60067364125E+02  0.00000000000E+00 0.  1.
          3   -1    0    0  501    0  0.00000000000E+00 -0.00000000000E+00 -0.27999068101E+03  0.27999068101E+03  0.00000000000E+00 0. -1.
         23    2    1    2    0    0  0.44390722966E+02  0.53274356482E+02 -0.10104854538E+03  0.17505250642E+03  0.12499551246E+03 0.  0.
         23    2    1    2    0    0 -0.44390722966E+02 -0.53274356482E+02 -0.11887477150E+03  0.16500553871E+03  0.91032539035E+02 0.  0.
          5    1    3    3  502    0  0.50689163418E+02 -0.29538062756E+02 -0.51655967244E+02  0.78309114357E+02  0.47000000000E+01 0. -1.
         -5    1    3    3    0  502 -0.62984404521E+01  0.82812419238E+02 -0.49392578139E+02  0.96743392061E+02  0.47000000000E+01 0. -1.
        -11    1    4    4    0    0  0.22938921838E+02 -0.14562967385E+02 -0.57280758253E+01  0.27768417434E+02  0.00000000000E+00 0.  1.
         11    1    4    4    0    0 -0.67329644804E+02 -0.38711389098E+02 -0.11314669567E+03  0.13723712128E+03  0.00000000000E+00 0. -1.
<mgrwt>
<rscale>  0 0.13521095E+03</rscale>
<asrwt>0</asrwt>
<pdfrwt beam="2">  1        3 0.43075489E-01 0.14294255E+03</pdfrwt>
<pdfrwt beam="1">  1       -3 0.92411330E-02 0.14294255E+03</pdfrwt>
<totfact> 0.10508651E+03</totfact>
</mgrwt>
</event>
<event>
 7    1  0.8504141E-006  0.2781408E+03  0.7546771E-02  0.1102365E+00
          2   -1    0    0  501    0  0.00000000000E+00  0.00000000000E+00  0.24428016070E+04  0.24428016070E+04  0.00000000000E+00 0. -1.
         -2   -1    0    0    0  501 -0.00000000000E+00 -0.00000000000E+00 -0.27840413826E+02  0.27840413826E+02  0.00000000000E+00 0.  1.
         23    2    1    2    0    0  0.16867086299E+03 -0.14098588184E+03  0.12581670774E+04  0.12808794680E+04  0.96648527576E+02 0.  0.
          5    1    1    2  502    0 -0.72803645866E+02  0.34642781515E+02  0.81732214092E+03  0.82130266357E+03  0.47000000000E+01 0. -1.
         -5    1    1    2    0  502 -0.95867217127E+02  0.10634310032E+03  0.33947197487E+03  0.36845988931E+03  0.47000000000E+01 0.  1.
        -11    1    3    3    0    0  0.84858393362E+02 -0.12637120114E+03  0.89725920655E+03  0.91007950814E+03  0.00000000000E+00 0.  1.
         11    1    3    3    0    0  0.83812469631E+02 -0.14614680692E+02  0.36090787085E+03  0.37079995981E+03  0.00000000000E+00 0. -1.
<mgrwt>
<rscale>  0 0.26811136E+03</rscale>
<asrwt>0</asrwt>
<pdfrwt beam="1">  1        2 0.37581546E+00 0.27814080E+03</pdfrwt>
<pdfrwt beam="2">  1       -2 0.42831425E-02 0.27814080E+03</pdfrwt>
<totfact> 0.10667066E+03</totfact>
</mgrwt>
</event>
<event>
 8    1  0.8504141E-006  0.1327809E+03  0.7546771E-02  0.1229681E+00
         -1   -1    0    0    0  501 -0.00000000000E+00  0.00000000000E+00  0.63732570249E+02  0.63732570249E+02  0.00000000000E+00 0.  1.
          1   -1    0    0  501    0  0.00000000000E+00 -0.00000000000E+00 -0.26627831902E+03  0.26627831902E+03  0.00000000000E+00 0. -1.
         23    2    1    2    0    0 -0.17781333197E+02 -0.40851201118E+02 -0.59450825249E+02  0.14548250212E+03  0.12508301786E+03 0.  0.
         23    2    1    2    0    0  0.17781333197E+02  0.40851201118E+02 -0.14309492352E+03  0.18452838714E+03  0.10765487486E+03 0.  0.
          5    1    3    3  502    0  0.20689979501E+02  0.21945426600E+02  0.20431558123E+02  0.36731669820E+02  0.47000000000E+01 0. -1.
         -5    1    3    3    0  502 -0.38471312698E+02 -0.62796627718E+02 -0.79882383372E+02  0.10875083230E+03  0.47000000000E+01 0. -1.
        -11    1    4    4    0    0 -0.19036850034E+02 -0.27707112878E+02 -0.20667195996E+02  0.39461611138E+02  0.00000000000E+00 0.  1.
         11    1    4    4    0    0  0.36818183230E+02  0.68558313996E+02 -0.12242772752E+03  0.14506677600E+03  0.00000000000E+00 0. -1.
<mgrwt>
<rscale>  0 0.12851161E+03</rscale>
<asrwt>0</asrwt>
<pdfrwt beam="2">  1        1 0.40965895E-01 0.13278086E+03</pdfrwt>
<pdfrwt beam="1">  1       -1 0.98050108E-02 0.13278086E+03</pdfrwt>
<totfact> 0.61045157E+03</totfact>
</mgrwt>
</event>
<event>
 8    1  0.8504141E-006  0.1819402E+03  0.7546771E-02  0.1171224E+00
          1   -1    0    0  501    0  0.00000000000E+00  0.00000000000E+00  0.11220215745E+03  0.11220215745E+03  0.00000000000E+00 0. -1.
         -1   -1    0    0    0  501 -0.00000000000E+00 -0.00000000000E+00 -0.26980714418E+03  0.26980714418E+03  0.00000000000E+00 0.  1.
         23    2    1    2    0    0  0.20364972150E+02 -0.13062549632E+03 -0.11521847112E+03  0.21535443630E+03  0.12499793905E+03 0.  0.
         23    2    1    2    0    0 -0.20364972150E+02  0.13062549632E+03 -0.42386515611E+02  0.16665486533E+03  0.92192597602E+02 0.  0.
          5    1    3    3  502    0 -0.52763816363E+02 -0.59266987099E+02 -0.54966188463E+02  0.96643509617E+02  0.47000000000E+01 0. -1.
         -5    1    3    3    0  502  0.73128788513E+02 -0.71358509221E+02 -0.60252282655E+02  0.11871092668E+03  0.47000000000E+01 0. -1.
        -11    1    4    4    0    0 -0.21171827503E+02  0.38645735986E+02 -0.58532529495E+02  0.73265245504E+02  0.00000000000E+00 0.  1.
         11    1    4    4    0    0  0.80685535232E+00  0.91979760334E+02  0.16146013884E+02  0.93389619825E+02  0.00000000000E+00 0. -1.
<mgrwt>
<rscale>  0 0.17651052E+03</rscale>
<asrwt>0</asrwt>
<pdfrwt beam="1">  1        1 0.17261870E-01 0.18194020E+03</pdfrwt>
<pdfrwt beam="2">  1       -1 0.41508791E-01 0.18194020E+03</pdfrwt>
<totfact> 0.17641608E+03</totfact>
</mgrwt>
</event>
<event>
 7    1  0.8504141E-006  0.5452087E+03  0.7546771E-02  0.1037143E+00
          1   -1    0    0  501    0  0.00000000000E+00  0.00000000000E+00  0.14697970735E+04  0.14697970735E+04  0.00000000000E+00 0. -1.
         -1   -1    0    0    0  501 -0.00000000000E+00 -0.00000000000E+00 -0.94526317936E+02  0.94526317936E+02  0.00000000000E+00 0.  1.
         23    2    1    2    0    0  0.96139132915E+02 -0.11653758366E+03  0.47011977619E+03  0.50765373184E+03  0.11779629111E+03 0.  0.
          5    1    1    2  502    0  0.17367682315E+03 -0.58938366328E+02  0.15428386337E+03  0.23971435172E+03  0.47000000000E+01 0. -1.
         -5    1    1    2    0  502 -0.26981595607E+03  0.17547594999E+03  0.75086711599E+03  0.81695530786E+03  0.47000000000E+01 0.  1.
        -11    1    3    3    0    0  0.39570391031E+02  0.68326983865E+01  0.40201987505E+02  0.56821663236E+02  0.00000000000E+00 0.  1.
         11    1    3    3    0    0  0.56568741885E+02 -0.12337028204E+03  0.42991778868E+03  0.45083206860E+03  0.00000000000E+00 0. -1.
<mgrwt>
<rscale>  0 0.41976370E+03</rscale>
<asrwt>0</asrwt>
<pdfrwt beam="1">  1        1 0.22612261E+00 0.54520865E+03</pdfrwt>
<pdfrwt beam="2">  1       -1 0.14542512E-01 0.54520865E+03</pdfrwt>
<totfact> 0.24574406E+02</totfact>
</mgrwt>
</event>
<event>
 8    1  0.8504141E-006  0.1460976E+03  0.7546771E-02  0.1215342E+00
          1   -1    0    0  501    0  0.00000000000E+00  0.00000000000E+00  0.11746292852E+03  0.11746292852E+03  0.00000000000E+00 0. -1.
         -1   -1    0    0    0  501 -0.00000000000E+00 -0.00000000000E+00 -0.23958429887E+03  0.23958429887E+03  0.00000000000E+00 0.  1.
         23    2    1    2    0    0 -0.20350336243E+02  0.72840288334E+02 -0.17477084277E+03  0.22779234537E+03  0.12499864534E+03 0.  0.
         23    2    1    2    0    0  0.20350336243E+02 -0.72840288334E+02  0.52649472422E+02  0.12925488203E+03  0.90636713265E+02 0.  0.
          5    1    3    3  502    0 -0.44349545245E+02 -0.18622855671E+02 -0.38147987166E+02  0.61571518104E+02  0.47000000000E+01 0. -1.
         -5    1    3    3    0  502  0.23999209002E+02  0.91463144005E+02 -0.13662285560E+03  0.16622082727E+03  0.47000000000E+01 0. -1.
        -11    1    4    4    0    0  0.23799745339E+02 -0.52279989162E+02 -0.14249007353E+02  0.59183269219E+02  0.00000000000E+00 0.  1.
         11    1    4    4    0    0 -0.34494090956E+01 -0.20560299172E+02  0.66898479775E+02  0.70071612807E+02  0.00000000000E+00 0. -1.
<mgrwt>
<rscale>  0 0.13851446E+03</rscale>
<asrwt>0</asrwt>
<pdfrwt beam="1">  1        1 0.18071220E-01 0.14609759E+03</pdfrwt>
<pdfrwt beam="2">  1       -1 0.36859123E-01 0.14609759E+03</pdfrwt>
<totfact> 0.20327198E+03</totfact>
</mgrwt>
</event>
<event>
 8    1  0.8504141E-006  0.2060330E+03  0.7546771E-02  0.1148372E+00
          2   -1    0    0  501    0  0.00000000000E+00  0.00000000000E+00  0.16923404688E+03  0.16923404688E+03  0.00000000000E+00 0. -1.
         -2   -1    0    0    0  501 -0.00000000000E+00 -0.00000000000E+00 -0.26606079899E+03  0.26606079899E+03  0.00000000000E+00 0.  1.
         23    2    1    2    0    0  0.77637527500E+02  0.14421018505E+03 -0.12973941411E+03  0.24347877485E+03  0.12500174030E+03 0.  0.
         23    2    1    2    0    0 -0.77637527500E+02 -0.14421018505E+03  0.32912662008E+02  0.19181607102E+03  0.94265575017E+02 0.  0.
          5    1    3    3  502    0  0.99269389197E+02  0.10260943290E+03 -0.50928552451E+02  0.15165393106E+03  0.47000000000E+01 0.  1.
         -5    1    3    3    0  502 -0.21631861698E+02  0.41600752151E+02 -0.78810861663E+02  0.91824843784E+02  0.47000000000E+01 0.  1.
        -11    1    4    4    0    0 -0.38620937737E+02 -0.71580701187E+02  0.64213908003E+02  0.10362817954E+03  0.00000000000E+00 0. -1.
         11    1    4    4    0    0 -0.39016589762E+02 -0.72629483863E+02 -0.31301245994E+02  0.88187891480E+02  0.00000000000E+00 0.  1.
<mgrwt>
<rscale>  0 0.20162834E+03</rscale>
<asrwt>0</asrwt>
<pdfrwt beam="1">  1        2 0.26036007E-01 0.20603300E+03</pdfrwt>
<pdfrwt beam="2">  1       -2 0.40932430E-01 0.20603300E+03</pdfrwt>
<totfact> 0.11637669E+03</totfact>
</mgrwt>
</event>
<event>
 8    1  0.8504141E-006  0.1721518E+03  0.7546771E-02  0.1181834E+00
          4   -1    0    0  501    0  0.00000000000E+00  0.00000000000E+00  0.41896730356E+03  0.41896730356E+03  0.00000000000E+00 0. -1.
         -4   -1    0    0    0  501 -0.00000000000E+00 -0.00000000000E+00 -0.62363623087E+02  0.62363623087E+02  0.00000000000E+00 0.  1.
         23    2    1    2    0    0  0.10515742874E+03 -0.54321904086E+02  0.21345182482E+03  0.27422238560E+03  0.12500912433E+03 0.  0.
         23    2    1    2    0    0 -0.10515742874E+03  0.54321904086E+02  0.14315185566E+03  0.20710854105E+03  0.91610806749E+02 0.  0.
          5    1    3    3  502    0  0.81574512948E+02 -0.55951054235E+02  0.53681159569E+02  0.11264403457E+03  0.47000000000E+01 0.  1.
         -5    1    3    3    0  502  0.23582915790E+02  0.16291501488E+01  0.15977066525E+03  0.16157835103E+03  0.47000000000E+01 0.  1.
        -11    1    4    4    0    0 -0.89197333330E+02  0.19714769977E+02  0.14216658788E+03  0.16898572466E+03  0.00000000000E+00 0. -1.
         11    1    4    4    0    0 -0.15960095407E+02  0.34607134109E+02  0.98526777713E+00  0.38122816387E+02  0.00000000000E+00 0.  1.
<mgrwt>
<rscale>  0 0.16623339E+03</rscale>
<asrwt>0</asrwt>
<pdfrwt beam="1">  1        4 0.64456507E-01 0.17215178E+03</pdfrwt>
<pdfrwt beam="2">  1       -4 0.95944038E-02 0.17215178E+03</pdfrwt>
<totfact> 0.32192363E+02</totfact>
</mgrwt>
</event>
<event>
 8    1  0.8504141E-006  0.1342779E+03  0.7546771E-02  0.1230756E+00
         -2   -1    0    0    0  501 -0.00000000000E+00  0.00000000000E+00  0.22232912087E+03  0.22232912087E+03  0.00000000000E+00 0.  1.
          2   -1    0    0  501    0  0.00000000000E+00 -0.00000000000E+00 -0.68324203482E+02  0.68324203482E+02  0.00000000000E+00 0. -1.
         23    2    1    2    0    0 -0.48690275600E+02  0.57348475237E+01  0.10301788656E+03  0.16924311042E+03  0.12500765601E+03 0.  0.
         23    2    1    2    0    0  0.48690275600E+02 -0.57348475237E+01  0.50987030828E+02  0.12141021393E+03  0.98676903677E+02 0.  0.
          5    1    3    3  502    0  0.38206719939E+02  0.10155827759E+02  0.85397395069E+01  0.40717458624E+02  0.47000000000E+01 0. -1.
         -5    1    3    3    0  502 -0.86896995539E+02 -0.44209802351E+01  0.94478147053E+02  0.12852565180E+03  0.47000000000E+01 0. -1.
        -11    1    4    4    0    0  0.72924887074E+01  0.36051174259E+02  0.50640696355E+02  0.62588718507E+02  0.00000000000E+00 0.  1.
         11    1    4    4    0    0  0.41397786892E+02 -0.41786021783E+02  0.34633447274E+00  0.58821495421E+02  0.00000000000E+00 0. -1.
<mgrwt>
<rscale>  0 0.12780095E+03</rscale>
<asrwt>0</asrwt>
<pdfrwt beam="2">  1        2 0.10511416E-01 0.13427787E+03</pdfrwt>
<pdfrwt beam="1">  1       -2 0.34204480E-01 0.13427787E+03</pdfrwt>
<totfact> 0.45966889E+03</totfact>
</mgrwt>
</event>
<event>
 8    1  0.8504141E-006  0.1797596E+03  0.7546771E-02  0.1173422E+00
          3   -1    0    0  501    0  0.00000000000E+00  0.00000000000E+00  0.23193927454E+02  0.23193927454E+02  0.00000000000E+00 0. -1.
         -3   -1    0    0    0  501 -0.00000000000E+00 -0.00000000000E+00 -0.12415509467E+04  0.12415509467E+04  0.00000000000E+00 0.  1.
         23    2    1    2    0    0  0.11836894641E+03 -0.51741430013E+02 -0.60647296145E+03  0.63255274266E+03  0.12500054488E+03 0.  0.
         23    2    1    2    0    0 -0.11836894641E+03  0.51741430013E+02 -0.61188405779E+03  0.63219213149E+03  0.92608897450E+02 0.  0.
          5    1    3    3  502    0  0.12377601302E+03 -0.51360772556E+02 -0.60999578585E+03  0.62456014852E+03  0.47000000000E+01 0. -1.
         -5    1    3    3    0  502 -0.54070666100E+01 -0.38065745748E+00  0.35228243989E+01  0.79925941452E+01  0.47000000000E+01 0. -1.
        -11    1    4    4    0    0 -0.14972348294E+02  0.28284006514E+02 -0.43498796864E+02  0.54002792210E+02  0.00000000000E+00 0. -1.
         11    1    4    4    0    0 -0.10339659812E+03  0.23457423500E+02 -0.56838526093E+03  0.57818933928E+03  0.00000000000E+00 0.  1.
<mgrwt>
<rscale>  0 0.17431452E+03</rscale>
<asrwt>0</asrwt>
<pdfrwt beam="1">  1        3 0.35682957E-02 0.17975962E+03</pdfrwt>
<pdfrwt beam="2">  1       -3 0.19100788E+00 0.17975962E+03</pdfrwt>
<totfact> 0.17096293E+02</totfact>
</mgrwt>
</event>
<event>
 8    1  0.8504141E-006  0.1308525E+03  0.7546771E-02  0.1239446E+00
         -1   -1    0    0    0  501 -0.00000000000E+00  0.00000000000E+00  0.53093708450E+03  0.53093708450E+03  0.00000000000E+00 0.  1.
          1   -1    0    0  501    0  0.00000000000E+00 -0.00000000000E+00 -0.29447919948E+02  0.29447919948E+02  0.00000000000E+00 0. -1.
         23    2    1    2    0    0 -0.13602709128E+02 -0.36209014735E+02  0.38737805148E+03  0.40888155156E+03  0.12500496786E+03 0.  0.
         23    2    1    2    0    0  0.13602709128E+02  0.36209014735E+02  0.11411111307E+03  0.15150345289E+03  0.91846740104E+02 0.  0.
          5    1    3    3  502    0 -0.46484462736E+02 -0.19419294213E+02  0.56206576989E+02  0.75625283870E+02  0.47000000000E+01 0. -1.
         -5    1    3    3    0  502  0.32881753608E+02 -0.16789720522E+02  0.33117147449E+03  0.33325626769E+03  0.47000000000E+01 0. -1.
        -11    1    4    4    0    0  0.36638597940E+01 -0.27772170033E+02  0.11737603070E+02  0.30372497803E+02  0.00000000000E+00 0. -1.
         11    1    4    4    0    0  0.99388493343E+01  0.63981184769E+02  0.10237351000E+03  0.12113095509E+03  0.00000000000E+00 0.  1.
<mgrwt>
<rscale>  0 0.12224068E+03</rscale>
<asrwt>0</asrwt>
<pdfrwt beam="2">  1        1 0.45304496E-02 0.13085247E+03</pdfrwt>
<pdfrwt beam="1">  1       -1 0.81682621E-01 0.13085247E+03</pdfrwt>
<totfact> 0.28714984E+03</totfact>
</mgrwt>
</event>
<event>
 7    1  0.8504141E-006  0.2556803E+03  0.7546771E-02  0.1114295E+00
          2   -1    0    0  501    0  0.00000000000E+00  0.00000000000E+00  0.11887420312E+04  0.11887420312E+04  0.00000000000E+00 0. -1.
         -2   -1    0    0    0  501 -0.00000000000E+00 -0.00000000000E+00 -0.51052962266E+02  0.51052962266E+02  0.00000000000E+00 0.  1.
         23    2    1    2    0    0  0.16316473476E+03 -0.12974347172E+03  0.65577935605E+03  0.69425910447E+03  0.92157697443E+02 0.  0.
          5    1    1    2  502    0 -0.99276686314E+02  0.10186086212E+03  0.44357150661E+03  0.46584253472E+03  0.47000000000E+01 0. -1.
         -5    1    1    2    0  502 -0.63888048445E+02  0.27882609604E+02  0.38338206240E+02  0.79693354241E+02  0.47000000000E+01 0.  1.
        -11    1    3    3    0    0  0.12123512743E+03 -0.38367416162E+02  0.35083088838E+03  0.37316528106E+03  0.00000000000E+00 0.  1.
         11    1    3    3    0    0  0.41929607330E+02 -0.91376055559E+02  0.30494846767E+03  0.32109382341E+03  0.00000000000E+00 0. -1.
<mgrwt>
<rscale>  0 0.24843930E+03</rscale>
<asrwt>0</asrwt>
<pdfrwt beam="1">  1        2 0.18288337E+00 0.25568034E+03</pdfrwt>
<pdfrwt beam="2">  1       -2 0.78543028E-02 0.25568034E+03</pdfrwt>
<totfact> 0.19732780E+03</totfact>
</mgrwt>
</event>
<event>
 8    1  0.8504141E-006  0.1519611E+03  0.7546771E-02  0.1206630E+00
          2   -1    0    0  501    0  0.00000000000E+00  0.00000000000E+00  0.12961694122E+03  0.12961694122E+03  0.00000000000E+00 0. -1.
         -2   -1    0    0    0  501 -0.00000000000E+00 -0.00000000000E+00 -0.15166516244E+03  0.15166516244E+03  0.00000000000E+00 0.  1.
         23    2    1    2    0    0  0.18639174788E+02  0.84375748891E+02 -0.29316259496E+02  0.15476314870E+03  0.12500201314E+03 0.  0.
         23    2    1    2    0    0 -0.18639174788E+02 -0.84375748891E+02  0.72680382821E+01  0.12651895495E+03  0.92127822858E+02 0.  0.
          5    1    3    3  502    0  0.57775475739E+02  0.77781062343E+02  0.11445130679E+02  0.97677941585E+02  0.47000000000E+01 0.  1.
         -5    1    3    3    0  502 -0.39136300951E+02  0.65946865478E+01 -0.40761390174E+02  0.57085207118E+02  0.47000000000E+01 0.  1.
        -11    1    4    4    0    0 -0.22455596937E+01 -0.48229386825E+02  0.49094828511E+02  0.68857958715E+02  0.00000000000E+00 0. -1.
         11    1    4    4    0    0 -0.16393615095E+02 -0.36146362065E+02 -0.41826790229E+02  0.57660996239E+02  0.00000000000E+00 0.  1.
<mgrwt>
<rscale>  0 0.14509714E+03</rscale>
<asrwt>0</asrwt>
<pdfrwt beam="1">  1        2 0.19941068E-01 0.15196114E+03</pdfrwt>
<pdfrwt beam="2">  1       -2 0.23333102E-01 0.15196114E+03</pdfrwt>
<totfact> 0.43116039E+03</totfact>
</mgrwt>
</event>
<event>
 8    1  0.8504141E-006  0.1306366E+03  0.7546771E-02  0.1240617E+00
         -2   -1    0    0    0  501 -0.00000000000E+00  0.00000000000E+00  0.10340758549E+03  0.10340758549E+03  0.00000000000E+00 0. -1.
          2   -1    0    0  501    0  0.00000000000E+00 -0.00000000000E+00 -0.14344119468E+03  0.14344119468E+03  0.00000000000E+00 0.  1.
         23    2    1    2    0    0  0.28685103830E+02  0.24869128691E+02  0.19903835603E+02  0.13214414158E+03  0.12499841094E+03 0.  0.
         23    2    1    2    0    0 -0.28685103830E+02 -0.24869128691E+02 -0.59937444787E+02  0.11470463859E+03  0.90129618234E+02 0.  0.
          5    1    3    3  502    0 -0.17394330646E+02  0.57408299972E+02 -0.19413151522E+02  0.63223698850E+02  0.47000000000E+01 0.  1.
         -5    1    3    3    0  502  0.46079434476E+02 -0.32539171282E+02  0.39316987125E+02  0.68920442729E+02  0.47000000000E+01 0.  1.
        -11    1    4    4    0    0 -0.11432868063E+01 -0.40940803829E+02 -0.70141516277E+02  0.81223696225E+02  0.00000000000E+00 0.  1.
         11    1    4    4    0    0 -0.27541817024E+02  0.16071675138E+02  0.10204071490E+02  0.33480942366E+02  0.00000000000E+00 0. -1.
<mgrwt>
<rscale>  0 0.12151566E+03</rscale>
<asrwt>0</asrwt>
<pdfrwt beam="2">  1        2 0.22067876E-01 0.13063656E+03</pdfrwt>
<pdfrwt beam="1">  1       -2 0.15908859E-01 0.13063656E+03</pdfrwt>
<totfact> 0.72654148E+03</totfact>
</mgrwt>
</event>
<event>
 8    1  0.8504141E-006  0.1427911E+03  0.7546771E-02  0.1219925E+00
         -2   -1    0    0    0  501 -0.00000000000E+00  0.00000000000E+00  0.52736136870E+02  0.52736136870E+02  0.00000000000E+00 0. -1.
          2   -1    0    0  501    0  0.00000000000E+00 -0.00000000000E+00 -0.40010519549E+03  0.40010519549E+03  0.00000000000E+00 0.  1.
         23    2    1    2    0    0  0.61517640881E+02  0.32043246135E+02 -0.84302585689E+02  0.16581983395E+03  0.12481226549E+03 0.  0.
         23    2    1    2    0    0 -0.61517640881E+02 -0.32043246135E+02 -0.26306647293E+03  0.28702149841E+03  0.91466833366E+02 0.  0.
          5    1    3    3  502    0  0.59217593629E+02  0.24257515479E+02 -0.11610869249E+03  0.13265922103E+03  0.47000000000E+01 0.  1.
         -5    1    3    3    0  502  0.23000472520E+01  0.77857306560E+01  0.31806106804E+02  0.33160612920E+02  0.47000000000E+01 0.  1.
        -11    1    4    4    0    0 -0.84478582244E+01 -0.54343421669E+02 -0.15680163943E+03  0.16616656678E+03  0.00000000000E+00 0.  1.
         11    1    4    4    0    0 -0.53069782657E+02  0.22300175534E+02 -0.10626483350E+03  0.12085493163E+03  0.00000000000E+00 0. -1.
<mgrwt>
<rscale>  0 0.13520863E+03</rscale>
<asrwt>0</asrwt>
<pdfrwt beam="2">  1        2 0.61554645E-01 0.14279108E+03</pdfrwt>
<pdfrwt beam="1">  1       -2 0.81132519E-02 0.14279108E+03</pdfrwt>
<totfact> 0.70737977E+03</totfact>
</mgrwt>
</event>
<event>
 8    1  0.8504141E-006  0.1343310E+03  0.7546771E-02  0.1233086E+00
         -3   -1    0    0    0  501 -0.00000000000E+00  0.00000000000E+00  0.16881801906E+03  0.16881801906E+03  0.00000000000E+00 0. -1.
          3   -1    0    0  501    0  0.00000000000E+00 -0.00000000000E+00 -0.89880693936E+02  0.89880693936E+02  0.00000000000E+00 0.  1.
         23    2    1    2    0    0  0.41862846146E+02  0.25820762964E+02  0.13375115882E+02  0.13499520723E+03  0.12500241022E+03 0.  0.
         23    2    1    2    0    0 -0.41862846146E+02 -0.25820762964E+02  0.65562209246E+02  0.12370350577E+03  0.92654974889E+02 0.  0.
          5    1    3    3  502    0  0.39428457788E+02  0.27548718737E+02 -0.51068873398E+02  0.70311130113E+02  0.47000000000E+01 0. -1.
         -5    1    3    3    0  502  0.24343883578E+01 -0.17279557734E+01  0.64443989280E+02  0.64684077114E+02  0.47000000000E+01 0. -1.
        -11    1    4    4    0    0  0.12810112798E+02 -0.37151864787E+02  0.23579475719E+01  0.39369022896E+02  0.00000000000E+00 0.  1.
         11    1    4    4    0    0 -0.54672958944E+02  0.11331101823E+02  0.63204261675E+02  0.84334482877E+02  0.00000000000E+00 0. -1.
<mgrwt>
<rscale>  0 0.12627772E+03</rscale>
<asrwt>0</asrwt>
<pdfrwt beam="2">  1        3 0.13827799E-01 0.13433098E+03</pdfrwt>
<pdfrwt beam="1">  1       -3 0.25972003E-01 0.13433098E+03</pdfrwt>
<totfact> 0.13733665E+03</totfact>
</mgrwt>
</event>
<event>
 8    1  0.8504141E-006  0.1384724E+03  0.7546771E-02  0.1227035E+00
         -1   -1    0    0    0  501 -0.00000000000E+00  0.00000000000E+00  0.11509044696E+03  0.11509044696E+03  0.00000000000E+00 0.  1.
          1   -1    0    0  501    0  0.00000000000E+00 -0.00000000000E+00 -0.13348206467E+03  0.13348206467E+03  0.00000000000E+00 0. -1.
         23    2    1    2    0    0 -0.35123680226E+02 -0.48128859386E+02 -0.20858073838E+02  0.14003450848E+03  0.12499817719E+03 0.  0.
         23    2    1    2    0    0  0.35123680226E+02  0.48128859386E+02  0.24664561296E+01  0.10853800316E+03  0.90688228042E+02 0.  0.
          5    1    3    3  502    0 -0.22525588898E+02 -0.68548113246E+02 -0.59949618773E+02  0.93927060934E+02  0.47000000000E+01 0.  1.
         -5    1    3    3    0  502 -0.12598091329E+02  0.20419253859E+02  0.39091544935E+02  0.46107447541E+02  0.47000000000E+01 0.  1.
        -11    1    4    4    0    0  0.48292049357E+02  0.66340442228E+02  0.14057314807E+02  0.83251332756E+02  0.00000000000E+00 0.  1.
         11    1    4    4    0    0 -0.13168369130E+02 -0.18211582842E+02 -0.11590858677E+02  0.25286670402E+02  0.00000000000E+00 0. -1.
<mgrwt>
<rscale>  0 0.13028362E+03</rscale>
<asrwt>0</asrwt>
<pdfrwt beam="2">  1        1 0.20535702E-01 0.13847240E+03</pdfrwt>
<pdfrwt beam="1">  1       -1 0.17706223E-01 0.13847240E+03</pdfrwt>
<totfact> 0.57852260E+03</totfact>
</mgrwt>
</event>
<event>
 8    1  0.8504141E-006  0.1325930E+03  0.7546771E-02  0.1236284E+00
          3   -1    0    0  501    0  0.00000000000E+00  0.00000000000E+00  0.78964277839E+02  0.78964277839E+02  0.00000000000E+00 0. -1.
         -3   -1    0    0    0  501 -0.00000000000E+00 -0.00000000000E+00 -0.17482724871E+03  0.17482724871E+03  0.00000000000E+00 0.  1.
         23    2    1    2    0    0  0.18929735862E+02 -0.39965045082E+02 -0.59769525838E+02  0.14544176931E+03  0.12500148925E+03 0.  0.
         23    2    1    2    0    0 -0.18929735862E+02  0.39965045082E+02 -0.36093445035E+02  0.10834975724E+03  0.92094480785E+02 0.  0.
          5    1    3    3  502    0 -0.27875781232E+02  0.33738552317E+02 -0.29175917798E+02  0.52807890235E+02  0.47000000000E+01 0.  1.
         -5    1    3    3    0  502  0.46805517095E+02 -0.73703597398E+02 -0.30593608040E+02  0.92633879077E+02  0.47000000000E+01 0.  1.
        -11    1    4    4    0    0 -0.11811208697E+01  0.18861746732E+02 -0.65420231192E+02  0.68095280200E+02  0.00000000000E+00 0.  1.
         11    1    4    4    0    0 -0.17748614992E+02  0.21103298349E+02  0.29326786157E+02  0.40254477039E+02  0.00000000000E+00 0. -1.
<mgrwt>
<rscale>  0 0.12422590E+03</rscale>
<asrwt>0</asrwt>
<pdfrwt beam="1">  1        3 0.12148351E-01 0.13259303E+03</pdfrwt>
<pdfrwt beam="2">  1       -3 0.26896499E-01 0.13259303E+03</pdfrwt>
<totfact> 0.15999908E+03</totfact>
</mgrwt>
</event>
<event>
 8    1  0.8504141E-006  0.1354894E+03  0.7546771E-02  0.1232838E+00
          2   -1    0    0  501    0  0.00000000000E+00  0.00000000000E+00  0.59491702995E+03  0.59491702995E+03  0.00000000000E+00 0. -1.
         -2   -1    0    0    0  501 -0.00000000000E+00 -0.00000000000E+00 -0.25835611477E+02  0.25835611477E+02  0.00000000000E+00 0.  1.
         23    2    1    2    0    0  0.44747641601E+02 -0.27019601164E+02  0.23539025664E+03  0.27159887921E+03  0.12499987196E+03 0.  0.
         23    2    1    2    0    0 -0.44747641601E+02  0.27019601164E+02  0.33369116183E+03  0.34915376221E+03  0.88465518195E+02 0.  0.
          5    1    3    3  502    0  0.71374456756E+02 -0.58780490525E+02  0.14481264152E+03  0.17187859170E+03  0.47000000000E+01 0. -1.
         -5    1    3    3    0  502 -0.26626815155E+02  0.31760889361E+02  0.90577615125E+02  0.99720287505E+02  0.47000000000E+01 0. -1.
        -11    1    4    4    0    0 -0.42626644669E+02 -0.15845090445E+02  0.81431965805E+02  0.93269838543E+02  0.00000000000E+00 0.  1.
         11    1    4    4    0    0 -0.21209969321E+01  0.42864691609E+02  0.25225919602E+03  0.25588392367E+03  0.00000000000E+00 0. -1.
<mgrwt>
<rscale>  0 0.12643857E+03</rscale>
<asrwt>0</asrwt>
<pdfrwt beam="1">  1        2 0.91525687E-01 0.13548940E+03</pdfrwt>
<pdfrwt beam="2">  1       -2 0.39747099E-02 0.13548940E+03</pdfrwt>
<totfact> 0.13433175E+04</totfact>
</mgrwt>
</event>
<event>
 8    1  0.8504141E-006  0.1508035E+03  0.7546771E-02  0.1209569E+00
          2   -1    0    0  501    0  0.00000000000E+00  0.00000000000E+00  0.81788903855E+03  0.81788903855E+03  0.00000000000E+00 0. -1.
         -2   -1    0    0    0  501 -0.00000000000E+00 -0.00000000000E+00 -0.23098608546E+02  0.23098608546E+02  0.00000000000E+00 0.  1.
         23    2    1    2    0    0 -0.66494537942E+02 -0.51909462093E+02  0.38067968451E+03  0.40946149411E+03  0.12500230852E+03 0.  0.
         23    2    1    2    0    0  0.66494537942E+02  0.51909462093E+02  0.41411074550E+03  0.43152615299E+03  0.87241018689E+02 0.  0.
          5    1    3    3  502    0  0.18732399441E+02 -0.48635240607E+02  0.70897454019E+02  0.88118263738E+02  0.47000000000E+01 0.  1.
         -5    1    3    3    0  502 -0.85226937384E+02 -0.32742214862E+01  0.30978223049E+03  0.32134323037E+03  0.47000000000E+01 0.  1.
        -11    1    4    4    0    0 -0.15034992764E+02 -0.78013802526E+01  0.31164462079E+02  0.35470216210E+02  0.00000000000E+00 0.  1.
         11    1    4    4    0    0  0.81529530706E+02  0.59710842346E+02  0.38294628342E+03  0.39605593678E+03  0.00000000000E+00 0. -1.
<mgrwt>
<rscale>  0 0.14283125E+03</rscale>
<asrwt>0</asrwt>
<pdfrwt beam="1">  1        2 0.12582906E+00 0.15080349E+03</pdfrwt>
<pdfrwt beam="2">  1       -2 0.35536327E-02 0.15080349E+03</pdfrwt>
<totfact> 0.10932921E+04</totfact>
</mgrwt>
</event>
<event>
 8    1  0.8504141E-006  0.1424380E+03  0.7546771E-02  0.1220129E+00
         -1   -1    0    0    0  501 -0.00000000000E+00  0.00000000000E+00  0.53112072987E+02  0.53112072987E+02  0.00000000000E+00 0.  1.
          1   -1    0    0  501    0  0.00000000000E+00 -0.00000000000E+00 -0.31289269334E+03  0.31289269334E+03  0.00000000000E+00 0. -1.
         23    2    1    2    0    0  0.42386255869E+02 -0.53535378525E+02 -0.13590560527E+03  0.19687287315E+03  0.12500385274E+03 0.  0.
         23    2    1    2    0    0 -0.42386255869E+02  0.53535378525E+02 -0.12387501509E+03  0.16913189318E+03  0.92725112489E+02 0.  0.
          5    1    3    3  502    0 -0.30064487023E+02 -0.78903021905E+01 -0.98348072128E+02  0.10325000504E+03  0.47000000000E+01 0.  1.
         -5    1    3    3    0  502  0.72450742892E+02 -0.45645076334E+02 -0.37557533142E+02  0.93622868119E+02  0.47000000000E+01 0.  1.
        -11    1    4    4    0    0  0.98716138165E+01  0.10702034938E+02  0.11020272589E+02  0.18260030643E+02  0.00000000000E+00 0.  1.
         11    1    4    4    0    0 -0.52257869686E+02  0.42833343586E+02 -0.13489528768E+03  0.15087186253E+03  0.00000000000E+00 0. -1.
<mgrwt>
<rscale>  0 0.13506406E+03</rscale>
<asrwt>0</asrwt>
<pdfrwt beam="2">  1        1 0.48137338E-01 0.14243804E+03</pdfrwt>
<pdfrwt beam="1">  1       -1 0.81710881E-02 0.14243804E+03</pdfrwt>
<totfact> 0.66224117E+03</totfact>
</mgrwt>
</event>
<event>
 7    1  0.8504141E-006  0.2160829E+03  0.7546771E-02  0.1139436E+00
         -2   -1    0    0    0  501 -0.00000000000E+00  0.00000000000E+00  0.11426771758E+03  0.11426771758E+03  0.00000000000E+00 0.  1.
          2   -1    0    0  501    0  0.00000000000E+00 -0.00000000000E+00 -0.39913910551E+03  0.39913910551E+03  0.00000000000E+00 0. -1.
         23    2    1    2    0    0 -0.16113279552E+03 -0.50799758544E+02 -0.88301880297E+02  0.22129148011E+03  0.11237572624E+03 0.  0.
          5    1    3    3  502    0 -0.12754023973E+03 -0.63687781922E+02 -0.20108822077E+02  0.14404548255E+03  0.47000000000E+01 0. -1.
         -5    1    3    3    0  502 -0.33592555788E+02  0.12888023378E+02 -0.68193058220E+02  0.77245997569E+02  0.47000000000E+01 0.  1.
        -11    1    1    2    0    0  0.14338779649E+03 -0.17085930061E+02 -0.11560454221E+03  0.18497675359E+03  0.00000000000E+00 0.  1.
         11    1    1    2    0    0  0.17744999025E+02  0.67885688605E+02 -0.80964965429E+02  0.10713858938E+03  0.00000000000E+00 0. -1.
<mgrwt>
<rscale>  0 0.21271171E+03</rscale>
<asrwt>0</asrwt>
<pdfrwt beam="2">  1        2 0.61406017E-01 0.21608286E+03</pdfrwt>
<pdfrwt beam="1">  1       -2 0.17579649E-01 0.21608286E+03</pdfrwt>
<totfact> 0.20813154E+03</totfact>
</mgrwt>
</event>
<event>
 8    1  0.8504141E-006  0.1518920E+03  0.7546771E-02  0.1206921E+00
         -2   -1    0    0    0  501 -0.00000000000E+00  0.00000000000E+00  0.97505921540E+02  0.97505921540E+02  0.00000000000E+00 0.  1.
          2   -1    0    0  501    0  0.00000000000E+00 -0.00000000000E+00 -0.22243164984E+03  0.22243164984E+03  0.00000000000E+00 0. -1.
         23    2    1    2    0    0  0.81322903176E+02 -0.28823527774E+02 -0.14422000784E+02  0.15257511926E+03  0.12500785006E+03 0.  0.
         23    2    1    2    0    0 -0.81322903176E+02  0.28823527774E+02 -0.11050372752E+03  0.16736245212E+03  0.91405176282E+02 0.  0.
          5    1    3    3  502    0 -0.28231231539E+01 -0.61248067366E+02 -0.85555095440E+01  0.62085284279E+02  0.47000000000E+01 0. -1.
         -5    1    3    3    0  502  0.84146026330E+02  0.32424539592E+02 -0.58664912395E+01  0.90489834978E+02  0.47000000000E+01 0. -1.
        -11    1    4    4    0    0 -0.99289025064E+02  0.13141943104E+02 -0.77468312025E+02  0.12661895804E+03  0.00000000000E+00 0.  1.
         11    1    4    4    0    0  0.17966121888E+02  0.15681584670E+02 -0.33035415490E+02  0.40743494083E+02  0.00000000000E+00 0. -1.
<mgrwt>
<rscale>  0 0.14487059E+03</rscale>
<asrwt>0</asrwt>
<pdfrwt beam="2">  1        2 0.34220253E-01 0.15189198E+03</pdfrwt>
<pdfrwt beam="1">  1       -2 0.15000911E-01 0.15189198E+03</pdfrwt>
<totfact> 0.49989369E+03</totfact>
</mgrwt>
</event>
<event>
 8    1  0.8504141E-006  0.1630619E+03  0.7546771E-02  0.1192325E+00
         -2   -1    0    0    0  501 -0.00000000000E+00  0.00000000000E+00  0.31303500993E+03  0.31303500993E+03  0.00000000000E+00 0.  1.
          2   -1    0    0  501    0  0.00000000000E+00 -0.00000000000E+00 -0.75415100396E+02  0.75415100396E+02  0.00000000000E+00 0. -1.
         23    2    1    2    0    0 -0.10467361522E+03 -0.28309008342E+01  0.16155714762E+03  0.22954280389E+03  0.12499842858E+03 0.  0.
         23    2    1    2    0    0  0.10467361522E+03  0.28309008342E+01  0.76062761914E+02  0.15890730644E+03  0.92203083282E+02 0.  0.
          5    1    3    3  502    0 -0.60017646414E+02 -0.63068728825E+02  0.75824567596E+02  0.11554755509E+03  0.47000000000E+01 0. -1.
         -5    1    3    3    0  502 -0.44655968803E+02  0.60237827991E+02  0.85732580025E+02  0.11399524880E+03  0.47000000000E+01 0. -1.
        -11    1    4    4    0    0  0.32703476271E+02 -0.67593426112E+01 -0.19668819470E+02  0.38756528896E+02  0.00000000000E+00 0. -1.
         11    1    4    4    0    0  0.71970138946E+02  0.95902434454E+01  0.95731581384E+02  0.12015077754E+03  0.00000000000E+00 0.  1.
<mgrwt>
<rscale>  0 0.15682813E+03</rscale>
<asrwt>0</asrwt>
<pdfrwt beam="2">  1        2 0.11602323E-01 0.16306191E+03</pdfrwt>
<pdfrwt beam="1">  1       -2 0.48159232E-01 0.16306191E+03</pdfrwt>
<totfact> 0.21505050E+03</totfact>
</mgrwt>
</event>
<event>
 8    1  0.8504141E-006  0.1306217E+03  0.7546771E-02  0.1241347E+00
         -2   -1    0    0    0  501 -0.00000000000E+00  0.00000000000E+00  0.80377347631E+02  0.80377347631E+02  0.00000000000E+00 0.  1.
          2   -1    0    0  501    0  0.00000000000E+00 -0.00000000000E+00 -0.17244191993E+03  0.17244191993E+03  0.00000000000E+00 0. -1.
         23    2    1    2    0    0  0.37895162300E+02 -0.14128550653E+01 -0.19291445392E+02  0.13203859357E+03  0.12499596330E+03 0.  0.
         23    2    1    2    0    0 -0.37895162300E+02  0.14128550653E+01 -0.72773126908E+02  0.12078067400E+03  0.88622817183E+02 0.  0.
          5    1    3    3  502    0  0.53471250299E+02 -0.43290897475E+02  0.20585944100E+02  0.71966294244E+02  0.47000000000E+01 0. -1.
         -5    1    3    3    0  502 -0.15576087998E+02  0.41878042410E+02 -0.39877389492E+02  0.60072299324E+02  0.47000000000E+01 0. -1.
        -11    1    4    4    0    0  0.25674184555E+02  0.71163722676E+01 -0.39764293045E+01  0.26937306785E+02  0.00000000000E+00 0.  1.
         11    1    4    4    0    0 -0.63569346856E+02 -0.57035172023E+01 -0.68796697604E+02  0.93843367210E+02  0.00000000000E+00 0. -1.
<mgrwt>
<rscale>  0 0.12106690E+03</rscale>
<asrwt>0</asrwt>
<pdfrwt beam="2">  1        2 0.26529526E-01 0.13062171E+03</pdfrwt>
<pdfrwt beam="1">  1       -2 0.12365746E-01 0.13062171E+03</pdfrwt>
<totfact> 0.89164584E+03</totfact>
</mgrwt>
</event>
<event>
 8    1  0.8504141E-006  0.1447528E+03  0.7546771E-02  0.1214780E+00
         -2   -1    0    0    0  501 -0.00000000000E+00  0.00000000000E+00  0.56844217842E+02  0.56844217842E+02  0.00000000000E+00 0.  1.
          2   -1    0    0  501    0  0.00000000000E+00 -0.00000000000E+00 -0.31783594932E+03  0.31783594932E+03  0.00000000000E+00 0. -1.
         23    2    1    2    0    0  0.61544162657E+02  0.54015615299E+02 -0.12307161790E+03  0.18999999569E+03  0.11936500567E+03 0.  0.
         23    2    1    2    0    0 -0.61544162657E+02 -0.54015615299E+02 -0.13792011358E+03  0.18468017147E+03  0.91539266710E+02 0.  0.
          5    1    3    3  502    0 -0.21007847575E+02  0.11134216729E+02 -0.86671716148E+02  0.89996537833E+02  0.47000000000E+01 0. -1.
         -5    1    3    3    0  502  0.82552010232E+02  0.42881398570E+02 -0.36399901749E+02  0.10000345786E+03  0.47000000000E+01 0.  1.
        -11    1    4    4    0    0 -0.32307765551E+02 -0.77709368423E+02 -0.10591086695E+03  0.13527619670E+03  0.00000000000E+00 0. -1.
         11    1    4    4    0    0 -0.29236397106E+02  0.23693753124E+02 -0.32009246625E+02  0.49403974763E+02  0.00000000000E+00 0.  1.
<mgrwt>
<rscale>  0 0.13892734E+03</rscale>
<asrwt>0</asrwt>
<pdfrwt beam="2">  1        2 0.48897838E-01 0.14475281E+03</pdfrwt>
<pdfrwt beam="1">  1       -2 0.87452643E-02 0.14475281E+03</pdfrwt>
<totfact> 0.80533255E+03</totfact>
</mgrwt>
</event>
<event>
 8    1  0.8504141E-006  0.1435380E+03  0.7546771E-02  0.1219029E+00
          3   -1    0    0  501    0  0.00000000000E+00  0.00000000000E+00  0.48663716182E+02  0.48663716182E+02  0.00000000000E+00 0. -1.
         -3   -1    0    0    0  501 -0.00000000000E+00 -0.00000000000E+00 -0.34445066660E+03  0.34445066660E+03  0.00000000000E+00 0.  1.
         23    2    1    2    0    0  0.14844422869E+02 -0.68975863423E+02 -0.17251483380E+03  0.22442043398E+03  0.12500054673E+03 0.  0.
         23    2    1    2    0    0 -0.14844422869E+02  0.68975863423E+02 -0.12327211662E+03  0.16869394880E+03  0.91014323055E+02 0.  0.
          5    1    3    3  502    0 -0.35310785292E+02 -0.47784913302E+02 -0.20741271948E+02  0.63107367710E+02  0.47000000000E+01 0.  1.
         -5    1    3    3    0  502  0.50155208161E+02 -0.21190950121E+02 -0.15177356185E+03  0.16131306627E+03  0.47000000000E+01 0.  1.
        -11    1    4    4    0    0 -0.42607233831E+02  0.72867194749E+02 -0.10697524222E+03  0.13626704258E+03  0.00000000000E+00 0.  1.
         11    1    4    4    0    0  0.27762810962E+02 -0.38913313257E+01 -0.16296874401E+02  0.32426906224E+02  0.00000000000E+00 0. -1.
<mgrwt>
<rscale>  0 0.13584693E+03</rscale>
<asrwt>0</asrwt>
<pdfrwt beam="1">  1        3 0.74867253E-02 0.14353802E+03</pdfrwt>
<pdfrwt beam="2">  1       -3 0.52992412E-01 0.14353802E+03</pdfrwt>
<totfact> 0.98280153E+02</totfact>
</mgrwt>
</event>
<event>
 7    1  0.8504141E-006  0.2812138E+03  0.7546771E-02  0.1095028E+00
          1   -1    0    0  501    0  0.00000000000E+00  0.00000000000E+00  0.47373966538E+03  0.47373966538E+03  0.00000000000E+00 0. -1.
         -1   -1    0    0    0  501 -0.00000000000E+00 -0.00000000000E+00 -0.41732416682E+02  0.41732416682E+02  0.00000000000E+00 0.  1.
         23    2    1    2    0    0  0.37635114385E+02 -0.33411074388E+02  0.27935799755E+03  0.29773684121E+03  0.89853403351E+02 0.  0.
          5    1    1    2  502    0  0.40369372921E+02 -0.19916223439E+02  0.99286779430E+02  0.10911597864E+03  0.47000000000E+01 0. -1.
         -5    1    1    2    0  502 -0.78004487306E+02  0.53327297828E+02  0.53362471713E+02  0.10861926220E+03  0.47000000000E+01 0.  1.
        -11    1    3    3    0    0 -0.36247455986E+01 -0.46957395463E+02  0.73111122760E+02  0.86967649391E+02  0.00000000000E+00 0.  1.
         11    1    3    3    0    0  0.41259859984E+02  0.13546321075E+02  0.20624687479E+03  0.21076919182E+03  0.00000000000E+00 0. -1.
<mgrwt>
<rscale>  0 0.28121381E+03</rscale>
<asrwt>0</asrwt>
<pdfrwt beam="1">  1        1 0.72883021E-01 0.28121381E+03</pdfrwt>
<pdfrwt beam="2">  1       -1 0.64203721E-02 0.28121381E+03</pdfrwt>
<totfact> 0.58269814E+03</totfact>
</mgrwt>
</event>
<event>
 8    1  0.8504141E-006  0.1746762E+03  0.7546771E-02  0.1179185E+00
         -1   -1    0    0    0  501 -0.00000000000E+00  0.00000000000E+00  0.78668341318E+02  0.78668341318E+02  0.00000000000E+00 0.  1.
          1   -1    0    0  501    0  0.00000000000E+00 -0.00000000000E+00 -0.33974073808E+03  0.33974073808E+03  0.00000000000E+00 0. -1.
         23    2    1    2    0    0  0.11934016799E+03  0.25282519798E+02 -0.13168208136E+03  0.21875085059E+03  0.12502192839E+03 0.  0.
         23    2    1    2    0    0 -0.11934016799E+03 -0.25282519798E+02 -0.12939031540E+03  0.19965822880E+03  0.90775950046E+02 0.  0.
          5    1    3    3  502    0  0.42429385235E+02  0.70853824529E+02 -0.81496832563E+02  0.11612209480E+03  0.47000000000E+01 0.  1.
         -5    1    3    3    0  502  0.76910782757E+02 -0.45571304731E+02 -0.50185248798E+02  0.10262875580E+03  0.47000000000E+01 0.  1.
        -11    1    4    4    0    0 -0.12062854758E+02 -0.39776368689E+02 -0.52084684832E+02  0.66636974459E+02  0.00000000000E+00 0. -1.
         11    1    4    4    0    0 -0.10727731323E+03  0.14493848891E+02 -0.77305630565E+02  0.13302125434E+03  0.00000000000E+00 0.  1.
<mgrwt>
<rscale>  0 0.16872420E+03</rscale>
<asrwt>0</asrwt>
<pdfrwt beam="2">  1        1 0.52267806E-01 0.17467617E+03</pdfrwt>
<pdfrwt beam="1">  1       -1 0.12102822E-01 0.17467617E+03</pdfrwt>
<totfact> 0.33084704E+03</totfact>
</mgrwt>
</event>
<event>
 8    1  0.8504141E-006  0.2319753E+03  0.7546771E-02  0.1128218E+00
          2   -1    0    0  501    0  0.00000000000E+00  0.00000000000E+00  0.42247228424E+03  0.42247228424E+03  0.00000000000E+00 0. -1.
         -2   -1    0    0    0  501 -0.00000000000E+00 -0.00000000000E+00 -0.11896047111E+03  0.11896047111E+03  0.00000000000E+00 0.  1.
         23    2    1    2    0    0  0.60611958153E+02  0.18578121140E+03  0.17317193848E+03  0.28948411058E+03  0.12499624804E+03 0.  0.
         23    2    1    2    0    0 -0.60611958153E+02 -0.18578121140E+03  0.13033987465E+03  0.25194864477E+03  0.91110749608E+02 0.  0.
          5    1    3    3  502    0  0.59217661281E+02  0.56621058524E+02  0.12900029723E+03  0.15289160330E+03  0.47000000000E+01 0. -1.
         -5    1    3    3    0  502  0.13942968722E+01  0.12916015288E+03  0.44171641250E+02  0.13659250728E+03  0.47000000000E+01 0. -1.
        -11    1    4    4    0    0 -0.55245903135E+02 -0.12080326398E+03  0.36640070714E+02  0.13779707248E+03  0.00000000000E+00 0.  1.
         11    1    4    4    0    0 -0.53660550179E+01 -0.64977947416E+02  0.93699803938E+02  0.11415157228E+03  0.00000000000E+00 0. -1.
<mgrwt>
<rscale>  0 0.22777224E+03</rscale>
<asrwt>0</asrwt>
<pdfrwt beam="1">  1        2 0.64995735E-01 0.23197528E+03</pdfrwt>
<pdfrwt beam="2">  1       -2 0.18301611E-01 0.23197528E+03</pdfrwt>
<totfact> 0.18311040E+03</totfact>
</mgrwt>
</event>
<event>
 8    1  0.8504141E-006  0.2331789E+03  0.7546771E-02  0.1127207E+00
         -1   -1    0    0    0  501 -0.00000000000E+00  0.00000000000E+00  0.37147918904E+03  0.37147918904E+03  0.00000000000E+00 0.  1.
          1   -1    0    0  501    0  0.00000000000E+00 -0.00000000000E+00 -0.15103005608E+03  0.15103005608E+03  0.00000000000E+00 0. -1.
         23    2    1    2    0    0 -0.14308604770E+03  0.13517890118E+03  0.19386047480E+03  0.30323965292E+03  0.12500180418E+03 0.  0.
         23    2    1    2    0    0  0.14308604770E+03 -0.13517890118E+03  0.26588658162E+02  0.21926959220E+03  0.92872196866E+02 0.  0.
          5    1    3    3  502    0 -0.17066632245E+02 -0.22770241814E+02  0.11617045536E+02  0.31093401156E+02  0.47000000000E+01 0. -1.
         -5    1    3    3    0  502 -0.12601941545E+03  0.15794914299E+03  0.18224342926E+03  0.27214625177E+03  0.47000000000E+01 0. -1.
        -11    1    4    4    0    0  0.13830725325E+03 -0.12562141995E+03  0.50101992456E+02  0.19344210270E+03  0.00000000000E+00 0.  1.
         11    1    4    4    0    0  0.47787944450E+01 -0.95574812331E+01 -0.23513334294E+02  0.25827489493E+02  0.00000000000E+00 0. -1.
<mgrwt>
<rscale>  0 0.22919619E+03</rscale>
<asrwt>0</asrwt>
<pdfrwt beam="2">  1        1 0.23235393E-01 0.23317891E+03</pdfrwt>
<pdfrwt beam="1">  1       -1 0.57150644E-01 0.23317891E+03</pdfrwt>
<totfact> 0.67216127E+02</totfact>
</mgrwt>
</event>
<event>
 8    1  0.8504141E-006  0.1467188E+03  0.7546771E-02  0.1214091E+00
          1   -1    0    0  501    0  0.00000000000E+00  0.00000000000E+00  0.72152284888E+03  0.72152284888E+03  0.00000000000E+00 0. -1.
         -1   -1    0    0    0  501 -0.00000000000E+00 -0.00000000000E+00 -0.27743384478E+02  0.27743384478E+02  0.00000000000E+00 0.  1.
         23    2    1    2    0    0 -0.36092987951E+02  0.67818573725E+02  0.25237455505E+03  0.29192348176E+03  0.12499736176E+03 0.  0.
         23    2    1    2    0    0  0.36092987951E+02 -0.67818573725E+02  0.44140490936E+03  0.45734275160E+03  0.91771649841E+02 0.  0.
          5    1    3    3  502    0  0.43758831983E+02  0.44222832527E+02  0.12447893677E+03  0.13923932632E+03  0.47000000000E+01 0.  1.
         -5    1    3    3    0  502 -0.79851819935E+02  0.23595741198E+02  0.12789561828E+03  0.15268415544E+03  0.47000000000E+01 0.  1.
        -11    1    4    4    0    0 -0.29607914407E+02 -0.82583884953E+01  0.10076259529E+03  0.10534671416E+03  0.00000000000E+00 0.  1.
         11    1    4    4    0    0  0.65700902359E+02 -0.59560185230E+02  0.34064231407E+03  0.35199603743E+03  0.00000000000E+00 0. -1.
<mgrwt>
<rscale>  0 0.13943529E+03</rscale>
<asrwt>0</asrwt>
<pdfrwt beam="1">  1        1 0.11100350E+00 0.14671879E+03</pdfrwt>
<pdfrwt beam="2">  1       -1 0.42682135E-02 0.14671879E+03</pdfrwt>
<totfact> 0.58419691E+03</totfact>
</mgrwt>
</event>
<event>
 8    1  0.8504141E-006  0.2401888E+03  0.7546771E-02  0.1122302E+00
         -1   -1    0    0    0  501 -0.00000000000E+00  0.00000000000E+00  0.24112838898E+02  0.24112838898E+02  0.00000000000E+00 0.  1.
          1   -1    0    0  501    0  0.00000000000E+00 -0.00000000000E+00 -0.23904816296E+04  0.23904816296E+04  0.00000000000E+00 0. -1.
         23    2    1    2    0    0 -0.19466987231E+03 -0.64573536883E+02 -0.15197948132E+04  0.15386575106E+04  0.12499823890E+03 0.  0.
         23    2    1    2    0    0  0.19466987231E+03  0.64573536883E+02 -0.84657397746E+03  0.87593695789E+03  0.92260251692E+02 0.  0.
          5    1    3    3  502    0 -0.37081778154E+02  0.29884392865E+02 -0.17747566734E+03  0.18381468306E+03  0.47000000000E+01 0. -1.
         -5    1    3    3    0  502 -0.15758809416E+03 -0.94457929748E+02 -0.13423191459E+04  0.13548428275E+04  0.47000000000E+01 0. -1.
        -11    1    4    4    0    0  0.14951872546E+02  0.29113439329E+02 -0.60331657789E+02  0.68637160298E+02  0.00000000000E+00 0.  1.
         11    1    4    4    0    0  0.17971799976E+03  0.35460097554E+02 -0.78624231967E+03  0.80729979759E+03  0.00000000000E+00 0. -1.
<mgrwt>
<rscale>  0 0.23627068E+03</rscale>
<asrwt>0</asrwt>
<pdfrwt beam="2">  1        1 0.36776637E+00 0.24018880E+03</pdfrwt>
<pdfrwt beam="1">  1       -1 0.37096679E-02 0.24018880E+03</pdfrwt>
<totfact> 0.51816089E+02</totfact>
</mgrwt>
</event>
<event>
 8    1  0.8504141E-006  0.1273730E+03  0.7546771E-02  0.1247681E+00
          2   -1    0    0  501    0  0.00000000000E+00  0.00000000000E+00  0.91493703605E+02  0.91493703605E+02  0.00000000000E+00 0. -1.
         -2   -1    0    0    0  501 -0.00000000000E+00 -0.00000000000E+00 -0.16764851067E+03  0.16764851067E+03  0.00000000000E+00 0.  1.
         23    2    1    2    0    0  0.16670130150E+02  0.17911858866E+02 -0.10297730436E+03  0.16379316525E+03  0.12500059136E+03 0.  0.
         23    2    1    2    0    0 -0.16670130150E+02 -0.17911858866E+02  0.26822497289E+02  0.95349049034E+02  0.88166132180E+02 0.  0.
          5    1    3    3  502    0  0.51987392236E+02 -0.45235718502E+01 -0.10930724970E+03  0.12121599107E+03  0.47000000000E+01 0.  1.
         -5    1    3    3    0  502 -0.35317262086E+02  0.22435430716E+02  0.63299453442E+01  0.42577174175E+02  0.47000000000E+01 0.  1.
        -11    1    4    4    0    0 -0.51482923093E+02 -0.14586741276E+01  0.23767156890E+02  0.56722983411E+02  0.00000000000E+00 0.  1.
         11    1    4    4    0    0  0.34812792943E+02 -0.16453184739E+02  0.30553403985E+01  0.38626065623E+02  0.00000000000E+00 0. -1.
<mgrwt>
<rscale>  0 0.11726316E+03</rscale>
<asrwt>0</asrwt>
<pdfrwt beam="1">  1        2 0.14075954E-01 0.12737298E+03</pdfrwt>
<pdfrwt beam="2">  1       -2 0.25792078E-01 0.12737298E+03</pdfrwt>
<totfact> 0.53552851E+03</totfact>
</mgrwt>
</event>
<event>
 8    1  0.8504141E-006  0.1291940E+03  0.7546771E-02  0.1242776E+00
          1   -1    0    0  501    0  0.00000000000E+00  0.00000000000E+00  0.29211666668E+02  0.29211666668E+02  0.00000000000E+00 0. -1.
         -1   -1    0    0    0  501 -0.00000000000E+00 -0.00000000000E+00 -0.44677387007E+03  0.44677387007E+03  0.00000000000E+00 0.  1.
         23    2    1    2    0    0 -0.29452153666E+02 -0.14073333732E+02 -0.27282831871E+03  0.30187145792E+03  0.12500239013E+03 0.  0.
         23    2    1    2    0    0  0.29452153666E+02  0.14073333732E+02 -0.14473388469E+03  0.17411407882E+03  0.91117105898E+02 0.  0.
          5    1    3    3  502    0  0.26895411599E+02  0.38704362728E+02 -0.14418657581E+03  0.15176708965E+03  0.47000000000E+01 0.  1.
         -5    1    3    3    0  502 -0.56347565264E+02 -0.52777696460E+02 -0.12864174290E+03  0.15010436826E+03  0.47000000000E+01 0.  1.
        -11    1    4    4    0    0  0.34053206413E+02 -0.20938358799E+02 -0.12972402498E+03  0.13574372322E+03  0.00000000000E+00 0.  1.
         11    1    4    4    0    0 -0.46010527474E+01  0.35011692530E+02 -0.15009859708E+02  0.38370355597E+02  0.00000000000E+00 0. -1.
<mgrwt>
<rscale>  0 0.12019503E+03</rscale>
<asrwt>0</asrwt>
<pdfrwt beam="1">  1        1 0.44941023E-02 0.12919398E+03</pdfrwt>
<pdfrwt beam="2">  1       -1 0.68734446E-01 0.12919398E+03</pdfrwt>
<totfact> 0.41024230E+03</totfact>
</mgrwt>
</event>
<event>
 7    1  0.8504141E-006  0.1418452E+03  0.7546771E-02  0.1226264E+00
          2   -1    0    0  501    0  0.00000000000E+00  0.00000000000E+00  0.27010136526E+03  0.27010136526E+03  0.00000000000E+00 0. -1.
         -2   -1    0    0    0  501 -0.00000000000E+00 -0.00000000000E+00 -0.66808518488E+02  0.66808518488E+02  0.00000000000E+00 0.  1.
         23    2    1    2    0    0 -0.14266491202E+02 -0.43788343031E+02  0.15730061741E+03  0.18779470266E+03  0.91664684330E+02 0.  0.
          5    1    1    2  502    0 -0.28207072246E+02  0.30927954793E+02  0.81727966638E+02  0.91944156112E+02  0.47000000000E+01 0. -1.
         -5    1    1    2    0  502  0.42473563448E+02  0.12860388238E+02 -0.35735737278E+02  0.57171024972E+02  0.47000000000E+01 0.  1.
        -11    1    3    3    0    0 -0.34606255633E+02  0.68735578416E+00  0.12371773798E+03  0.12846845558E+03  0.00000000000E+00 0. -1.
         11    1    3    3    0    0  0.20339764431E+02 -0.44475698815E+02  0.33582879423E+02  0.59326247079E+02  0.00000000000E+00 0.  1.
<mgrwt>
<rscale>  0 0.13080678E+03</rscale>
<asrwt>0</asrwt>
<pdfrwt beam="1">  1        2 0.41554056E-01 0.14184517E+03</pdfrwt>
<pdfrwt beam="2">  1       -2 0.10278234E-01 0.14184517E+03</pdfrwt>
<totfact> 0.74221263E+03</totfact>
</mgrwt>
</event>
<event>
 8    1  0.8504141E-006  0.1310768E+03  0.7546771E-02  0.1242718E+00
         -2   -1    0    0    0  501 -0.00000000000E+00  0.00000000000E+00  0.14067661994E+03  0.14067661994E+03  0.00000000000E+00 0.  1.
          2   -1    0    0  501    0  0.00000000000E+00 -0.00000000000E+00 -0.12232796342E+03  0.12232796342E+03  0.00000000000E+00 0. -1.
         23    2    1    2    0    0  0.61010258643E+00 -0.39459737066E+02  0.78162052649E+02  0.15261207003E+03  0.12499477738E+03 0.  0.
         23    2    1    2    0    0 -0.61010258643E+00  0.39459737066E+02 -0.59813396125E+02  0.11039251333E+03  0.83972743006E+02 0.  0.
          5    1    3    3  502    0 -0.27603140560E+02 -0.73338938565E+02  0.74329150455E+02  0.10810849128E+03  0.47000000000E+01 0. -1.
         -5    1    3    3    0  502  0.28213243147E+02  0.33879201499E+02  0.38329021940E+01  0.44503578758E+02  0.47000000000E+01 0. -1.
        -11    1    4    4    0    0  0.15018746917E+02  0.22995823375E+02  0.15634215160E+02  0.31603786724E+02  0.00000000000E+00 0.  1.
         11    1    4    4    0    0 -0.15628849504E+02  0.16463913691E+02 -0.75447611285E+02  0.78788726601E+02  0.00000000000E+00 0. -1.
<mgrwt>
<rscale>  0 0.12022996E+03</rscale>
<asrwt>0</asrwt>
<pdfrwt beam="2">  1        2 0.18819687E-01 0.13107684E+03</pdfrwt>
<pdfrwt beam="1">  1       -2 0.21642557E-01 0.13107684E+03</pdfrwt>
<totfact> 0.51930591E+03</totfact>
</mgrwt>
</event>
<event>
 8    1  0.8504141E-006  0.1320408E+03  0.7546771E-02  0.1238355E+00
         -3   -1    0    0    0  501 -0.00000000000E+00  0.00000000000E+00  0.24423768191E+02  0.24423768191E+02  0.00000000000E+00 0.  1.
          3   -1    0    0  501    0  0.00000000000E+00 -0.00000000000E+00 -0.55009907597E+03  0.55009907597E+03  0.00000000000E+00 0. -1.
         23    2    1    2    0    0 -0.98636963089E+01 -0.41378044496E+02 -0.27934259894E+03  0.30897742635E+03  0.12500130935E+03 0.  0.
         23    2    1    2    0    0  0.98636963089E+01  0.41378044496E+02 -0.24633270884E+03  0.26554541782E+03  0.89583092187E+02 0.  0.
          5    1    3    3  502    0 -0.55884026588E+02 -0.50760538733E+02 -0.11234207847E+03  0.13543444656E+03  0.47000000000E+01 0.  1.
         -5    1    3    3    0  502  0.46020330279E+02  0.93824942363E+01 -0.16700052047E+03  0.17354297979E+03  0.47000000000E+01 0.  1.
        -11    1    4    4    0    0 -0.38380537132E+02  0.31619293474E+02 -0.11494820254E+03  0.12524350130E+03  0.00000000000E+00 0.  1.
         11    1    4    4    0    0  0.48244233441E+02  0.97587510221E+01 -0.13138450631E+03  0.14030191652E+03  0.00000000000E+00 0. -1.
<mgrwt>
<rscale>  0 0.12292081E+03</rscale>
<asrwt>0</asrwt>
<pdfrwt beam="2">  1        3 0.84630608E-01 0.13204076E+03</pdfrwt>
<pdfrwt beam="1">  1       -3 0.37575036E-02 0.13204076E+03</pdfrwt>
<totfact> 0.10853320E+03</totfact>
</mgrwt>
</event>
<event>
 7    1  0.8504141E-006  0.4518419E+03  0.7546771E-02  0.1027174E+00
         -2   -1    0    0    0  501 -0.00000000000E+00  0.00000000000E+00  0.46259921296E+02  0.46259921296E+02  0.00000000000E+00 0.  1.
          2   -1    0    0  501    0  0.00000000000E+00 -0.00000000000E+00 -0.11033369865E+04  0.11033369865E+04  0.00000000000E+00 0. -1.
         23    2    1    2    0    0  0.34337916242E+02 -0.25288216209E+02 -0.35738455586E+03  0.37092773784E+03  0.89694367496E+02 0.  0.
          5    1    1    2  502    0  0.89437711184E+02 -0.52902332059E+02 -0.58071662887E+03  0.58995902736E+03  0.47000000000E+01 0. -1.
         -5    1    1    2    0  502 -0.12377562743E+03  0.78190548268E+02 -0.11897588047E+03  0.18871014259E+03  0.47000000000E+01 0.  1.
        -11    1    3    3    0    0  0.46674334785E+02  0.20166580827E+02 -0.21603954568E+03  0.22194204155E+03  0.00000000000E+00 0. -1.
         11    1    3    3    0    0 -0.12336418543E+02 -0.45454797036E+02 -0.14134501019E+03  0.14898569630E+03  0.00000000000E+00 0.  1.
<mgrwt>
<rscale>  0 0.45184193E+03</rscale>
<asrwt>0</asrwt>
<pdfrwt beam="2">  1        2 0.16974415E+00 0.45184193E+03</pdfrwt>
<pdfrwt beam="1">  1       -2 0.71169112E-02 0.45184193E+03</pdfrwt>
<totfact> 0.25866011E+03</totfact>
</mgrwt>
</event>
<event>
 8    1  0.8504141E-006  0.1278297E+03  0.7546771E-02  0.1245867E+00
          1   -1    0    0  501    0  0.00000000000E+00  0.00000000000E+00  0.10903702061E+03  0.10903702061E+03  0.00000000000E+00 0. -1.
         -1   -1    0    0    0  501 -0.00000000000E+00 -0.00000000000E+00 -0.13918517371E+03  0.13918517371E+03  0.00000000000E+00 0.  1.
         23    2    1    2    0    0  0.15406178417E+02  0.21855495241E+02 -0.70563271298E+02  0.14601236269E+03  0.12500168718E+03 0.  0.
         23    2    1    2    0    0 -0.15406178417E+02 -0.21855495241E+02  0.40415118200E+02  0.10220983163E+03  0.89991415683E+02 0.  0.
          5    1    3    3  502    0 -0.17177454333E+02  0.24015700597E+02  0.28679353713E+02  0.41429628793E+02  0.47000000000E+01 0.  1.
         -5    1    3    3    0  502  0.32583632750E+02 -0.21602053560E+01 -0.99242625011E+02  0.10458273390E+03  0.47000000000E+01 0.  1.
        -11    1    4    4    0    0  0.27510894500E+02 -0.38940866391E+02  0.19833669659E+02  0.51639276172E+02  0.00000000000E+00 0.  1.
         11    1    4    4    0    0 -0.42917072917E+02  0.17085371149E+02  0.20581448541E+02  0.50570555456E+02  0.00000000000E+00 0. -1.
<mgrwt>
<rscale>  0 0.11833609E+03</rscale>
<asrwt>0</asrwt>
<pdfrwt beam="1">  1        1 0.16774926E-01 0.12782971E+03</pdfrwt>
<pdfrwt beam="2">  1       -1 0.21413104E-01 0.12782971E+03</pdfrwt>
<totfact> 0.54952128E+03</totfact>
</mgrwt>
</event>
<event>
 8    1  0.8504141E-006  0.1308741E+03  0.7546771E-02  0.1241049E+00
         -1   -1    0    0    0  501 -0.00000000000E+00  0.00000000000E+00  0.51453762424E+02  0.51453762424E+02  0.00000000000E+00 0.  1.
          1   -1    0    0  501    0  0.00000000000E+00 -0.00000000000E+00 -0.27192943084E+03  0.27192943084E+03  0.00000000000E+00 0. -1.
         23    2    1    2    0    0  0.23537191751E+02  0.30827687225E+02 -0.81300134490E+02  0.15407057712E+03  0.12499474058E+03 0.  0.
         23    2    1    2    0    0 -0.23537191751E+02 -0.30827687225E+02 -0.13917553392E+03  0.16931261614E+03  0.88275631095E+02 0.  0.
          5    1    3    3  502    0 -0.17914649795E+02  0.28041573571E+02  0.23653465519E+02  0.41095510177E+02  0.47000000000E+01 0. -1.
         -5    1    3    3    0  502  0.41451841546E+02  0.27861136539E+01 -0.10495360001E+03  0.11297506695E+03  0.47000000000E+01 0. -1.
        -11    1    4    4    0    0 -0.36935364667E+02 -0.14880818512E+02 -0.13686407185E+02  0.42106741317E+02  0.00000000000E+00 0.  1.
         11    1    4    4    0    0  0.13398172916E+02 -0.15946868713E+02 -0.12548912674E+03  0.12720587482E+03  0.00000000000E+00 0. -1.
<mgrwt>
<rscale>  0 0.12125028E+03</rscale>
<asrwt>0</asrwt>
<pdfrwt beam="2">  1        1 0.41835297E-01 0.13087410E+03</pdfrwt>
<pdfrwt beam="1">  1       -1 0.79159635E-02 0.13087410E+03</pdfrwt>
<totfact> 0.82176718E+03</totfact>
</mgrwt>
</event>
<event>
 7    1  0.8504141E-006  0.1760842E+03  0.7546771E-02  0.1184637E+00
          1   -1    0    0  501    0  0.00000000000E+00  0.00000000000E+00  0.97692079175E+03  0.97692079175E+03  0.00000000000E+00 0.  1.
         -1   -1    0    0    0  501 -0.00000000000E+00 -0.00000000000E+00 -0.28726821208E+02  0.28726821208E+02  0.00000000000E+00 0. -1.
         23    2    1    2    0    0  0.88841704147E+02  0.86391049525E+02  0.33412889654E+03  0.37768738502E+03  0.12509747984E+03 0.  0.
          5    1    3    3  502    0 -0.15706775948E+02  0.67821486191E+02  0.13523994809E+03  0.15217881048E+03  0.47000000000E+01 0.  1.
         -5    1    3    3    0  502  0.10454848010E+03  0.18569563334E+02  0.19888894845E+03  0.22550857453E+03  0.47000000000E+01 0.  1.
        -11    1    1    2    0    0 -0.36054911209E+02 -0.86352088446E+01  0.19392879399E+03  0.19744087872E+03  0.00000000000E+00 0.  1.
         11    1    1    2    0    0 -0.52786792938E+02 -0.77755840680E+02  0.42013628001E+03  0.43051934921E+03  0.00000000000E+00 0. -1.
<mgrwt>
<rscale>  0 0.16364943E+03</rscale>
<asrwt>0</asrwt>
<pdfrwt beam="1">  1        1 0.15029548E+00 0.17608419E+03</pdfrwt>
<pdfrwt beam="2">  1       -1 0.44195117E-02 0.17608419E+03</pdfrwt>
<totfact> 0.34879807E+03</totfact>
</mgrwt>
</event>
<event>
 8    1  0.8504141E-006  0.1460029E+03  0.7546771E-02  0.1208960E+00
          1   -1    0    0  501    0  0.00000000000E+00  0.00000000000E+00  0.84277367540E+03  0.84277367540E+03  0.00000000000E+00 0. -1.
         -1   -1    0    0    0  501 -0.00000000000E+00 -0.00000000000E+00 -0.23567106617E+02  0.23567106617E+02  0.00000000000E+00 0.  1.
         23    2    1    2    0    0  0.56981804525E+02 -0.49467184159E+02  0.44745922268E+03  0.47067673845E+03  0.12499163095E+03 0.  0.
         23    2    1    2    0    0 -0.56981804525E+02  0.49467184159E+02  0.37174734610E+03  0.39566404356E+03  0.11251674399E+03 0.  0.
          5    1    3    3  502    0  0.35888888111E+02 -0.68179416544E+02  0.12472800304E+03  0.14668200255E+03  0.47000000000E+01 0. -1.
         -5    1    3    3    0  502  0.21092916414E+02  0.18712232385E+02  0.32273121964E+03  0.32399473590E+03  0.47000000000E+01 0. -1.
        -11    1    4    4    0    0 -0.72521673834E+02  0.65127515301E+02  0.35451142770E+03  0.36766742961E+03  0.00000000000E+00 0. -1.
         11    1    4    4    0    0  0.15539869309E+02 -0.15660331143E+02  0.17235918402E+02  0.27996613953E+02  0.00000000000E+00 0.  1.
<mgrwt>
<rscale>  0 0.14329704E+03</rscale>
<asrwt>0</asrwt>
<pdfrwt beam="1">  1        1 0.12965747E+00 0.14600286E+03</pdfrwt>
<pdfrwt beam="2">  1       -1 0.36257094E-02 0.14600286E+03</pdfrwt>
<totfact> 0.58848784E+03</totfact>
</mgrwt>
</event>
<event>
 8    1  0.9935291E-006  0.1592345E+03  0.7546771E-02  0.1196744E+00
         -4   -1    0    0    0  501 -0.00000000000E+00  0.00000000000E+00  0.34087198227E+03  0.34087198227E+03  0.00000000000E+00 0.  1.
          4   -1    0    0  501    0  0.00000000000E+00 -0.00000000000E+00 -0.71388278858E+02  0.71388278858E+02  0.00000000000E+00 0. -1.
         23    2    1    2    0    0  0.48206145255E+01  0.98526033492E+02  0.21071360489E+03  0.26411329837E+03  0.12499997394E+03 0.  0.
         23    2    1    2    0    0 -0.48206145255E+01 -0.98526033492E+02  0.58770098512E+02  0.14814696276E+03  0.93610792622E+02 0.  0.
          5    1    3    3  502    0  0.12173469169E+02  0.35864898421E+02 -0.57481435839E+01  0.38595536594E+02  0.47000000000E+01 0.  1.
         -5    1    3    3    0  502 -0.73528546435E+01  0.62661135071E+02  0.21646174848E+03  0.22551776177E+03  0.47000000000E+01 0.  1.
        -11    1    4    4    0    0  0.43973026897E+02 -0.54841713520E+02  0.34491186515E+02  0.78299952640E+02  0.00000000000E+00 0. -1.
         11    1    4    4    0    0 -0.48793641422E+02 -0.43684319972E+02  0.24278911998E+02  0.69847010118E+02  0.00000000000E+00 0.  1.
<mgrwt>
<rscale>  0 0.15307542E+03</rscale>
<asrwt>0</asrwt>
<pdfrwt beam="2">  1        4 0.10982812E-01 0.15923445E+03</pdfrwt>
<pdfrwt beam="1">  1       -4 0.52441842E-01 0.15923445E+03</pdfrwt>
<totfact> 0.38940103E+02</totfact>
</mgrwt>
</event>
<event>
 8    1  0.8504141E-006  0.1266052E+03  0.7546771E-02  0.1247798E+00
         -4   -1    0    0    0  501 -0.00000000000E+00  0.00000000000E+00  0.44435247004E+03  0.44435247004E+03  0.00000000000E+00 0.  1.
          4   -1    0    0  501    0  0.00000000000E+00 -0.00000000000E+00 -0.44748617293E+02  0.44748617293E+02  0.00000000000E+00 0. -1.
         23    2    1    2    0    0  0.12820131761E+02 -0.15443361395E+02  0.37074934888E+03  0.39177026957E+03  0.12500404488E+03 0.  0.
         23    2    1    2    0    0 -0.12820131761E+02  0.15443361395E+02  0.28854503870E+02  0.97330817762E+02  0.90762616220E+02 0.  0.
          5    1    3    3  502    0 -0.14644193578E+02 -0.57940707556E+02  0.10244275209E+03  0.11869366223E+03  0.47000000000E+01 0. -1.
         -5    1    3    3    0  502  0.27464325339E+02  0.42497346161E+02  0.26830659679E+03  0.27307660735E+03  0.47000000000E+01 0. -1.
        -11    1    4    4    0    0 -0.48236946726E+02 -0.90185393123E+01  0.21865415334E+02  0.53723676982E+02  0.00000000000E+00 0.  1.
         11    1    4    4    0    0  0.35416814965E+02  0.24461900707E+02  0.69890885361E+01  0.43607140780E+02  0.00000000000E+00 0. -1.
<mgrwt>
<rscale>  0 0.11719449E+03</rscale>
<asrwt>0</asrwt>
<pdfrwt beam="2">  1        4 0.68844030E-02 0.12660515E+03</pdfrwt>
<pdfrwt beam="1">  1       -4 0.68361916E-01 0.12660515E+03</pdfrwt>
<totfact> 0.46580321E+02</totfact>
</mgrwt>
</event>
<event>
 8    1  0.8504141E-006  0.1289965E+03  0.7546771E-02  0.1243871E+00
         -1   -1    0    0    0  501 -0.00000000000E+00  0.00000000000E+00  0.18811740465E+03  0.18811740465E+03  0.00000000000E+00 0.  1.
          1   -1    0    0  501    0  0.00000000000E+00 -0.00000000000E+00 -0.91215716717E+02  0.91215716717E+02  0.00000000000E+00 0. -1.
         23    2    1    2    0    0  0.25931070736E+02  0.18485027373E+02  0.12554913575E+03  0.18000742832E+03  0.12500388832E+03 0.  0.
         23    2    1    2    0    0 -0.25931070736E+02 -0.18485027373E+02 -0.28647447813E+02  0.99325693052E+02  0.89614732983E+02 0.  0.
          5    1    3    3  502    0  0.15170198461E+02 -0.25483025495E+02 -0.14069102757E+02  0.33159450570E+02  0.47000000000E+01 0.  1.
         -5    1    3    3    0  502  0.10760872275E+02  0.43968052868E+02  0.13961823851E+03  0.14684797775E+03  0.47000000000E+01 0.  1.
        -11    1    4    4    0    0 -0.19996295354E+02 -0.38230701212E+02 -0.52397548451E+02  0.67874453418E+02  0.00000000000E+00 0. -1.
         11    1    4    4    0    0 -0.59347753815E+01  0.19745673839E+02  0.23750100639E+02  0.31451239634E+02  0.00000000000E+00 0.  1.
<mgrwt>
<rscale>  0 0.11953193E+03</rscale>
<asrwt>0</asrwt>
<pdfrwt beam="2">  1        1 0.14033187E-01 0.12899647E+03</pdfrwt>
<pdfrwt beam="1">  1       -1 0.28941139E-01 0.12899647E+03</pdfrwt>
<totfact> 0.42232163E+03</totfact>
</mgrwt>
</event>
<event>
 8    1  0.8504141E-006  0.1985228E+03  0.7546771E-02  0.1155234E+00
          4   -1    0    0  501    0  0.00000000000E+00  0.00000000000E+00  0.95450317856E+02  0.95450317856E+02  0.00000000000E+00 0. -1.
         -4   -1    0    0    0  501 -0.00000000000E+00 -0.00000000000E+00 -0.38449644472E+03  0.38449644472E+03  0.00000000000E+00 0.  1.
         23    2    1    2    0    0  0.14916226804E+03 -0.39166269639E+02 -0.19009847349E+03  0.27486128580E+03  0.12501167114E+03 0.  0.
         23    2    1    2    0    0 -0.14916226804E+03  0.39166269639E+02 -0.98947653367E+02  0.20508547678E+03  0.92119681900E+02 0.  0.
          5    1    3    3  502    0  0.13133037159E+03 -0.51380241130E+02 -0.20450878809E+03  0.24846233132E+03  0.47000000000E+01 0.  1.
         -5    1    3    3    0  502  0.17831896453E+02  0.12213971491E+02  0.14410314595E+02  0.26398954476E+02  0.47000000000E+01 0.  1.
        -11    1    4    4    0    0 -0.12590126026E+03 -0.88398561061E+01 -0.72346109589E+02  0.14547587417E+03  0.00000000000E+00 0.  1.
         11    1    4    4    0    0 -0.23261007776E+02  0.48006125745E+02 -0.26601543777E+02  0.59609602609E+02  0.00000000000E+00 0. -1.
<mgrwt>
<rscale>  0 0.19362287E+03</rscale>
<asrwt>0</asrwt>
<pdfrwt beam="1">  1        4 0.14684664E-01 0.19852279E+03</pdfrwt>
<pdfrwt beam="2">  1       -4 0.59153300E-01 0.19852279E+03</pdfrwt>
<totfact> 0.18999697E+02</totfact>
</mgrwt>
</event>
<event>
 8    1  0.8504141E-006  0.1406860E+03  0.7546771E-02  0.1223486E+00
         -2   -1    0    0    0  501 -0.00000000000E+00  0.00000000000E+00  0.32427104523E+03  0.32427104523E+03  0.00000000000E+00 0.  1.
          2   -1    0    0  501    0  0.00000000000E+00 -0.00000000000E+00 -0.54720866966E+02  0.54720866966E+02  0.00000000000E+00 0. -1.
         23    2    1    2    0    0 -0.62094278883E+02  0.17747343862E+02  0.20973267036E+03  0.25254771812E+03  0.12498755628E+03 0.  0.
         23    2    1    2    0    0  0.62094278883E+02 -0.17747343862E+02  0.59817507905E+02  0.12644419408E+03  0.90770767766E+02 0.  0.
          5    1    3    3  502    0 -0.45672631944E+02 -0.48882031591E+02  0.70799289659E+02  0.97519596684E+02  0.47000000000E+01 0. -1.
         -5    1    3    3    0  502 -0.16421646939E+02  0.66629375453E+02  0.13893338070E+03  0.15502812143E+03  0.47000000000E+01 0. -1.
        -11    1    4    4    0    0  0.66692558055E+02  0.10068146333E+02  0.69294929951E+02  0.96700838608E+02  0.00000000000E+00 0.  1.
         11    1    4    4    0    0 -0.45982791725E+01 -0.27815490196E+02 -0.94774220464E+01  0.29743355473E+02  0.00000000000E+00 0. -1.
<mgrwt>
<rscale>  0 0.13271184E+03</rscale>
<asrwt>0</asrwt>
<pdfrwt beam="2">  1        2 0.84185951E-02 0.14068602E+03</pdfrwt>
<pdfrwt beam="1">  1       -2 0.49887852E-01 0.14068602E+03</pdfrwt>
<totfact> 0.29543028E+03</totfact>
</mgrwt>
</event>
<event>
 8    1  0.8504141E-006  0.1652391E+03  0.7546771E-02  0.1190036E+00
         -1   -1    0    0    0  501 -0.00000000000E+00  0.00000000000E+00  0.31090686981E+02  0.31090686981E+02  0.00000000000E+00 0.  1.
          1   -1    0    0  501    0  0.00000000000E+00 -0.00000000000E+00 -0.80633009399E+03  0.80633009399E+03  0.00000000000E+00 0. -1.
         23    2    1    2    0    0 -0.15854115776E+02 -0.10690162440E+03 -0.31013277724E+03  0.35140617096E+03  0.12499858874E+03 0.  0.
         23    2    1    2    0    0  0.15854115776E+02  0.10690162440E+03 -0.46510662977E+03  0.48601461001E+03  0.90590914549E+02 0.  0.
          5    1    3    3  502    0  0.31380274239E+02 -0.86435641439E+02 -0.27202616958E+03  0.28718664429E+03  0.47000000000E+01 0. -1.
         -5    1    3    3    0  502 -0.47234390015E+02 -0.20465982959E+02 -0.38106607651E+02  0.64219526667E+02  0.47000000000E+01 0. -1.
        -11    1    4    4    0    0 -0.18398566075E+02  0.10296952919E+03 -0.31175247913E+03  0.32883254008E+03  0.00000000000E+00 0.  1.
         11    1    4    4    0    0  0.34252681851E+02  0.39320952095E+01 -0.15335415065E+03  0.15718206993E+03  0.00000000000E+00 0. -1.
<mgrwt>
<rscale>  0 0.15881923E+03</rscale>
<asrwt>0</asrwt>
<pdfrwt beam="2">  1        1 0.12405077E+00 0.16523909E+03</pdfrwt>
<pdfrwt beam="1">  1       -1 0.47831833E-02 0.16523909E+03</pdfrwt>
<totfact> 0.42062337E+03</totfact>
</mgrwt>
</event>
<event>
 8    1  0.8504141E-006  0.1541230E+03  0.7546771E-02  0.1204778E+00
          1   -1    0    0  501    0  0.00000000000E+00  0.00000000000E+00  0.21107085303E+03  0.21107085303E+03  0.00000000000E+00 0. -1.
         -1   -1    0    0    0  501 -0.00000000000E+00 -0.00000000000E+00 -0.96456699383E+02  0.96456699383E+02  0.00000000000E+00 0.  1.
         23    2    1    2    0    0 -0.74320680371E+02 -0.50917553298E+02  0.33611293005E+02  0.15774544199E+03  0.12505096836E+03 0.  0.
         23    2    1    2    0    0  0.74320680371E+02  0.50917553298E+02  0.81002860646E+02  0.14978211042E+03  0.88074152875E+02 0.  0.
          5    1    3    3  502    0 -0.98734544360E+02 -0.64183221053E+02  0.46576705766E+02  0.12672598642E+03  0.47000000000E+01 0.  1.
         -5    1    3    3    0  502  0.24413863989E+02  0.13265667755E+02 -0.12965412762E+02  0.31019455572E+02  0.47000000000E+01 0.  1.
        -11    1    4    4    0    0  0.23917345512E+02  0.62466256789E+02  0.20005361779E+02  0.69816095232E+02  0.00000000000E+00 0. -1.
         11    1    4    4    0    0  0.50403334859E+02 -0.11548703490E+02  0.60997498866E+02  0.79966015189E+02  0.00000000000E+00 0.  1.
<mgrwt>
<rscale>  0 0.14654930E+03</rscale>
<asrwt>0</asrwt>
<pdfrwt beam="1">  1        1 0.32472439E-01 0.15412302E+03</pdfrwt>
<pdfrwt beam="2">  1       -1 0.14839492E-01 0.15412302E+03</pdfrwt>
<totfact> 0.43278084E+03</totfact>
</mgrwt>
</event>
<event>
 8    1  0.8504141E-006  0.1359495E+03  0.7546771E-02  0.1231466E+00
          1   -1    0    0  501    0  0.00000000000E+00  0.00000000000E+00  0.10466942558E+03  0.10466942558E+03  0.00000000000E+00 0. -1.
         -1   -1    0    0    0  501 -0.00000000000E+00 -0.00000000000E+00 -0.13870458772E+03  0.13870458772E+03  0.00000000000E+00 0.  1.
         23    2    1    2    0    0 -0.40373512039E+02  0.34954297870E+02 -0.26225190720E+02  0.13845585257E+03  0.12502175438E+03 0.  0.
         23    2    1    2    0    0  0.40373512039E+02 -0.34954297870E+02 -0.78099714147E+01  0.10491816073E+03  0.89972225626E+02 0.  0.
          5    1    3    3  502    0 -0.61091779474E+02 -0.18186731711E+02  0.17690919983E+02  0.66317579717E+02  0.47000000000E+01 0.  1.
         -5    1    3    3    0  502  0.20718267435E+02  0.53141029581E+02 -0.43916110703E+02  0.72138272849E+02  0.47000000000E+01 0.  1.
        -11    1    4    4    0    0  0.52091401862E+02 -0.47250438730E+02  0.19298108200E+02  0.72928287298E+02  0.00000000000E+00 0. -1.
         11    1    4    4    0    0 -0.11717889822E+02  0.12296140861E+02 -0.27108079615E+02  0.31989873434E+02  0.00000000000E+00 0.  1.
<mgrwt>
<rscale>  0 0.12733395E+03</rscale>
<asrwt>0</asrwt>
<pdfrwt beam="1">  1        1 0.16102989E-01 0.13594949E+03</pdfrwt>
<pdfrwt beam="2">  1       -1 0.21339167E-01 0.13594949E+03</pdfrwt>
<totfact> 0.58485815E+03</totfact>
</mgrwt>
</event>
<event>
 8    1  0.8504141E-006  0.2436845E+03  0.7546771E-02  0.1120001E+00
         -2   -1    0    0    0  501 -0.00000000000E+00  0.00000000000E+00  0.14338013678E+03  0.14338013678E+03  0.00000000000E+00 0.  1.
          2   -1    0    0  501    0  0.00000000000E+00 -0.00000000000E+00 -0.40245307346E+03  0.40245307346E+03  0.00000000000E+00 0. -1.
         23    2    1    2    0    0 -0.16438254664E+03  0.12937056502E+03 -0.82097933440E+02  0.25714238658E+03  0.12499508618E+03 0.  0.
         23    2    1    2    0    0  0.16438254664E+03 -0.12937056502E+03 -0.17697500325E+03  0.28869082366E+03  0.90905858756E+02 0.  0.
          5    1    3    3  502    0 -0.80876978219E+02  0.99124741344E+02 -0.10469479938E+03  0.16537802445E+03  0.47000000000E+01 0.  1.
         -5    1    3    3    0  502 -0.83505568422E+02  0.30245823677E+02  0.22596865945E+02  0.91764362134E+02  0.47000000000E+01 0.  1.
        -11    1    4    4    0    0  0.10549025485E+03 -0.87712030009E+02 -0.16659082639E+03  0.21581032764E+03  0.00000000000E+00 0. -1.
         11    1    4    4    0    0  0.58892291787E+02 -0.41658535013E+02 -0.10384176857E+02  0.72880496022E+02  0.00000000000E+00 0.  1.
<mgrwt>
<rscale>  0 0.23968705E+03</rscale>
<asrwt>0</asrwt>
<pdfrwt beam="2">  1        2 0.61915858E-01 0.24368450E+03</pdfrwt>
<pdfrwt beam="1">  1       -2 0.22058483E-01 0.24368450E+03</pdfrwt>
<totfact> 0.14032315E+03</totfact>
</mgrwt>
</event>
<event>
 8    1  0.8504141E-006  0.2479040E+03  0.7546771E-02  0.1117060E+00
          3   -1    0    0  501    0  0.00000000000E+00  0.00000000000E+00  0.12546160464E+04  0.12546160464E+04  0.00000000000E+00 0. -1.
         -3   -1    0    0    0  501 -0.00000000000E+00 -0.00000000000E+00 -0.51684109984E+02  0.51684109984E+02  0.00000000000E+00 0.  1.
         23    2    1    2    0    0 -0.18223182406E+03  0.11234670549E+03  0.40374068382E+03  0.47377521510E+03  0.12500477888E+03 0.  0.
         23    2    1    2    0    0  0.18223182406E+03 -0.11234670549E+03  0.79919125258E+03  0.83252494126E+03  0.92525130050E+02 0.  0.
          5    1    3    3  502    0 -0.14787080661E+03  0.78269422555E+02  0.18407217783E+03  0.24879014169E+03  0.47000000000E+01 0.  1.
         -5    1    3    3    0  502 -0.34361017450E+02  0.34077282932E+02  0.21966850599E+03  0.22498507341E+03  0.47000000000E+01 0.  1.
        -11    1    4    4    0    0  0.15806128520E+02  0.50128673149E+01  0.15123654268E+02  0.22442982332E+02  0.00000000000E+00 0.  1.
         11    1    4    4    0    0  0.16642569554E+03 -0.11735957280E+03  0.78406759831E+03  0.81008195893E+03  0.00000000000E+00 0. -1.
<mgrwt>
<rscale>  0 0.24414830E+03</rscale>
<asrwt>0</asrwt>
<pdfrwt beam="1">  1        3 0.19301783E+00 0.24790404E+03</pdfrwt>
<pdfrwt beam="2">  1       -3 0.79514025E-02 0.24790404E+03</pdfrwt>
<totfact> 0.47393334E+01</totfact>
</mgrwt>
</event>
<event>
 8    1  0.8504141E-006  0.3542270E+03  0.7546771E-02  0.1062040E+00
          2   -1    0    0  501    0  0.00000000000E+00  0.00000000000E+00  0.26828972545E+03  0.26828972545E+03  0.00000000000E+00 0.  1.
         -2   -1    0    0    0  501 -0.00000000000E+00 -0.00000000000E+00 -0.46980175295E+03  0.46980175295E+03  0.00000000000E+00 0. -1.
         23    2    1    2    0    0 -0.19010669618E+03 -0.27150033462E+03 -0.17192144457E+03  0.39374321933E+03  0.12499500801E+03 0.  0.
         23    2    1    2    0    0  0.19010669618E+03  0.27150033462E+03 -0.29590582922E+02  0.34434825907E+03  0.88584046492E+02 0.  0.
          5    1    3    3  502    0 -0.11590598655E+03 -0.61434263595E+02 -0.58659285158E+02  0.14377540887E+03  0.47000000000E+01 0.  1.
         -5    1    3    3    0  502 -0.74200709632E+02 -0.21006607103E+03 -0.11326215942E+03  0.24996781045E+03  0.47000000000E+01 0.  1.
        -11    1    4    4    0    0  0.12443757260E+03  0.22468616245E+03 -0.48815096843E+02  0.26144118794E+03  0.00000000000E+00 0.  1.
         11    1    4    4    0    0  0.65669123582E+02  0.46814172180E+02  0.19224513921E+02  0.82907071136E+02  0.00000000000E+00 0. -1.
<mgrwt>
<rscale>  0 0.35140531E+03</rscale>
<asrwt>0</asrwt>
<pdfrwt beam="1">  1        2 0.41275343E-01 0.35422696E+03</pdfrwt>
<pdfrwt beam="2">  1       -2 0.72277192E-01 0.35422696E+03</pdfrwt>
<totfact> 0.22037579E+02</totfact>
</mgrwt>
</event>
<event>
 8    1  0.8504141E-006  0.1414790E+03  0.7546771E-02  0.1226538E+00
         -2   -1    0    0    0  501 -0.00000000000E+00  0.00000000000E+00  0.35109017575E+02  0.35109017575E+02  0.00000000000E+00 0. -1.
          2   -1    0    0  501    0  0.00000000000E+00 -0.00000000000E+00 -0.49807202773E+03  0.49807202773E+03  0.00000000000E+00 0.  1.
         23    2    1    2    0    0 -0.56941489251E+02 -0.33893228492E+02 -0.16166282769E+03  0.21482822959E+03  0.12500085694E+03 0.  0.
         23    2    1    2    0    0  0.56941489251E+02  0.33893228492E+02 -0.30130018247E+03  0.31835281572E+03  0.78585184254E+02 0.  0.
          5    1    3    3  502    0 -0.51456231176E+02 -0.78402934499E+02 -0.12705298030E+03  0.15798516914E+03  0.47000000000E+01 0. -1.
         -5    1    3    3    0  502 -0.54852580744E+01  0.44509706007E+02 -0.34609847391E+02  0.56843060450E+02  0.47000000000E+01 0. -1.
        -11    1    4    4    0    0  0.14548388255E+02  0.53543121846E+02 -0.18030052477E+03  0.18864464140E+03  0.00000000000E+00 0. -1.
         11    1    4    4    0    0  0.42393100996E+02 -0.19649893354E+02 -0.12099965770E+03  0.12970817431E+03  0.00000000000E+00 0.  1.
<mgrwt>
<rscale>  0 0.13062052E+03</rscale>
<asrwt>0</asrwt>
<pdfrwt beam="2">  1        2 0.76626465E-01 0.14147897E+03</pdfrwt>
<pdfrwt beam="1">  1       -2 0.54013874E-02 0.14147897E+03</pdfrwt>
<totfact> 0.10380646E+04</totfact>
</mgrwt>
</event>
<event>
 8    1  0.8504141E-006  0.1393458E+03  0.7546771E-02  0.1226282E+00
         -1   -1    0    0    0  501 -0.00000000000E+00  0.00000000000E+00  0.36536323527E+02  0.36536323527E+02  0.00000000000E+00 0.  1.
          1   -1    0    0  501    0  0.00000000000E+00 -0.00000000000E+00 -0.46736237931E+03  0.46736237931E+03  0.00000000000E+00 0. -1.
         23    2    1    2    0    0  0.53857847261E+02  0.29873875458E+02 -0.15942867464E+03  0.21174218328E+03  0.12499653490E+03 0.  0.
         23    2    1    2    0    0 -0.53857847261E+02 -0.29873875458E+02 -0.27139738114E+03  0.29215651955E+03  0.88914437969E+02 0.  0.
          5    1    3    3  502    0  0.64014867469E+02 -0.31403173819E+02 -0.11438933408E+03  0.13487428345E+03  0.47000000000E+01 0. -1.
         -5    1    3    3    0  502 -0.10157020208E+02  0.61277049277E+02 -0.45039340551E+02  0.76867899834E+02  0.47000000000E+01 0. -1.
        -11    1    4    4    0    0  0.11530531875E+02 -0.38505856017E+02 -0.13120835399E+03  0.13722713387E+03  0.00000000000E+00 0. -1.
         11    1    4    4    0    0 -0.65388379136E+02  0.86319805592E+01 -0.14018902715E+03  0.15492938568E+03  0.00000000000E+00 0.  1.
<mgrwt>
<rscale>  0 0.13079420E+03</rscale>
<asrwt>0</asrwt>
<pdfrwt beam="2">  1        1 0.71901907E-01 0.13934579E+03</pdfrwt>
<pdfrwt beam="1">  1       -1 0.56209726E-02 0.13934579E+03</pdfrwt>
<totfact> 0.69886712E+03</totfact>
</mgrwt>
</event>
<event>
 8    1  0.8504141E-006  0.1661144E+03  0.7546771E-02  0.1188735E+00
         -1   -1    0    0    0  501 -0.00000000000E+00  0.00000000000E+00  0.33829399033E+02  0.33829399033E+02  0.00000000000E+00 0.  1.
          1   -1    0    0  501    0  0.00000000000E+00 -0.00000000000E+00 -0.70758961697E+03  0.70758961697E+03  0.00000000000E+00 0. -1.
         23    2    1    2    0    0 -0.44293355232E+02  0.10003229265E+03 -0.34191147612E+03  0.38012820776E+03  0.12500254374E+03 0.  0.
         23    2    1    2    0    0  0.44293355232E+02 -0.10003229265E+03 -0.33184874182E+03  0.36129080825E+03  0.91864573060E+02 0.  0.
          5    1    3    3  502    0 -0.36457811840E+02  0.86545207850E+02 -0.34966466743E+03  0.36208661214E+03  0.47000000000E+01 0. -1.
         -5    1    3    3    0  502 -0.78355433924E+01  0.13487084804E+02  0.77531913125E+01  0.18041595614E+02  0.47000000000E+01 0. -1.
        -11    1    4    4    0    0 -0.14365158471E+02 -0.74371672453E+02 -0.21644349079E+03  0.22931482322E+03  0.00000000000E+00 0. -1.
         11    1    4    4    0    0  0.58658513704E+02 -0.25660620201E+02 -0.11540525103E+03  0.13197598503E+03  0.00000000000E+00 0.  1.
<mgrwt>
<rscale>  0 0.15996652E+03</rscale>
<asrwt>0</asrwt>
<pdfrwt beam="2">  1        1 0.10885994E+00 0.16611441E+03</pdfrwt>
<pdfrwt beam="1">  1       -1 0.52045229E-02 0.16611441E+03</pdfrwt>
<totfact> 0.45038678E+03</totfact>
</mgrwt>
</event>
<event>
 7    1  0.8504141E-006  0.1413735E+03  0.7546771E-02  0.1227375E+00
          2   -1    0    0  501    0  0.00000000000E+00  0.00000000000E+00  0.20749832673E+03  0.20749832673E+03  0.00000000000E+00 0. -1.
         -2   -1    0    0    0  501 -0.00000000000E+00 -0.00000000000E+00 -0.11504433309E+03  0.11504433309E+03  0.00000000000E+00 0.  1.
         23    2    1    2    0    0  0.42246092833E+02  0.51788139721E+01  0.14054119144E+03  0.17321472625E+03  0.91869268108E+02 0.  0.
          5    1    1    2  502    0 -0.28309541837E+02  0.84974325319E+01  0.45030424532E+02  0.54069082221E+02  0.47000000000E+01 0. -1.
         -5    1    1    2    0  502 -0.13936550995E+02 -0.13676246504E+02 -0.93117622331E+02  0.95258851351E+02  0.47000000000E+01 0.  1.
        -11    1    3    3    0    0 -0.14448403358E+02  0.34362570973E+02  0.46565073800E+02  0.59647705249E+02  0.00000000000E+00 0. -1.
         11    1    3    3    0    0  0.56694496191E+02 -0.29183757001E+02  0.93976117643E+02  0.11356702100E+03  0.00000000000E+00 0.  1.
<mgrwt>
<rscale>  0 0.13005421E+03</rscale>
<asrwt>0</asrwt>
<pdfrwt beam="1">  1        2 0.31922820E-01 0.14137345E+03</pdfrwt>
<pdfrwt beam="2">  1       -2 0.17699128E-01 0.14137345E+03</pdfrwt>
<totfact> 0.40827931E+03</totfact>
</mgrwt>
</event>
<event>
 8    1  0.8504141E-006  0.1316474E+03  0.7546771E-02  0.1237972E+00
         -2   -1    0    0    0  501 -0.00000000000E+00  0.00000000000E+00  0.27385084061E+02  0.27385084061E+02  0.00000000000E+00 0.  1.
          2   -1    0    0  501    0  0.00000000000E+00 -0.00000000000E+00 -0.54300715591E+03  0.54300715591E+03  0.00000000000E+00 0. -1.
         23    2    1    2    0    0  0.31824596674E+02 -0.26330290532E+02 -0.20337940506E+03  0.24226891039E+03  0.12499981355E+03 0.  0.
         23    2    1    2    0    0 -0.31824596674E+02  0.26330290532E+02 -0.31224266679E+03  0.32812332958E+03  0.91996452636E+02 0.  0.
          5    1    3    3  502    0 -0.39189482667E+02 -0.73875129198E+01 -0.13821855549E+03  0.14393349152E+03  0.47000000000E+01 0. -1.
         -5    1    3    3    0  502  0.71014079341E+02 -0.18942777612E+02 -0.65160849570E+02  0.98335418873E+02  0.47000000000E+01 0. -1.
        -11    1    4    4    0    0  0.56186639801E+01  0.53908696257E+02 -0.17662322455E+03  0.18475248406E+03  0.00000000000E+00 0.  1.
         11    1    4    4    0    0 -0.37443260654E+02 -0.27578405725E+02 -0.13561944224E+03  0.14337084552E+03  0.00000000000E+00 0. -1.
<mgrwt>
<rscale>  0 0.12316048E+03</rscale>
<asrwt>0</asrwt>
<pdfrwt beam="2">  1        2 0.83539555E-01 0.13164742E+03</pdfrwt>
<pdfrwt beam="1">  1       -2 0.42130902E-02 0.13164742E+03</pdfrwt>
<totfact> 0.13620206E+04</totfact>
</mgrwt>
</event>
<event>
 8    1  0.8504141E-006  0.1510779E+03  0.7546771E-02  0.1207261E+00
          1   -1    0    0  501    0  0.00000000000E+00  0.00000000000E+00  0.87462552344E+03  0.87462552344E+03  0.00000000000E+00 0. -1.
         -1   -1    0    0    0  501 -0.00000000000E+00 -0.00000000000E+00 -0.31110115826E+02  0.31110115826E+02  0.00000000000E+00 0.  1.
         23    2    1    2    0    0 -0.80171989475E+02 -0.27626700048E+02  0.20446691835E+03  0.25422675863E+03  0.12503496171E+03 0.  0.
         23    2    1    2    0    0  0.80171989475E+02  0.27626700048E+02  0.63904848926E+03  0.65150888064E+03  0.94287154333E+02 0.  0.
          5    1    3    3  502    0 -0.15238442890E+02  0.38635946707E+02  0.12559117630E+03  0.13236381713E+03  0.47000000000E+01 0. -1.
         -5    1    3    3    0  502 -0.64933546585E+02 -0.66262646755E+02  0.78875742051E+02  0.12186294150E+03  0.47000000000E+01 0. -1.
        -11    1    4    4    0    0  0.10144680930E+03  0.16677024746E+02  0.50941781265E+03  0.51968845102E+03  0.00000000000E+00 0.  1.
         11    1    4    4    0    0 -0.21274819827E+02  0.10949675303E+02  0.12963067661E+03  0.13182042962E+03  0.00000000000E+00 0. -1.
<mgrwt>
<rscale>  0 0.14460699E+03</rscale>
<asrwt>0</asrwt>
<pdfrwt beam="1">  1        1 0.13455775E+00 0.15107787E+03</pdfrwt>
<pdfrwt beam="2">  1       -1 0.47861723E-02 0.15107787E+03</pdfrwt>
<totfact> 0.36936423E+03</totfact>
</mgrwt>
</event>
<event>
 8    1  0.8504141E-006  0.1338525E+03  0.7546771E-02  0.1235638E+00
          1   -1    0    0  501    0  0.00000000000E+00  0.00000000000E+00  0.86522517356E+02  0.86522517356E+02  0.00000000000E+00 0. -1.
         -1   -1    0    0    0  501 -0.00000000000E+00 -0.00000000000E+00 -0.17095656203E+03  0.17095656203E+03  0.00000000000E+00 0.  1.
         23    2    1    2    0    0  0.23472661804E+02  0.41712998841E+02 -0.81702937724E+02  0.15681795398E+03  0.12500224212E+03 0.  0.
         23    2    1    2    0    0 -0.23472661804E+02 -0.41712998841E+02 -0.27311069466E+01  0.10066112540E+03  0.88511372697E+02 0.  0.
          5    1    3    3  502    0 -0.99461384019E+01 -0.22938396280E+02 -0.79915045227E+02  0.83866561552E+02  0.47000000000E+01 0.  1.
         -5    1    3    3    0  502  0.33418800206E+02  0.64651395121E+02 -0.17878924972E+01  0.72951392432E+02  0.47000000000E+01 0.  1.
        -11    1    4    4    0    0 -0.28949675504E+02 -0.41214076709E+01 -0.38592625790E+02  0.48419629061E+02  0.00000000000E+00 0.  1.
         11    1    4    4    0    0  0.54770136998E+01 -0.37591591170E+02  0.35861518844E+02  0.52241496337E+02  0.00000000000E+00 0. -1.
<mgrwt>
<rscale>  0 0.12463655E+03</rscale>
<asrwt>0</asrwt>
<pdfrwt beam="1">  1        1 0.13311157E-01 0.13385253E+03</pdfrwt>
<pdfrwt beam="2">  1       -1 0.26301009E-01 0.13385253E+03</pdfrwt>
<totfact> 0.53150219E+03</totfact>
</mgrwt>
</event>
<event>
 8    1  0.8504141E-006  0.1506114E+03  0.7546771E-02  0.1208681E+00
          4   -1    0    0  501    0  0.00000000000E+00  0.00000000000E+00  0.32548523984E+02  0.32548523984E+02  0.00000000000E+00 0. -1.
         -4   -1    0    0    0  501 -0.00000000000E+00 -0.00000000000E+00 -0.58491873229E+03  0.58491873229E+03  0.00000000000E+00 0.  1.
         23    2    1    2    0    0 -0.40724020832E+02  0.73479446191E+02 -0.33106674565E+03  0.36371550557E+03  0.12500441605E+03 0.  0.
         23    2    1    2    0    0  0.40724020832E+02 -0.73479446191E+02 -0.22130346265E+03  0.25375175070E+03  0.91416921392E+02 0.  0.
          5    1    3    3  502    0 -0.28998484714E+02  0.10197422742E+03 -0.17576713270E+03  0.20531884987E+03  0.47000000000E+01 0.  1.
         -5    1    3    3    0  502 -0.11725536118E+02 -0.28494781230E+02 -0.15529961295E+03  0.15839665570E+03  0.47000000000E+01 0.  1.
        -11    1    4    4    0    0  0.69491196408E+00 -0.49095859229E+02 -0.19266680432E+03  0.19882500794E+03  0.00000000000E+00 0.  1.
         11    1    4    4    0    0  0.40029108868E+02 -0.24383586962E+02 -0.28636658336E+02  0.54926742763E+02  0.00000000000E+00 0. -1.
<mgrwt>
<rscale>  0 0.14351102E+03</rscale>
<asrwt>0</asrwt>
<pdfrwt beam="1">  1        4 0.50074650E-02 0.15061135E+03</pdfrwt>
<pdfrwt beam="2">  1       -4 0.89987502E-01 0.15061135E+03</pdfrwt>
<totfact> 0.44055191E+02</totfact>
</mgrwt>
</event>
<event>
 8    1  0.8504141E-006  0.1440805E+03  0.7546771E-02  0.1219241E+00
         -2   -1    0    0    0  501 -0.00000000000E+00  0.00000000000E+00  0.36652730745E+02  0.36652730745E+02  0.00000000000E+00 0.  1.
          2   -1    0    0  501    0  0.00000000000E+00 -0.00000000000E+00 -0.59675395469E+03  0.59675395469E+03  0.00000000000E+00 0. -1.
         23    2    1    2    0    0 -0.69023448470E+02  0.19230779222E+02 -0.15025273495E+03  0.20817076403E+03  0.12500049332E+03 0.  0.
         23    2    1    2    0    0  0.69023448470E+02 -0.19230779222E+02 -0.40984848900E+03  0.42523592140E+03  0.87839316986E+02 0.  0.
          5    1    3    3  502    0 -0.49936165958E+01 -0.48924825117E+02 -0.40324423766E+02  0.63770870085E+02  0.47000000000E+01 0.  1.
         -5    1    3    3    0  502 -0.64029831874E+02  0.68155604338E+02 -0.10992831118E+03  0.14439989395E+03  0.47000000000E+01 0.  1.
        -11    1    4    4    0    0  0.45244789512E+02 -0.54364191295E+02 -0.24364277928E+03  0.25370132078E+03  0.00000000000E+00 0.  1.
         11    1    4    4    0    0  0.23778658958E+02  0.35133412073E+02 -0.16620570972E+03  0.17153460062E+03  0.00000000000E+00 0. -1.
<mgrwt>
<rscale>  0 0.13569565E+03</rscale>
<asrwt>0</asrwt>
<pdfrwt beam="2">  1        2 0.91808302E-01 0.14408047E+03</pdfrwt>
<pdfrwt beam="1">  1       -2 0.56388816E-02 0.14408047E+03</pdfrwt>
<totfact> 0.79571237E+03</totfact>
</mgrwt>
</event>
<event>
 8    1  0.8504141E-006  0.1360675E+03  0.7546771E-02  0.1231146E+00
          2   -1    0    0  501    0  0.00000000000E+00  0.00000000000E+00  0.24497354172E+03  0.24497354172E+03  0.00000000000E+00 0. -1.
         -2   -1    0    0    0  501 -0.00000000000E+00 -0.00000000000E+00 -0.13684202247E+03  0.13684202247E+03  0.00000000000E+00 0.  1.
         23    2    1    2    0    0  0.19520519433E+02 -0.50083218303E+02 -0.86084184461E+02  0.16101192836E+03  0.12499989931E+03 0.  0.
         23    2    1    2    0    0 -0.19520519433E+02  0.50083218303E+02  0.19421570370E+03  0.22080363582E+03  0.90250355083E+02 0.  0.
          5    1    3    3  502    0  0.68187575244E+02 -0.37347272179E+02 -0.77288969608E+02  0.10972711142E+03  0.47000000000E+01 0. -1.
         -5    1    3    3    0  502 -0.48667055810E+02 -0.12735946124E+02 -0.87952148531E+01  0.51284816946E+02  0.47000000000E+01 0. -1.
        -11    1    4    4    0    0 -0.39717258387E+02  0.28088380128E+02  0.18225650986E+03  0.18863682858E+03  0.00000000000E+00 0. -1.
         11    1    4    4    0    0  0.20196738954E+02  0.21994838175E+02  0.11959193850E+02  0.32166807244E+02  0.00000000000E+00 0.  1.
<mgrwt>
<rscale>  0 0.12754394E+03</rscale>
<asrwt>0</asrwt>
<pdfrwt beam="1">  1        2 0.37688237E-01 0.13606746E+03</pdfrwt>
<pdfrwt beam="2">  1       -2 0.21052619E-01 0.13606746E+03</pdfrwt>
<totfact> 0.25457975E+03</totfact>
</mgrwt>
</event>
<event>
 8    1  0.8504141E-006  0.1433237E+03  0.7546771E-02  0.1220378E+00
         -2   -1    0    0    0  501 -0.00000000000E+00  0.00000000000E+00  0.84012329883E+02  0.84012329883E+02  0.00000000000E+00 0.  1.
          2   -1    0    0  501    0  0.00000000000E+00 -0.00000000000E+00 -0.19933528227E+03  0.19933528227E+03  0.00000000000E+00 0. -1.
         23    2    1    2    0    0 -0.64024763054E+02  0.28596209727E+02 -0.42928008857E+02  0.14961449193E+03  0.12499907502E+03 0.  0.
         23    2    1    2    0    0  0.64024763054E+02 -0.28596209727E+02 -0.72394943534E+02  0.13373312023E+03  0.87901115472E+02 0.  0.
          5    1    3    3  502    0 -0.26479262027E+02  0.14217817496E+02 -0.85571974900E+02  0.90818228017E+02  0.47000000000E+01 0. -1.
         -5    1    3    3    0  502 -0.37545501027E+02  0.14378392230E+02  0.42643966043E+02  0.58796263915E+02  0.47000000000E+01 0. -1.
        -11    1    4    4    0    0  0.81855080888E+02 -0.29910215623E+02 -0.38214017070E+02  0.95158742985E+02  0.00000000000E+00 0.  1.
         11    1    4    4    0    0 -0.17830317834E+02  0.13140058964E+01 -0.34180926464E+02  0.38574377241E+02  0.00000000000E+00 0. -1.
<mgrwt>
<rscale>  0 0.13488759E+03</rscale>
<asrwt>0</asrwt>
<pdfrwt beam="2">  1        2 0.30666967E-01 0.14332370E+03</pdfrwt>
<pdfrwt beam="1">  1       -2 0.12924974E-01 0.14332370E+03</pdfrwt>
<totfact> 0.71409023E+03</totfact>
</mgrwt>
</event>
<event>
 8    1  0.8504141E-006  0.1761118E+03  0.7546771E-02  0.1178207E+00
          2   -1    0    0  501    0  0.00000000000E+00  0.00000000000E+00  0.11896692463E+04  0.11896692463E+04  0.00000000000E+00 0. -1.
         -2   -1    0    0    0  501 -0.00000000000E+00 -0.00000000000E+00 -0.22655577028E+02  0.22655577028E+02  0.00000000000E+00 0.  1.
         23    2    1    2    0    0 -0.10653017696E+03  0.63577342790E+02  0.59159131106E+03  0.61724844839E+03  0.12499844239E+03 0.  0.
         23    2    1    2    0    0  0.10653017696E+03 -0.63577342790E+02  0.57542235823E+03  0.59507637496E+03  0.87259638786E+02 0.  0.
          5    1    3    3  502    0 -0.71806134023E+02  0.99063950035E+02  0.35696009216E+03  0.37737565432E+03  0.47000000000E+01 0. -1.
         -5    1    3    3    0  502 -0.34724042935E+02 -0.35486607245E+02  0.23463121890E+03  0.23987279407E+03  0.47000000000E+01 0. -1.
        -11    1    4    4    0    0  0.62388979838E+01 -0.37682794018E+02  0.76381325335E+02  0.85399201828E+02  0.00000000000E+00 0.  1.
         11    1    4    4    0    0  0.10029127897E+03 -0.25894548772E+02  0.49904103290E+03  0.50967717313E+03  0.00000000000E+00 0. -1.
<mgrwt>
<rscale>  0 0.16965597E+03</rscale>
<asrwt>0</asrwt>
<pdfrwt beam="1">  1        2 0.18302599E+00 0.17611180E+03</pdfrwt>
<pdfrwt beam="2">  1       -2 0.34854743E-02 0.17611180E+03</pdfrwt>
<totfact> 0.67482056E+03</totfact>
</mgrwt>
</event>
<event>
 8    1  0.8504141E-006  0.1575456E+03  0.7546771E-02  0.1199081E+00
          2   -1    0    0  501    0  0.00000000000E+00  0.00000000000E+00  0.87873016768E+02  0.87873016768E+02  0.00000000000E+00 0. -1.
         -2   -1    0    0    0  501 -0.00000000000E+00 -0.00000000000E+00 -0.24401442518E+03  0.24401442518E+03  0.00000000000E+00 0.  1.
         23    2    1    2    0    0  0.69925978951E+02  0.65618211309E+02 -0.10316298416E+03  0.18831681130E+03  0.12500091172E+03 0.  0.
         23    2    1    2    0    0 -0.69925978951E+02 -0.65618211309E+02 -0.52978424252E+02  0.14357063064E+03  0.92792350757E+02 0.  0.
          5    1    3    3  502    0 -0.48781614585E+01  0.53979708677E+02  0.66995832899E+01  0.54814047691E+02  0.47000000000E+01 0. -1.
         -5    1    3    3    0  502  0.74804140409E+02  0.11638502633E+02 -0.10986256745E+03  0.13350276361E+03  0.47000000000E+01 0. -1.
        -11    1    4    4    0    0 -0.28005501404E+02 -0.74837263285E+02 -0.60200426721E+02  0.10004506716E+03  0.00000000000E+00 0.  1.
         11    1    4    4    0    0 -0.41920477547E+02  0.92190519760E+01  0.72220024687E+01  0.43525563486E+02  0.00000000000E+00 0. -1.
<mgrwt>
<rscale>  0 0.15113845E+03</rscale>
<asrwt>0</asrwt>
<pdfrwt beam="1">  1        2 0.13518926E-01 0.15754561E+03</pdfrwt>
<pdfrwt beam="2">  1       -2 0.37540679E-01 0.15754561E+03</pdfrwt>
<totfact> 0.28830765E+03</totfact>
</mgrwt>
</event>
<event>
 8    1  0.8504141E-006  0.2771853E+03  0.7546771E-02  0.1099064E+00
          1   -1    0    0  501    0  0.00000000000E+00  0.00000000000E+00  0.92207776410E+03  0.92207776410E+03  0.00000000000E+00 0. -1.
         -1   -1    0    0    0  501 -0.00000000000E+00 -0.00000000000E+00 -0.97038109677E+02  0.97038109677E+02  0.00000000000E+00 0.  1.
         23    2    1    2    0    0  0.21992449487E+03 -0.11331494324E+03  0.20396611549E+03  0.34414225479E+03  0.12499862182E+03 0.  0.
         23    2    1    2    0    0 -0.21992449487E+03  0.11331494324E+03  0.62107353893E+03  0.67497361899E+03  0.93005299667E+02 0.  0.
          5    1    3    3  502    0  0.13922042635E+03 -0.86892203035E+02  0.20033549840E+03  0.25901541263E+03  0.47000000000E+01 0.  1.
         -5    1    3    3    0  502  0.80704068518E+02 -0.26422740205E+02  0.36306170952E+01  0.85126842158E+02  0.47000000000E+01 0.  1.
        -11    1    4    4    0    0 -0.29114127621E+02  0.59141262596E+02  0.15965176594E+03  0.17272523769E+03  0.00000000000E+00 0. -1.
         11    1    4    4    0    0 -0.19081036725E+03  0.54173680644E+02  0.46142177299E+03  0.50224838130E+03  0.00000000000E+00 0.  1.
<mgrwt>
<rscale>  0 0.27390753E+03</rscale>
<asrwt>0</asrwt>
<pdfrwt beam="1">  1        1 0.14185811E+00 0.27718534E+03</pdfrwt>
<pdfrwt beam="2">  1       -1 0.14928941E-01 0.27718534E+03</pdfrwt>
<totfact> 0.59637989E+02</totfact>
</mgrwt>
</event>
<event>
 8    1  0.8504141E-006  0.1588014E+03  0.7546771E-02  0.1197271E+00
         -2   -1    0    0    0  501 -0.00000000000E+00  0.00000000000E+00  0.51377158581E+03  0.51377158581E+03  0.00000000000E+00 0. -1.
          2   -1    0    0  501    0  0.00000000000E+00 -0.00000000000E+00 -0.43125174084E+02  0.43125174084E+02  0.00000000000E+00 0.  1.
         23    2    1    2    0    0  0.75922842219E+02 -0.61873083145E+02  0.29509012281E+03  0.33510607091E+03  0.12500136717E+03 0.  0.
         23    2    1    2    0    0 -0.75922842219E+02  0.61873083145E+02  0.17555628891E+03  0.22179068898E+03  0.93693877876E+02 0.  0.
          5    1    3    3  502    0  0.87790699802E+02 -0.89926703309E+02  0.25689472186E+03  0.28602623492E+03  0.47000000000E+01 0. -1.
         -5    1    3    3    0  502 -0.11867857584E+02  0.28053620164E+02  0.38195400944E+02  0.49079835994E+02  0.47000000000E+01 0. -1.
        -11    1    4    4    0    0 -0.52086938485E+02  0.36737389031E+02  0.26953533480E+02  0.69203886312E+02  0.00000000000E+00 0.  1.
         11    1    4    4    0    0 -0.23835903734E+02  0.25135694114E+02  0.14860275543E+03  0.15258680267E+03  0.00000000000E+00 0. -1.
<mgrwt>
<rscale>  0 0.15263626E+03</rscale>
<asrwt>0</asrwt>
<pdfrwt beam="2">  1        2 0.66346425E-02 0.15880144E+03</pdfrwt>
<pdfrwt beam="1">  1       -2 0.79041778E-01 0.15880144E+03</pdfrwt>
<totfact> 0.15443592E+03</totfact>
</mgrwt>
</event>
<event>
 8    1  0.8504141E-006  0.1299442E+03  0.7546771E-02  0.1241963E+00
          2   -1    0    0  501    0  0.00000000000E+00  0.00000000000E+00  0.38886332224E+02  0.38886332224E+02  0.00000000000E+00 0. -1.
         -2   -1    0    0    0  501 -0.00000000000E+00 -0.00000000000E+00 -0.41708381398E+03  0.41708381398E+03  0.00000000000E+00 0.  1.
         23    2    1    2    0    0  0.11467341568E+02 -0.33587074706E+02 -0.31420711020E+03  0.34001707600E+03  0.12500364939E+03 0.  0.
         23    2    1    2    0    0 -0.11467341568E+02  0.33587074706E+02 -0.63990371561E+02  0.11595307021E+03  0.89948626051E+02 0.  0.
          5    1    3    3  502    0 -0.33330864141E+02 -0.66180988299E+02 -0.17319626090E+03  0.18844071881E+03  0.47000000000E+01 0.  1.
         -5    1    3    3    0  502  0.44798205708E+02  0.32593913593E+02 -0.14101084930E+03  0.15157635718E+03  0.47000000000E+01 0.  1.
        -11    1    4    4    0    0  0.10789678876E+02  0.36077881715E+02  0.97402487685E+01  0.38896055910E+02  0.00000000000E+00 0. -1.
         11    1    4    4    0    0 -0.22257020443E+02 -0.24908070085E+01 -0.73730620330E+02  0.77057014300E+02  0.00000000000E+00 0.  1.
<mgrwt>
<rscale>  0 0.12068998E+03</rscale>
<asrwt>0</asrwt>
<pdfrwt beam="1">  1        2 0.59825124E-02 0.12994423E+03</pdfrwt>
<pdfrwt beam="2">  1       -2 0.64166743E-01 0.12994423E+03</pdfrwt>
<totfact> 0.27210538E+03</totfact>
</mgrwt>
</event>
<event>
 8    1  0.8504141E-006  0.1355726E+03  0.7546771E-02  0.1231358E+00
          1   -1    0    0  501    0  0.00000000000E+00  0.00000000000E+00  0.19277632913E+03  0.19277632913E+03  0.00000000000E+00 0. -1.
         -1   -1    0    0    0  501 -0.00000000000E+00 -0.00000000000E+00 -0.77837384424E+02  0.77837384424E+02  0.00000000000E+00 0.  1.
         23    2    1    2    0    0  0.51486267990E+02 -0.10158150949E+02  0.41171260131E+02  0.14168628828E+03  0.12500363116E+03 0.  0.
         23    2    1    2    0    0 -0.51486267990E+02  0.10158150949E+02  0.73767684571E+02  0.12892742527E+03  0.91796437176E+02 0.  0.
          5    1    3    3  502    0 -0.17641913984E+01 -0.60644181846E+02  0.28009380709E+02  0.66988391313E+02  0.47000000000E+01 0. -1.
         -5    1    3    3    0  502  0.53250459388E+02  0.50486030897E+02  0.13161879422E+02  0.74697896963E+02  0.47000000000E+01 0. -1.
        -11    1    4    4    0    0 -0.17141230213E+02  0.43715450340E+02  0.64888300496E+02  0.80095904470E+02  0.00000000000E+00 0. -1.
         11    1    4    4    0    0 -0.34345037777E+02 -0.33557299391E+02  0.88793840746E+01  0.48831520802E+02  0.00000000000E+00 0.  1.
<mgrwt>
<rscale>  0 0.12740520E+03</rscale>
<asrwt>0</asrwt>
<pdfrwt beam="1">  1        1 0.29657897E-01 0.13557261E+03</pdfrwt>
<pdfrwt beam="2">  1       -1 0.11974982E-01 0.13557261E+03</pdfrwt>
<totfact> 0.67124071E+03</totfact>
</mgrwt>
</event>
<event>
 8    1  0.8504141E-006  0.1241675E+03  0.7546771E-02  0.1247774E+00
          2   -1    0    0  501    0  0.00000000000E+00  0.00000000000E+00  0.59459076978E+03  0.59459076978E+03  0.00000000000E+00 0. -1.
         -2   -1    0    0    0  501 -0.00000000000E+00 -0.00000000000E+00 -0.21469730357E+02  0.21469730357E+02  0.00000000000E+00 0.  1.
         23    2    1    2    0    0  0.33886934676E+02 -0.25673706351E+02  0.26708485085E+03  0.29453674108E+03  0.11666237933E+03 0.  0.
         23    2    1    2    0    0 -0.33886934676E+02  0.25673706351E+02  0.30603618857E+03  0.32152375906E+03  0.88948948189E+02 0.  0.
          5    1    3    3  502    0  0.68363163357E+01  0.42836618131E+02  0.56463207253E+02  0.71357514301E+02  0.47000000000E+01 0. -1.
         -5    1    3    3    0  502  0.27050618340E+02 -0.68510324482E+02  0.21062164360E+03  0.22317922678E+03  0.47000000000E+01 0.  1.
        -11    1    4    4    0    0 -0.60516661526E+02 -0.15066645991E+01  0.18781801285E+03  0.19733256779E+03  0.00000000000E+00 0.  1.
         11    1    4    4    0    0  0.26629726850E+02  0.27180370950E+02  0.11821817572E+03  0.12419119127E+03  0.00000000000E+00 0. -1.
<mgrwt>
<rscale>  0 0.11720897E+03</rscale>
<asrwt>0</asrwt>
<pdfrwt beam="1">  1        2 0.91475491E-01 0.12416753E+03</pdfrwt>
<pdfrwt beam="2">  1       -2 0.33030359E-02 0.12416753E+03</pdfrwt>
<totfact> 0.17551376E+04</totfact>
</mgrwt>
</event>
<event>
 8    1  0.8504141E-006  0.1357100E+03  0.7546771E-02  0.1231636E+00
         -1   -1    0    0    0  501 -0.00000000000E+00  0.00000000000E+00  0.97069076711E+02  0.97069076711E+02  0.00000000000E+00 0.  1.
          1   -1    0    0  501    0  0.00000000000E+00 -0.00000000000E+00 -0.14928070228E+03  0.14928070228E+03  0.00000000000E+00 0. -1.
         23    2    1    2    0    0  0.51623260461E+02 -0.11000709901E+02 -0.24125030332E+02  0.13783770045E+03  0.12502494926E+03 0.  0.
         23    2    1    2    0    0 -0.51623260461E+02  0.11000709901E+02 -0.28086595233E+02  0.10851207854E+03  0.90554059643E+02 0.  0.
          5    1    3    3  502    0  0.35380083856E+02  0.20291797410E+02  0.44497700005E+02  0.60544551212E+02  0.47000000000E+01 0. -1.
         -5    1    3    3    0  502  0.16243176605E+02 -0.31292507311E+02 -0.68622730337E+02  0.77293149236E+02  0.47000000000E+01 0. -1.
        -11    1    4    4    0    0 -0.30776347225E+02  0.36649350208E+02 -0.49719311276E+02  0.69009914743E+02  0.00000000000E+00 0. -1.
         11    1    4    4    0    0 -0.20846913236E+02 -0.25648640307E+02  0.21632716043E+02  0.39502163794E+02  0.00000000000E+00 0.  1.
<mgrwt>
<rscale>  0 0.12722252E+03</rscale>
<asrwt>0</asrwt>
<pdfrwt beam="2">  1        1 0.22966262E-01 0.13571004E+03</pdfrwt>
<pdfrwt beam="1">  1       -1 0.14933704E-01 0.13571004E+03</pdfrwt>
<totfact> 0.65604595E+03</totfact>
</mgrwt>
</event>
<event>
 8    1  0.8504141E-006  0.2560875E+03  0.7546771E-02  0.1111489E+00
          1   -1    0    0  501    0  0.00000000000E+00  0.00000000000E+00  0.10621901240E+03  0.10621901240E+03  0.00000000000E+00 0. -1.
         -1   -1    0    0    0  501 -0.00000000000E+00 -0.00000000000E+00 -0.63728561793E+03  0.63728561793E+03  0.00000000000E+00 0.  1.
         23    2    1    2    0    0 -0.10470930680E+03 -0.19746314743E+03 -0.37549276073E+03  0.45450593012E+03  0.12500037452E+03 0.  0.
         23    2    1    2    0    0  0.10470930680E+03  0.19746314743E+03 -0.15557384481E+03  0.28899870021E+03  0.96753780348E+02 0.  0.
          5    1    3    3  502    0 -0.46761758185E+02 -0.13187195590E+03 -0.11996934143E+03  0.18436813083E+03  0.47000000000E+01 0.  1.
         -5    1    3    3    0  502 -0.57947548619E+02 -0.65591191533E+02 -0.25552341930E+03  0.27013779929E+03  0.47000000000E+01 0.  1.
        -11    1    4    4    0    0  0.10525679756E+03  0.10937422270E+03 -0.12193220988E+03  0.19470279358E+03  0.00000000000E+00 0.  1.
         11    1    4    4    0    0 -0.54749075250E+00  0.88088924733E+02 -0.33641634932E+02  0.94295906633E+02  0.00000000000E+00 0. -1.
<mgrwt>
<rscale>  0 0.25289413E+03</rscale>
<asrwt>0</asrwt>
<pdfrwt beam="1">  1        1 0.16341387E-01 0.25608754E+03</pdfrwt>
<pdfrwt beam="2">  1       -1 0.98043941E-01 0.25608754E+03</pdfrwt>
<totfact> 0.35166530E+02</totfact>
</mgrwt>
</event>
<event>
 8    1  0.8504141E-006  0.1284813E+03  0.7546771E-02  0.1244559E+00
          2   -1    0    0  501    0  0.00000000000E+00  0.00000000000E+00  0.43565112645E+02  0.43565112645E+02  0.00000000000E+00 0. -1.
         -2   -1    0    0    0  501 -0.00000000000E+00 -0.00000000000E+00 -0.29983587294E+03  0.29983587294E+03  0.00000000000E+00 0.  1.
         23    2    1    2    0    0 -0.27363802289E+02 -0.11072905606E+02 -0.18245031531E+03  0.22314921904E+03  0.12504427011E+03 0.  0.
         23    2    1    2    0    0  0.27363802289E+02  0.11072905606E+02 -0.73820444985E+02  0.12025176654E+03  0.90219966441E+02 0.  0.
          5    1    3    3  502    0 -0.50323200003E+02 -0.30185610552E+02 -0.26967587158E+02  0.64752886422E+02  0.47000000000E+01 0.  1.
         -5    1    3    3    0  502  0.22959397714E+02  0.19112704946E+02 -0.15548272815E+03  0.15839633262E+03  0.47000000000E+01 0.  1.
        -11    1    4    4    0    0 -0.32353846820E+02  0.62897463043E+01 -0.38598304671E+02  0.50755900505E+02  0.00000000000E+00 0.  1.
         11    1    4    4    0    0  0.59717649109E+02  0.47831593015E+01 -0.35222140314E+02  0.69495866037E+02  0.00000000000E+00 0. -1.
<mgrwt>
<rscale>  0 0.11911785E+03</rscale>
<asrwt>0</asrwt>
<pdfrwt beam="1">  1        2 0.67023247E-02 0.12848135E+03</pdfrwt>
<pdfrwt beam="2">  1       -2 0.46128598E-01 0.12848135E+03</pdfrwt>
<totfact> 0.45656038E+03</totfact>
</mgrwt>
</event>
<event>
 8    1  0.8504141E-006  0.1774815E+03  0.7546771E-02  0.1176278E+00
         -1   -1    0    0    0  501 -0.00000000000E+00  0.00000000000E+00  0.79000527692E+03  0.79000527692E+03  0.00000000000E+00 0.  1.
          1   -1    0    0  501    0  0.00000000000E+00 -0.00000000000E+00 -0.40291616602E+02  0.40291616602E+02  0.00000000000E+00 0. -1.
         23    2    1    2    0    0  0.11916761663E+03 -0.40912591624E+02  0.54807977399E+03  0.57609992016E+03  0.12499967337E+03 0.  0.
         23    2    1    2    0    0 -0.11916761663E+03  0.40912591624E+02  0.20163388632E+03  0.25419697336E+03  0.89917273898E+02 0.  0.
          5    1    3    3  502    0 -0.13747933205E+02  0.21197684352E+02  0.42721895411E+02  0.49855770346E+02  0.47000000000E+01 0.  1.
         -5    1    3    3    0  502  0.13291554983E+03 -0.62110275976E+02  0.50535787858E+03  0.52624414981E+03  0.47000000000E+01 0.  1.
        -11    1    4    4    0    0 -0.81647925038E+02  0.13078736422E+02  0.18823566427E+03  0.20559694140E+03  0.00000000000E+00 0.  1.
         11    1    4    4    0    0 -0.37519691590E+02  0.27833855202E+02  0.13398222053E+02  0.48600031960E+02  0.00000000000E+00 0. -1.
<mgrwt>
<rscale>  0 0.17151432E+03</rscale>
<asrwt>0</asrwt>
<pdfrwt beam="2">  1        1 0.61987108E-02 0.17748149E+03</pdfrwt>
<pdfrwt beam="1">  1       -1 0.12153926E+00 0.17748149E+03</pdfrwt>
<totfact> 0.78691610E+02</totfact>
</mgrwt>
</event>
<event>
 7    1  0.8504141E-006  0.1511201E+03  0.7546771E-02  0.1209206E+00
          3   -1    0    0  501    0  0.00000000000E+00  0.00000000000E+00  0.83623362934E+02  0.83623362934E+02  0.00000000000E+00 0. -1.
         -3   -1    0    0    0  501 -0.00000000000E+00 -0.00000000000E+00 -0.25183492445E+03  0.25183492445E+03  0.00000000000E+00 0.  1.
         23    2    1    2    0    0 -0.73899109586E+02 -0.18921183107E+02 -0.18860208445E+02  0.12298921232E+03  0.94612627687E+02 0.  0.
          5    1    1    2  502    0  0.14937602305E+02  0.92143091855E+01  0.23393499160E+02  0.29620622197E+02  0.47000000000E+01 0. -1.
         -5    1    1    2    0  502  0.58961507281E+02  0.97068739214E+01 -0.17274485223E+03  0.18284845287E+03  0.47000000000E+01 0.  1.
        -11    1    3    3    0    0 -0.22864032279E+02  0.31421981574E+02  0.17488021754E+02  0.42613798270E+02  0.00000000000E+00 0.  1.
         11    1    3    3    0    0 -0.51035077307E+02 -0.50343164681E+02 -0.36348230199E+02  0.80375414055E+02  0.00000000000E+00 0. -1.
<mgrwt>
<rscale>  0 0.14310887E+03</rscale>
<asrwt>0</asrwt>
<pdfrwt beam="1">  1        3 0.12865133E-01 0.15112009E+03</pdfrwt>
<pdfrwt beam="2">  1       -3 0.38743834E-01 0.15112009E+03</pdfrwt>
<totfact> 0.74923686E+02</totfact>
</mgrwt>
</event>
<event>
 8    1  0.9884250E-006  0.1939844E+03  0.7546771E-02  0.1159320E+00
         -1   -1    0    0    0  501 -0.00000000000E+00  0.00000000000E+00  0.56036516069E+02  0.56036516069E+02  0.00000000000E+00 0.  1.
          1   -1    0    0  501    0  0.00000000000E+00 -0.00000000000E+00 -0.61233825471E+03  0.61233825471E+03  0.00000000000E+00 0. -1.
         23    2    1    2    0    0  0.61555065364E+01 -0.14821465270E+03 -0.26231810810E+03  0.32625257964E+03  0.12499792938E+03 0.  0.
         23    2    1    2    0    0 -0.61555065364E+01  0.14821465270E+03 -0.29398363053E+03  0.34212219113E+03  0.92821038078E+02 0.  0.
          5    1    3    3  502    0 -0.43028165046E+02 -0.80049818018E+02 -0.65317689179E+02  0.11201735076E+03  0.47000000000E+01 0. -1.
         -5    1    3    3    0  502  0.49183671583E+02 -0.68164834679E+02 -0.19700041892E+03  0.21423522888E+03  0.47000000000E+01 0. -1.
        -11    1    4    4    0    0  0.28182699893E+01  0.58977751992E+02 -0.36381256173E+02  0.69353541196E+02  0.00000000000E+00 0.  1.
         11    1    4    4    0    0 -0.89737765257E+01  0.89236900705E+02 -0.25760237436E+03  0.27276864994E+03  0.00000000000E+00 0. -1.
<mgrwt>
<rscale>  0 0.18905055E+03</rscale>
<asrwt>0</asrwt>
<pdfrwt beam="2">  1        1 0.94205881E-01 0.19398442E+03</pdfrwt>
<pdfrwt beam="1">  1       -1 0.86210029E-02 0.19398442E+03</pdfrwt>
<totfact> 0.25958457E+03</totfact>
</mgrwt>
</event>
<event>
 8    1  0.8504141E-006  0.1294824E+03  0.7546771E-02  0.1242436E+00
         -1   -1    0    0    0  501 -0.00000000000E+00  0.00000000000E+00  0.24176858595E+02  0.24176858595E+02  0.00000000000E+00 0.  1.
          1   -1    0    0  501    0  0.00000000000E+00 -0.00000000000E+00 -0.56207331561E+03  0.56207331561E+03  0.00000000000E+00 0. -1.
         23    2    1    2    0    0  0.13592650007E+02 -0.30887164797E+02 -0.23566004637E+03  0.26888909016E+03  0.12500763285E+03 0.  0.
         23    2    1    2    0    0 -0.13592650007E+02  0.30887164797E+02 -0.30223641064E+03  0.31736108404E+03  0.90732754072E+02 0.  0.
          5    1    3    3  502    0  0.43678888487E+02  0.26884053513E+02 -0.16417848272E+03  0.17206760829E+03  0.47000000000E+01 0.  1.
         -5    1    3    3    0  502 -0.30086238479E+02 -0.57771218310E+02 -0.71481563649E+02  0.96821481875E+02  0.47000000000E+01 0.  1.
        -11    1    4    4    0    0 -0.16608378644E+02  0.62693463751E+02 -0.20249313005E+03  0.21262590707E+03  0.00000000000E+00 0.  1.
         11    1    4    4    0    0  0.30157286362E+01 -0.31806298954E+02 -0.99743280591E+02  0.10473517697E+03  0.00000000000E+00 0. -1.
<mgrwt>
<rscale>  0 0.12040165E+03</rscale>
<asrwt>0</asrwt>
<pdfrwt beam="2">  1        1 0.86472815E-01 0.12948237E+03</pdfrwt>
<pdfrwt beam="1">  1       -1 0.37195168E-02 0.12948237E+03</pdfrwt>
<totfact> 0.10038771E+04</totfact>
</mgrwt>
</event>
<event>
 8    1  0.8504141E-006  0.1315233E+03  0.7546771E-02  0.1238524E+00
          1   -1    0    0  501    0  0.00000000000E+00  0.00000000000E+00  0.11708575062E+03  0.11708575062E+03  0.00000000000E+00 0. -1.
         -1   -1    0    0    0  501 -0.00000000000E+00 -0.00000000000E+00 -0.14358274606E+03  0.14358274606E+03  0.00000000000E+00 0.  1.
         23    2    1    2    0    0  0.16473810210E+02 -0.37542841064E+02 -0.72956870427E+02  0.15040307049E+03  0.12497010576E+03 0.  0.
         23    2    1    2    0    0 -0.16473810210E+02  0.37542841064E+02  0.46459874988E+02  0.11026542618E+03  0.91209061440E+02 0.  0.
          5    1    3    3  502    0 -0.42458442441E+02 -0.52711533332E+02 -0.23355133505E+02  0.71754981303E+02  0.47000000000E+01 0.  1.
         -5    1    3    3    0  502  0.58932252651E+02  0.15168692269E+02 -0.49601736922E+02  0.78648089191E+02  0.47000000000E+01 0.  1.
        -11    1    4    4    0    0 -0.28428788983E+02  0.47143794730E+02 -0.62173370818E+01  0.55402064086E+02  0.00000000000E+00 0.  1.
         11    1    4    4    0    0  0.11954978773E+02 -0.96009536664E+01  0.52677212070E+02  0.54863362094E+02  0.00000000000E+00 0. -1.
<mgrwt>
<rscale>  0 0.12281509E+03</rscale>
<asrwt>0</asrwt>
<pdfrwt beam="1">  1        1 0.18013192E-01 0.13152330E+03</pdfrwt>
<pdfrwt beam="2">  1       -1 0.22089653E-01 0.13152330E+03</pdfrwt>
<totfact> 0.47791339E+03</totfact>
</mgrwt>
</event>
<event>
 8    1  0.8504141E-006  0.1449126E+03  0.7546771E-02  0.1219095E+00
          2   -1    0    0  501    0  0.00000000000E+00  0.00000000000E+00  0.63518950038E+03  0.63518950038E+03  0.00000000000E+00 0. -1.
         -2   -1    0    0    0  501 -0.00000000000E+00 -0.00000000000E+00 -0.27944578096E+02  0.27944578096E+02  0.00000000000E+00 0.  1.
         23    2    1    2    0    0  0.49721648664E+02 -0.53883464221E+02  0.25166477557E+03  0.29040458859E+03  0.12499598293E+03 0.  0.
         23    2    1    2    0    0 -0.49721648664E+02  0.53883464221E+02  0.35558014671E+03  0.37272948989E+03  0.84346676474E+02 0.  0.
          5    1    3    3  502    0  0.16414905134E+02 -0.77114015338E+02  0.23193362963E+03  0.24501289563E+03  0.47000000000E+01 0. -1.
         -5    1    3    3    0  502  0.33306743530E+02  0.23230551116E+02  0.19731145948E+02  0.45391692964E+02  0.47000000000E+01 0. -1.
        -11    1    4    4    0    0  0.17145128383E+02 -0.94988018631E+01  0.65445681505E+02  0.68317786057E+02  0.00000000000E+00 0.  1.
         11    1    4    4    0    0 -0.66866777048E+02  0.63382266084E+02  0.29013446521E+03  0.30441170383E+03  0.00000000000E+00 0. -1.
<mgrwt>
<rscale>  0 0.13580010E+03</rscale>
<asrwt>0</asrwt>
<pdfrwt beam="1">  1        2 0.97721450E-01 0.14491261E+03</pdfrwt>
<pdfrwt beam="2">  1       -2 0.42991664E-02 0.14491261E+03</pdfrwt>
<totfact> 0.11138894E+04</totfact>
</mgrwt>
</event>
<event>
 8    1  0.1001858E-005  0.2434402E+03  0.7546771E-02  0.1120292E+00
         -1   -1    0    0    0  501 -0.00000000000E+00  0.00000000000E+00  0.98810116550E+02  0.98810116550E+02  0.00000000000E+00 0.  1.
          1   -1    0    0  501    0  0.00000000000E+00 -0.00000000000E+00 -0.66106591433E+03  0.66106591433E+03  0.00000000000E+00 0. -1.
         23    2    1    2    0    0 -0.36709930860E+02  0.20564577318E+03 -0.14107659692E+03  0.28136409233E+03  0.12500137282E+03 0.  0.
         23    2    1    2    0    0  0.36709930860E+02 -0.20564577318E+03 -0.42117920087E+03  0.47851193855E+03  0.89128856407E+02 0.  0.
          5    1    3    3  502    0  0.42038947562E+02  0.33103034036E+02 -0.31825077162E+02  0.62434041282E+02  0.47000000000E+01 0.  1.
         -5    1    3    3    0  502 -0.78748878422E+02  0.17254273914E+03 -0.10925151976E+03  0.21893005105E+03  0.47000000000E+01 0.  1.
        -11    1    4    4    0    0 -0.93391383083E+01 -0.15988030312E+03 -0.26904693821E+03  0.31310571025E+03  0.00000000000E+00 0.  1.
         11    1    4    4    0    0  0.46049069168E+02 -0.45765470063E+02 -0.15213226266E+03  0.16540622831E+03  0.00000000000E+00 0. -1.
<mgrwt>
<rscale>  0 0.23925239E+03</rscale>
<asrwt>0</asrwt>
<pdfrwt beam="2">  1        1 0.10170244E+00 0.24344023E+03</pdfrwt>
<pdfrwt beam="1">  1       -1 0.15201557E-01 0.24344023E+03</pdfrwt>
<totfact> 0.96610371E+02</totfact>
</mgrwt>
</event>
<event>
 8    1  0.8504141E-006  0.1796036E+03  0.7546771E-02  0.1174034E+00
          1   -1    0    0  501    0  0.00000000000E+00  0.00000000000E+00  0.49180920826E+02  0.49180920826E+02  0.00000000000E+00 0. -1.
         -1   -1    0    0    0  501 -0.00000000000E+00 -0.00000000000E+00 -0.69819869059E+03  0.69819869059E+03  0.00000000000E+00 0.  1.
         23    2    1    2    0    0  0.55858246772E+01  0.12883720861E+03 -0.49808964142E+03  0.52948156901E+03  0.12500885278E+03 0.  0.
         23    2    1    2    0    0 -0.55858246772E+01 -0.12883720861E+03 -0.15092812835E+03  0.21789804241E+03  0.89833341252E+02 0.  0.
          5    1    3    3  502    0 -0.51467799837E+02  0.90848209828E+02 -0.22841968313E+03  0.25119708057E+03  0.47000000000E+01 0.  1.
         -5    1    3    3    0  502  0.57053624515E+02  0.37988998781E+02 -0.26966995829E+03  0.27828448843E+03  0.47000000000E+01 0.  1.
        -11    1    4    4    0    0 -0.31083778131E+02 -0.12321091365E+02 -0.56987208732E+02  0.66072327902E+02  0.00000000000E+00 0.  1.
         11    1    4    4    0    0  0.25497953454E+02 -0.11651611724E+03 -0.93940919621E+02  0.15182571451E+03  0.00000000000E+00 0. -1.
<mgrwt>
<rscale>  0 0.17370963E+03</rscale>
<asrwt>0</asrwt>
<pdfrwt beam="1">  1        1 0.75662956E-02 0.17960357E+03</pdfrwt>
<pdfrwt beam="2">  1       -1 0.10741518E+00 0.17960357E+03</pdfrwt>
<totfact> 0.79927801E+02</totfact>
</mgrwt>
</event>
<event>
 8    1  0.8504141E-006  0.1999286E+03  0.7546771E-02  0.1154038E+00
         -2   -1    0    0    0  501 -0.00000000000E+00  0.00000000000E+00  0.14975502755E+03  0.14975502755E+03  0.00000000000E+00 0.  1.
          2   -1    0    0  501    0  0.00000000000E+00 -0.00000000000E+00 -0.24508981888E+03  0.24508981888E+03  0.00000000000E+00 0. -1.
         23    2    1    2    0    0 -0.83884779640E+02  0.13156290793E+03 -0.28222506362E+02  0.20191078041E+03  0.12500399346E+03 0.  0.
         23    2    1    2    0    0  0.83884779640E+02 -0.13156290793E+03 -0.67112284966E+02  0.19293406603E+03  0.91509781120E+02 0.  0.
          5    1    3    3  502    0 -0.28857999805E+02  0.13779923771E+03 -0.30555890045E+01  0.14090010891E+03  0.47000000000E+01 0.  1.
         -5    1    3    3    0  502 -0.55026779835E+02 -0.62363297745E+01 -0.25166917358E+02  0.61010671504E+02  0.47000000000E+01 0.  1.
        -11    1    4    4    0    0  0.45652431208E+02 -0.98403899829E+02  0.49987204534E+00  0.10847913094E+03  0.00000000000E+00 0.  1.
         11    1    4    4    0    0  0.38232348432E+02 -0.33159008105E+02 -0.67612157011E+02  0.84454935089E+02  0.00000000000E+00 0. -1.
<mgrwt>
<rscale>  0 0.19498763E+03</rscale>
<asrwt>0</asrwt>
<pdfrwt beam="2">  1        2 0.37706126E-01 0.19992862E+03</pdfrwt>
<pdfrwt beam="1">  1       -2 0.23039235E-01 0.19992862E+03</pdfrwt>
<totfact> 0.22109836E+03</totfact>
</mgrwt>
</event>
<event>
 8    1  0.8504141E-006  0.1461953E+03  0.7546771E-02  0.1214752E+00
         -2   -1    0    0    0  501 -0.00000000000E+00  0.00000000000E+00  0.27248938158E+03  0.27248938158E+03  0.00000000000E+00 0. -1.
          2   -1    0    0  501    0  0.00000000000E+00 -0.00000000000E+00 -0.67668438536E+02  0.67668438536E+02  0.00000000000E+00 0.  1.
         23    2    1    2    0    0  0.74793296321E+02 -0.12441350161E+02  0.14798089463E+03  0.20801780104E+03  0.12499694399E+03 0.  0.
         23    2    1    2    0    0 -0.74793296321E+02  0.12441350161E+02  0.56840048416E+02  0.13214001907E+03  0.92094349275E+02 0.  0.
          5    1    3    3  502    0  0.54611488947E+02  0.77389690187E+00 -0.31426262102E+01  0.54908831174E+02  0.47000000000E+01 0. -1.
         -5    1    3    3    0  502  0.20181807374E+02 -0.13215247063E+02  0.15112352084E+03  0.15310896987E+03  0.47000000000E+01 0. -1.
        -11    1    4    4    0    0 -0.11342711742E+02 -0.20826160788E+02  0.55644492139E+02  0.60487152258E+02  0.00000000000E+00 0.  1.
         11    1    4    4    0    0 -0.63450584579E+02  0.33267510949E+02  0.11955562769E+01  0.71652866816E+02  0.00000000000E+00 0. -1.
<mgrwt>
<rscale>  0 0.13894770E+03</rscale>
<asrwt>0</asrwt>
<pdfrwt beam="2">  1        2 0.10410529E-01 0.14619528E+03</pdfrwt>
<pdfrwt beam="1">  1       -2 0.41921443E-01 0.14619528E+03</pdfrwt>
<totfact> 0.31934308E+03</totfact>
</mgrwt>
</event>
<event>
 8    1  0.8504141E-006  0.1924727E+03  0.7546771E-02  0.1160748E+00
         -1   -1    0    0    0  501 -0.00000000000E+00  0.00000000000E+00  0.49569879686E+03  0.49569879686E+03  0.00000000000E+00 0.  1.
          1   -1    0    0  501    0  0.00000000000E+00 -0.00000000000E+00 -0.74904235588E+02  0.74904235588E+02  0.00000000000E+00 0. -1.
         23    2    1    2    0    0  0.10687235675E+03  0.10000495400E+03  0.31009363008E+03  0.36497095768E+03  0.12499219606E+03 0.  0.
         23    2    1    2    0    0 -0.10687235675E+03 -0.10000495400E+03  0.11070093120E+03  0.20563207477E+03  0.92774794765E+02 0.  0.
          5    1    3    3  502    0  0.67186447889E+02  0.96188571988E+02  0.11002929290E+03  0.16091859885E+03  0.47000000000E+01 0.  1.
         -5    1    3    3    0  502  0.39685908857E+02  0.38163820137E+01  0.20006433718E+03  0.20405235883E+03  0.47000000000E+01 0.  1.
        -11    1    4    4    0    0  0.55507469107E+01 -0.49317230718E+02  0.26023060435E+02  0.56037484877E+02  0.00000000000E+00 0.  1.
         11    1    4    4    0    0 -0.11242310366E+03 -0.50687723284E+02  0.84677870764E+02  0.14959458989E+03  0.00000000000E+00 0. -1.
<mgrwt>
<rscale>  0 0.18748693E+03</rscale>
<asrwt>0</asrwt>
<pdfrwt beam="2">  1        1 0.11523729E-01 0.19247270E+03</pdfrwt>
<pdfrwt beam="1">  1       -1 0.76261351E-01 0.19247270E+03</pdfrwt>
<totfact> 0.94888568E+02</totfact>
</mgrwt>
</event>
<event>
 8    1  0.8504141E-006  0.1285748E+03  0.7546771E-02  0.1243545E+00
          2   -1    0    0  501    0  0.00000000000E+00  0.00000000000E+00  0.61548021790E+03  0.61548021790E+03  0.00000000000E+00 0. -1.
         -2   -1    0    0    0  501 -0.00000000000E+00 -0.00000000000E+00 -0.21126925701E+02  0.21126925701E+02  0.00000000000E+00 0.  1.
         23    2    1    2    0    0  0.30049167297E+02  0.27109295940E+01  0.28890032886E+03  0.31621967915E+03  0.12498473456E+03 0.  0.
         23    2    1    2    0    0 -0.30049167297E+02 -0.27109295940E+01  0.30545296334E+03  0.32038746445E+03  0.91849403749E+02 0.  0.
          5    1    3    3  502    0  0.46787719987E+01 -0.48513826741E+02  0.22537334232E+03  0.23063112479E+03  0.47000000000E+01 0.  1.
         -5    1    3    3    0  502  0.25370395298E+02  0.51224756335E+02  0.63526986539E+02  0.85588554363E+02  0.47000000000E+01 0.  1.
        -11    1    4    4    0    0 -0.53728661590E+02 -0.24315553343E+02  0.14094694944E+03  0.15278762309E+03  0.00000000000E+00 0.  1.
         11    1    4    4    0    0  0.23679494293E+02  0.21604623749E+02  0.16450601389E+03  0.16759984136E+03  0.00000000000E+00 0. -1.
<mgrwt>
<rscale>  0 0.11972883E+03</rscale>
<asrwt>0</asrwt>
<pdfrwt beam="1">  1        2 0.94689251E-01 0.12857482E+03</pdfrwt>
<pdfrwt beam="2">  1       -2 0.32502967E-02 0.12857482E+03</pdfrwt>
<totfact> 0.17330229E+04</totfact>
</mgrwt>
</event>
<event>
 8    1  0.8504141E-006  0.1413794E+03  0.7546771E-02  0.1228373E+00
          1   -1    0    0  501    0  0.00000000000E+00  0.00000000000E+00  0.20421149085E+03  0.20421149085E+03  0.00000000000E+00 0. -1.
         -1   -1    0    0    0  501 -0.00000000000E+00 -0.00000000000E+00 -0.73257447870E+02  0.73257447870E+02  0.00000000000E+00 0.  1.
         23    2    1    2    0    0  0.25303004264E+02  0.60992912119E+02  0.51740097648E+02  0.15054954734E+03  0.12501100409E+03 0.  0.
         23    2    1    2    0    0 -0.25303004264E+02 -0.60992912119E+02  0.79213945332E+02  0.12691939138E+03  0.73981791143E+02 0.  0.
          5    1    3    3  502    0 -0.19379413209E+01 -0.33502434809E+02  0.38368667787E+02  0.51189973847E+02  0.47000000000E+01 0.  1.
         -5    1    3    3    0  502  0.27240945585E+02  0.94495346928E+02  0.13371429862E+02  0.99359573489E+02  0.47000000000E+01 0.  1.
        -11    1    4    4    0    0 -0.11752294652E+02 -0.46874967545E+02  0.32051056191E+01  0.48431928662E+02  0.00000000000E+00 0.  1.
         11    1    4    4    0    0 -0.13550709611E+02 -0.14117944574E+02  0.76008839713E+02  0.78487462722E+02  0.00000000000E+00 0. -1.
<mgrwt>
<rscale>  0 0.12938355E+03</rscale>
<asrwt>0</asrwt>
<pdfrwt beam="1">  1        1 0.31417152E-01 0.14137938E+03</pdfrwt>
<pdfrwt beam="2">  1       -1 0.11270377E-01 0.14137938E+03</pdfrwt>
<totfact> 0.68791690E+03</totfact>
</mgrwt>
</event>
<event>
 8    1  0.8504141E-006  0.1317145E+03  0.7546771E-02  0.1238696E+00
          3   -1    0    0  501    0  0.00000000000E+00  0.00000000000E+00  0.40195431144E+03  0.40195431144E+03  0.00000000000E+00 0. -1.
         -3   -1    0    0    0  501 -0.00000000000E+00 -0.00000000000E+00 -0.33178016746E+02  0.33178016746E+02  0.00000000000E+00 0.  1.
         23    2    1    2    0    0 -0.38175915724E+02  0.67936156015E+01  0.20674335130E+03  0.24513573448E+03  0.12587756456E+03 0.  0.
         23    2    1    2    0    0  0.38175915724E+02 -0.67936156015E+01  0.16203294339E+03  0.18999659370E+03  0.91326212668E+02 0.  0.
          5    1    3    3  502    0 -0.52469575510E+02 -0.49762001717E+02  0.12702479827E+03  0.14624193155E+03  0.47000000000E+01 0. -1.
         -5    1    3    3    0  502  0.14293659786E+02  0.56555617318E+02  0.79718553033E+02  0.98893802931E+02  0.47000000000E+01 0.  1.
        -11    1    4    4    0    0 -0.11700423754E+02  0.24826536910E+02  0.14407370877E+02  0.30997244821E+02  0.00000000000E+00 0.  1.
         11    1    4    4    0    0  0.49876339478E+02 -0.31620152511E+02  0.14762557251E+03  0.15899934888E+03  0.00000000000E+00 0. -1.
<mgrwt>
<rscale>  0 0.12270771E+03</rscale>
<asrwt>0</asrwt>
<pdfrwt beam="1">  1        3 0.61839121E-01 0.13171452E+03</pdfrwt>
<pdfrwt beam="2">  1       -3 0.51043106E-02 0.13171452E+03</pdfrwt>
<totfact> 0.13070993E+03</totfact>
</mgrwt>
</event>
<event>
 8    1  0.8504141E-006  0.1265296E+03  0.7546771E-02  0.1244432E+00
          2   -1    0    0  501    0  0.00000000000E+00  0.00000000000E+00  0.13450938471E+03  0.13450938471E+03  0.00000000000E+00 0. -1.
         -2   -1    0    0    0  501 -0.00000000000E+00 -0.00000000000E+00 -0.11856716012E+03  0.11856716012E+03  0.00000000000E+00 0.  1.
         23    2    1    2    0    0  0.22985811946E+01  0.19461344939E+02 -0.47273914490E+02  0.13507241253E+03  0.12500282482E+03 0.  0.
         23    2    1    2    0    0 -0.22985811946E+01 -0.19461344939E+02  0.63216139075E+02  0.11800413230E+03  0.97696814569E+02 0.  0.
          5    1    3    3  502    0  0.29541020656E+02 -0.46086581660E+02 -0.26250184181E+02  0.60891765290E+02  0.47000000000E+01 0.  1.
         -5    1    3    3    0  502 -0.27242439462E+02  0.65547926600E+02 -0.21023730308E+02  0.74180647243E+02  0.47000000000E+01 0.  1.
        -11    1    4    4    0    0  0.14187394313E+02 -0.42399941188E+02 -0.42015194606E+01  0.44907571031E+02  0.00000000000E+00 0.  1.
         11    1    4    4    0    0 -0.16485975508E+02  0.22938596249E+02  0.67417658536E+02  0.73096561265E+02  0.00000000000E+00 0. -1.
<mgrwt>
<rscale>  0 0.11919432E+03</rscale>
<asrwt>0</asrwt>
<pdfrwt beam="1">  1        2 0.20693751E-01 0.12652958E+03</pdfrwt>
<pdfrwt beam="2">  1       -2 0.18241102E-01 0.12652958E+03</pdfrwt>
<totfact> 0.62108225E+03</totfact>
</mgrwt>
</event>
<event>
 8    1  0.8504141E-006  0.1859647E+03  0.7546771E-02  0.1167740E+00
         -1   -1    0    0    0  501 -0.00000000000E+00  0.00000000000E+00  0.11005848855E+03  0.11005848855E+03  0.00000000000E+00 0.  1.
          1   -1    0    0  501    0  0.00000000000E+00 -0.00000000000E+00 -0.27949754077E+03  0.27949754077E+03  0.00000000000E+00 0. -1.
         23    2    1    2    0    0  0.12218747995E+03 -0.63466894035E+02 -0.10715183850E+03  0.21462611444E+03  0.12500010244E+03 0.  0.
         23    2    1    2    0    0 -0.12218747995E+03  0.63466894035E+02 -0.62287213711E+02  0.17492991488E+03  0.88107611669E+02 0.  0.
          5    1    3    3  502    0  0.13920202069E+03 -0.74276186398E+02 -0.71248532248E+02  0.17318371106E+03  0.47000000000E+01 0.  1.
         -5    1    3    3    0  502 -0.17014540737E+02  0.10809292363E+02 -0.35903306257E+02  0.41442403382E+02  0.47000000000E+01 0.  1.
        -11    1    4    4    0    0 -0.16853618859E+02  0.49232168462E+02 -0.61118005555E+00  0.52040603582E+02  0.00000000000E+00 0.  1.
         11    1    4    4    0    0 -0.10533386109E+03  0.14234725572E+02 -0.61676033656E+02  0.12288931130E+03  0.00000000000E+00 0. -1.
<mgrwt>
<rscale>  0 0.18006485E+03</rscale>
<asrwt>0</asrwt>
<pdfrwt beam="2">  1        1 0.42999621E-01 0.18596465E+03</pdfrwt>
<pdfrwt beam="1">  1       -1 0.16932075E-01 0.18596465E+03</pdfrwt>
<totfact> 0.24961756E+03</totfact>
</mgrwt>
</event>
<event>
 8    1  0.8504141E-006  0.1252177E+03  0.7546771E-02  0.1248854E+00
         -1   -1    0    0    0  501 -0.00000000000E+00  0.00000000000E+00  0.27021538153E+02  0.27021538153E+02  0.00000000000E+00 0.  1.
          1   -1    0    0  501    0  0.00000000000E+00 -0.00000000000E+00 -0.56472243347E+03  0.56472243347E+03  0.00000000000E+00 0. -1.
         23    2    1    2    0    0 -0.73704284765E+01  0.20869243074E+01 -0.16373290262E+03  0.20612600097E+03  0.12498314448E+03 0.  0.
         23    2    1    2    0    0  0.73704284765E+01 -0.20869243074E+01 -0.37396799270E+03  0.38561797066E+03  0.93757566435E+02 0.  0.
          5    1    3    3  502    0  0.42034787914E+02  0.40139449891E+02 -0.52228400069E+02  0.78281508713E+02  0.47000000000E+01 0.  1.
         -5    1    3    3    0  502 -0.49405216391E+02 -0.38052525584E+02 -0.11150450255E+03  0.12784449225E+03  0.47000000000E+01 0.  1.
        -11    1    4    4    0    0 -0.24921555918E+02 -0.38167398323E+02 -0.17413440754E+03  0.18000173926E+03  0.00000000000E+00 0.  1.
         11    1    4    4    0    0  0.32291984394E+02  0.36080474016E+02 -0.19983358515E+03  0.20561623140E+03  0.00000000000E+00 0. -1.
<mgrwt>
<rscale>  0 0.11657676E+03</rscale>
<asrwt>0</asrwt>
<pdfrwt beam="2">  1        1 0.86880370E-01 0.12521767E+03</pdfrwt>
<pdfrwt beam="1">  1       -1 0.41571599E-02 0.12521767E+03</pdfrwt>
<totfact> 0.84563590E+03</totfact>
</mgrwt>
</event>
<event>
 8    1  0.8504141E-006  0.1401779E+03  0.7546771E-02  0.1224413E+00
          1   -1    0    0  501    0  0.00000000000E+00  0.00000000000E+00  0.57147957189E+02  0.57147957189E+02  0.00000000000E+00 0. -1.
         -1   -1    0    0    0  501 -0.00000000000E+00 -0.00000000000E+00 -0.32483316405E+03  0.32483316405E+03  0.00000000000E+00 0.  1.
         23    2    1    2    0    0 -0.47401183412E+02  0.42170208517E+02 -0.22177025547E+03  0.26235834670E+03  0.12499862878E+03 0.  0.
         23    2    1    2    0    0  0.47401183412E+02 -0.42170208517E+02 -0.45914951387E+02  0.11962277453E+03  0.90422490294E+02 0.  0.
          5    1    3    3  502    0 -0.12994506013E+02  0.49194939569E+02 -0.22109419095E+03  0.22692230066E+03  0.47000000000E+01 0.  1.
         -5    1    3    3    0  502 -0.34406677399E+02 -0.70247310522E+01 -0.67606452443E+00  0.35436046044E+02  0.47000000000E+01 0.  1.
        -11    1    4    4    0    0 -0.99611824712E+01 -0.29998081690E+02 -0.51806545988E+02  0.60687958184E+02  0.00000000000E+00 0.  1.
         11    1    4    4    0    0  0.57362365883E+02 -0.12172126827E+02  0.58915946007E+01  0.58934816349E+02  0.00000000000E+00 0. -1.
<mgrwt>
<rscale>  0 0.13207210E+03</rscale>
<asrwt>0</asrwt>
<pdfrwt beam="1">  1        1 0.87919937E-02 0.14017794E+03</pdfrwt>
<pdfrwt beam="2">  1       -1 0.49974331E-01 0.14017794E+03</pdfrwt>
<totfact> 0.30347026E+03</totfact>
</mgrwt>
</event>
<event>
 8    1  0.8504141E-006  0.1395680E+03  0.7546771E-02  0.1225163E+00
         -3   -1    0    0    0  501 -0.00000000000E+00  0.00000000000E+00  0.30766566114E+03  0.30766566114E+03  0.00000000000E+00 0.  1.
          3   -1    0    0  501    0  0.00000000000E+00 -0.00000000000E+00 -0.51050758328E+02  0.51050758328E+02  0.00000000000E+00 0. -1.
         23    2    1    2    0    0 -0.33920436708E+02  0.51995910397E+02  0.15841471435E+03  0.21112660240E+03  0.12500019917E+03 0.  0.
         23    2    1    2    0    0  0.33920436708E+02 -0.51995910397E+02  0.98200188461E+02  0.14758981707E+03  0.91023658269E+02 0.  0.
          5    1    3    3  502    0 -0.36725729690E+01 -0.47449377077E+01  0.14509339315E+03  0.14529344432E+03  0.47000000000E+01 0. -1.
         -5    1    3    3    0  502 -0.30247863739E+02  0.56740848105E+02  0.13321321204E+02  0.65833158082E+02  0.47000000000E+01 0. -1.
        -11    1    4    4    0    0  0.79935638826E+01 -0.54735565772E+02  0.10668465209E+03  0.12017276819E+03  0.00000000000E+00 0.  1.
         11    1    4    4    0    0  0.25926872825E+02  0.27396553751E+01 -0.84844636277E+01  0.27417048877E+02  0.00000000000E+00 0. -1.
<mgrwt>
<rscale>  0 0.13155711E+03</rscale>
<asrwt>0</asrwt>
<pdfrwt beam="2">  1        3 0.78539630E-02 0.13956798E+03</pdfrwt>
<pdfrwt beam="1">  1       -3 0.47333178E-01 0.13956798E+03</pdfrwt>
<totfact> 0.11345237E+03</totfact>
</mgrwt>
</event>
<event>
 8    1  0.8504141E-006  0.2193364E+03  0.7546771E-02  0.1137805E+00
         -2   -1    0    0    0  501 -0.00000000000E+00  0.00000000000E+00  0.17498853401E+03  0.17498853401E+03  0.00000000000E+00 0.  1.
          2   -1    0    0  501    0  0.00000000000E+00 -0.00000000000E+00 -0.48474216214E+03  0.48474216214E+03  0.00000000000E+00 0. -1.
         23    2    1    2    0    0  0.17729623338E+03 -0.32390348259E+02  0.69530590184E+02  0.23009333282E+03  0.12500139921E+03 0.  0.
         23    2    1    2    0    0 -0.17729623338E+03  0.32390348259E+02 -0.37928421831E+03  0.42963736332E+03  0.90822115541E+02 0.  0.
          5    1    3    3  502    0  0.81543263998E+02 -0.71090585302E+02  0.53675876269E+01  0.10841621751E+03  0.47000000000E+01 0.  1.
         -5    1    3    3    0  502  0.95752969382E+02  0.38700237043E+02  0.64163002557E+02  0.12167711531E+03  0.47000000000E+01 0.  1.
        -11    1    4    4    0    0 -0.14249675196E+03  0.60633817176E+02 -0.31811293247E+03  0.35380449673E+03  0.00000000000E+00 0.  1.
         11    1    4    4    0    0 -0.34799481421E+02 -0.28243468917E+02 -0.61171285847E+02  0.75832866594E+02  0.00000000000E+00 0. -1.
<mgrwt>
<rscale>  0 0.21481995E+03</rscale>
<asrwt>0</asrwt>
<pdfrwt beam="2">  1        2 0.74575717E-01 0.21933636E+03</pdfrwt>
<pdfrwt beam="1">  1       -2 0.26921313E-01 0.21933636E+03</pdfrwt>
<totfact> 0.80456356E+02</totfact>
</mgrwt>
</event>
<event>
 8    1  0.8504141E-006  0.1266748E+03  0.7546771E-02  0.1246715E+00
          1   -1    0    0  501    0  0.00000000000E+00  0.00000000000E+00  0.40259512074E+02  0.40259512074E+02  0.00000000000E+00 0. -1.
         -1   -1    0    0    0  501 -0.00000000000E+00 -0.00000000000E+00 -0.30753691722E+03  0.30753691722E+03  0.00000000000E+00 0.  1.
         23    2    1    2    0    0 -0.69138656328E+01  0.19737284828E+02 -0.16917199327E+03  0.21134251031E+03  0.12493650952E+03 0.  0.
         23    2    1    2    0    0  0.69138656328E+01 -0.19737284828E+02 -0.98105411876E+02  0.13645391898E+03  0.92507503556E+02 0.  0.
          5    1    3    3  502    0  0.32378153712E+02  0.12071198591E+02 -0.16740198722E+03  0.17099583035E+03  0.47000000000E+01 0. -1.
         -5    1    3    3    0  502 -0.39292019344E+02  0.76660862366E+01 -0.17700060448E+01  0.40346679959E+02  0.47000000000E+01 0. -1.
        -11    1    4    4    0    0  0.26562018530E+02 -0.53142522832E+01  0.74716165454E+01  0.28099949457E+02  0.00000000000E+00 0. -1.
         11    1    4    4    0    0 -0.19648152897E+02 -0.14423032545E+02 -0.10557702842E+03  0.10835396952E+03  0.00000000000E+00 0.  1.
<mgrwt>
<rscale>  0 0.11783321E+03</rscale>
<asrwt>0</asrwt>
<pdfrwt beam="1">  1        1 0.61937712E-02 0.12667475E+03</pdfrwt>
<pdfrwt beam="2">  1       -1 0.47313371E-01 0.12667475E+03</pdfrwt>
<totfact> 0.53351087E+03</totfact>
</mgrwt>
</event>
<event>
 8    1  0.8504141E-006  0.1455420E+03  0.7546771E-02  0.1212002E+00
         -1   -1    0    0    0  501 -0.00000000000E+00  0.00000000000E+00  0.40894920704E+02  0.40894920704E+02  0.00000000000E+00 0.  1.
          1   -1    0    0  501    0  0.00000000000E+00 -0.00000000000E+00 -0.47927594805E+03  0.47927594805E+03  0.00000000000E+00 0. -1.
         23    2    1    2    0    0  0.73128262739E+02 -0.14360239269E+02 -0.17778914901E+03  0.22976391899E+03  0.12501406993E+03 0.  0.
         23    2    1    2    0    0 -0.73128262739E+02  0.14360239269E+02 -0.26059187834E+03  0.29040694977E+03  0.10427900140E+03 0.  0.
          5    1    3    3  502    0 -0.20127698424E+02  0.13428556930E+02 -0.10579154918E+03  0.10862500754E+03  0.47000000000E+01 0.  1.
         -5    1    3    3    0  502  0.93255961163E+02 -0.27788796199E+02 -0.71997599835E+02  0.12113891146E+03  0.47000000000E+01 0.  1.
        -11    1    4    4    0    0  0.14441641388E+02  0.56456370296E+01 -0.15822442937E+00  0.15506748802E+02  0.00000000000E+00 0.  1.
         11    1    4    4    0    0 -0.87569904127E+02  0.87146022391E+01 -0.26043365391E+03  0.27490020096E+03  0.00000000000E+00 0. -1.
<mgrwt>
<rscale>  0 0.14099042E+03</rscale>
<asrwt>0</asrwt>
<pdfrwt beam="2">  1        1 0.73734765E-01 0.14554201E+03</pdfrwt>
<pdfrwt beam="1">  1       -1 0.62915259E-02 0.14554201E+03</pdfrwt>
<totfact> 0.57328868E+03</totfact>
</mgrwt>
</event>
<event>
 7    1  0.8504141E-006  0.1541172E+03  0.7546771E-02  0.1211890E+00
         -2   -1    0    0    0  501 -0.00000000000E+00  0.00000000000E+00  0.72085685285E+02  0.72085685285E+02  0.00000000000E+00 0.  1.
          2   -1    0    0  501    0  0.00000000000E+00 -0.00000000000E+00 -0.24099093965E+03  0.24099093965E+03  0.00000000000E+00 0. -1.
         23    2    1    2    0    0 -0.89718241776E+01 -0.59428042723E+02 -0.54615580662E+02  0.12120625804E+03  0.89977271837E+02 0.  0.
          5    1    1    2  502    0  0.66352588539E+02  0.59942967774E+02 -0.40498739873E+02  0.98275446184E+02  0.47000000000E+01 0. -1.
         -5    1    1    2    0  502 -0.57380764361E+02 -0.51492505107E+00 -0.73790933826E+02  0.93594920704E+02  0.47000000000E+01 0.  1.
        -11    1    3    3    0    0 -0.36090195050E+02 -0.18046459869E+02 -0.59063640842E+02  0.71531046141E+02  0.00000000000E+00 0. -1.
         11    1    3    3    0    0  0.27118370873E+02 -0.41381582854E+02  0.44480601801E+01  0.49675211903E+02  0.00000000000E+00 0.  1.
<mgrwt>
<rscale>  0 0.14107469E+03</rscale>
<asrwt>0</asrwt>
<pdfrwt beam="2">  1        2 0.37075529E-01 0.15411719E+03</pdfrwt>
<pdfrwt beam="1">  1       -2 0.11090105E-01 0.15411719E+03</pdfrwt>
<totfact> 0.74732627E+03</totfact>
</mgrwt>
</event>
<event>
 8    1  0.8504141E-006  0.1607723E+03  0.7546771E-02  0.1195706E+00
          1   -1    0    0  501    0  0.00000000000E+00  0.00000000000E+00  0.34404016699E+02  0.34404016699E+02  0.00000000000E+00 0. -1.
         -1   -1    0    0    0  501 -0.00000000000E+00 -0.00000000000E+00 -0.76503712877E+03  0.76503712877E+03  0.00000000000E+00 0.  1.
         23    2    1    2    0    0  0.99795088928E+02 -0.16142587737E+02 -0.55502763146E+03  0.57784374152E+03  0.12501229945E+03 0.  0.
         23    2    1    2    0    0 -0.99795088928E+02  0.16142587737E+02 -0.17560548061E+03  0.22159740395E+03  0.89713330694E+02 0.  0.
          5    1    3    3  502    0  0.11429909132E+03 -0.48919863753E+02 -0.44189208713E+03  0.45907313363E+03  0.47000000000E+01 0. -1.
         -5    1    3    3    0  502 -0.14504002396E+02  0.32777276016E+02 -0.11313554433E+03  0.11877060789E+03  0.47000000000E+01 0. -1.
        -11    1    4    4    0    0 -0.38462353901E+02  0.43583943530E+02 -0.12375135113E+03  0.13672347899E+03  0.00000000000E+00 0.  1.
         11    1    4    4    0    0 -0.61332735027E+02 -0.27441355793E+02 -0.51854129479E+02  0.84873924957E+02  0.00000000000E+00 0. -1.
<mgrwt>
<rscale>  0 0.15394659E+03</rscale>
<asrwt>0</asrwt>
<pdfrwt beam="1">  1        1 0.52929259E-02 0.16077225E+03</pdfrwt>
<pdfrwt beam="2">  1       -1 0.11769801E+00 0.16077225E+03</pdfrwt>
<totfact> 0.10514443E+03</totfact>
</mgrwt>
</event>
<event>
 8    1  0.8504141E-006  0.1293232E+03  0.7546771E-02  0.1242603E+00
         -2   -1    0    0    0  501 -0.00000000000E+00  0.00000000000E+00  0.34237949493E+03  0.34237949493E+03  0.00000000000E+00 0.  1.
          2   -1    0    0  501    0  0.00000000000E+00 -0.00000000000E+00 -0.42861939247E+02  0.42861939247E+02  0.00000000000E+00 0. -1.
         23    2    1    2    0    0  0.28565170683E+02  0.16846416526E+02  0.23697228744E+03  0.26996361604E+03  0.12499887298E+03 0.  0.
         23    2    1    2    0    0 -0.28565170683E+02 -0.16846416526E+02  0.62545268245E+02  0.11527781814E+03  0.90979635349E+02 0.  0.
          5    1    3    3  502    0  0.43912009634E+02  0.44417771435E+02  0.49604800430E+02  0.79899494586E+02  0.47000000000E+01 0.  1.
         -5    1    3    3    0  502 -0.15346838951E+02 -0.27571354910E+02  0.18736748701E+03  0.19006412146E+03  0.47000000000E+01 0.  1.
        -11    1    4    4    0    0 -0.66231902998E+01 -0.22182450685E+02  0.82164772813E+02  0.85363795953E+02  0.00000000000E+00 0.  1.
         11    1    4    4    0    0 -0.21941980383E+02  0.53360341590E+01 -0.19619504567E+02  0.29914022183E+02  0.00000000000E+00 0. -1.
<mgrwt>
<rscale>  0 0.12030002E+03</rscale>
<asrwt>0</asrwt>
<pdfrwt beam="2">  1        2 0.65941447E-02 0.12932320E+03</pdfrwt>
<pdfrwt beam="1">  1       -2 0.52673767E-01 0.12932320E+03</pdfrwt>
<totfact> 0.35908429E+03</totfact>
</mgrwt>
</event>
<event>
 8    1  0.8504141E-006  0.1406208E+03  0.7546771E-02  0.1222457E+00
         -2   -1    0    0    0  501 -0.00000000000E+00  0.00000000000E+00  0.14240710955E+03  0.14240710955E+03  0.00000000000E+00 0.  1.
          2   -1    0    0  501    0  0.00000000000E+00 -0.00000000000E+00 -0.11521044771E+03  0.11521044771E+03  0.00000000000E+00 0. -1.
         23    2    1    2    0    0  0.64399444373E+02  0.76109557141E+00  0.29194930526E+02  0.14361943289E+03  0.12500531922E+03 0.  0.
         23    2    1    2    0    0 -0.64399444373E+02 -0.76109557141E+00 -0.19982686887E+01  0.11399812437E+03  0.94041010100E+02 0.  0.
          5    1    3    3  502    0  0.93260203116E+02  0.10076057600E+02  0.50138014108E+02  0.10646550089E+03  0.47000000000E+01 0. -1.
         -5    1    3    3    0  502 -0.28860758742E+02 -0.93149620288E+01 -0.20943083583E+02  0.37153931995E+02  0.47000000000E+01 0. -1.
        -11    1    4    4    0    0 -0.27763913835E+02  0.45907194413E+02 -0.84757258028E+01  0.54315221975E+02  0.00000000000E+00 0.  1.
         11    1    4    4    0    0 -0.36635530538E+02 -0.46668289984E+02  0.64774571142E+01  0.59682902397E+02  0.00000000000E+00 0. -1.
<mgrwt>
<rscale>  0 0.13342734E+03</rscale>
<asrwt>0</asrwt>
<pdfrwt beam="2">  1        2 0.17724684E-01 0.14062076E+03</pdfrwt>
<pdfrwt beam="1">  1       -2 0.21908786E-01 0.14062076E+03</pdfrwt>
<totfact> 0.54714617E+03</totfact>
</mgrwt>
</event>
<event>
 7    1  0.8504141E-006  0.1564695E+03  0.7546771E-02  0.1202725E+00
         -2   -1    0    0    0  501 -0.00000000000E+00  0.00000000000E+00  0.75547124260E+03  0.75547124260E+03  0.00000000000E+00 0.  1.
          2   -1    0    0  501    0  0.00000000000E+00 -0.00000000000E+00 -0.26622197749E+02  0.26622197749E+02  0.00000000000E+00 0. -1.
         23    2    1    2    0    0 -0.37704189930E+02  0.42199502178E+02  0.28800998160E+03  0.31430951875E+03  0.11242028354E+03 0.  0.
          5    1    3    3  502    0  0.22615146205E+02  0.57405929238E+02  0.11847617400E+03  0.13366218372E+03  0.47000000000E+01 0. -1.
         -5    1    3    3    0  502 -0.60319336135E+02 -0.15206427060E+02  0.16953380760E+03  0.18064733503E+03  0.47000000000E+01 0.  1.
        -11    1    1    2    0    0  0.23321715654E+02 -0.85677071652E+02  0.38721981783E+03  0.39727024851E+03  0.00000000000E+00 0.  1.
         11    1    1    2    0    0  0.14382474277E+02  0.43477569474E+02  0.53619245417E+02  0.70513673091E+02  0.00000000000E+00 0. -1.
<mgrwt>
<rscale>  0 0.14818159E+03</rscale>
<asrwt>0</asrwt>
<pdfrwt beam="2">  1        2 0.40957233E-02 0.15646954E+03</pdfrwt>
<pdfrwt beam="1">  1       -2 0.11622633E+00 0.15646954E+03</pdfrwt>
<totfact> 0.12004251E+03</totfact>
</mgrwt>
</event>
<event>
 8    1  0.8504141E-006  0.1421313E+03  0.7546771E-02  0.1221624E+00
         -2   -1    0    0    0  501 -0.00000000000E+00  0.00000000000E+00  0.20890365041E+03  0.20890365041E+03  0.00000000000E+00 0.  1.
          2   -1    0    0  501    0  0.00000000000E+00 -0.00000000000E+00 -0.84891039529E+02  0.84891039529E+02  0.00000000000E+00 0. -1.
         23    2    1    2    0    0  0.39132095597E+02 -0.55185687005E+02  0.11174746062E+03  0.18080047856E+03  0.12499814853E+03 0.  0.
         23    2    1    2    0    0 -0.39132095597E+02  0.55185687005E+02  0.12265150254E+02  0.11299421138E+03  0.89668706571E+02 0.  0.
          5    1    3    3  502    0  0.80254118792E+02 -0.43500743328E+02  0.10149400927E+03  0.13658756229E+03  0.47000000000E+01 0. -1.
         -5    1    3    3    0  502 -0.41122023196E+02 -0.11684943677E+02  0.10253451349E+02  0.44212916269E+02  0.47000000000E+01 0. -1.
        -11    1    4    4    0    0 -0.57246307556E+02  0.67613901096E+02  0.16802445322E+01  0.88609269108E+02  0.00000000000E+00 0. -1.
         11    1    4    4    0    0  0.18114211959E+02 -0.12428214090E+02  0.10584905722E+02  0.24384942270E+02  0.00000000000E+00 0.  1.
<mgrwt>
<rscale>  0 0.13401025E+03</rscale>
<asrwt>0</asrwt>
<pdfrwt beam="2">  1        2 0.13060160E-01 0.14213134E+03</pdfrwt>
<pdfrwt beam="1">  1       -2 0.32139023E-01 0.14213134E+03</pdfrwt>
<totfact> 0.39793055E+03</totfact>
</mgrwt>
</event>
<event>
 8    1  0.8504141E-006  0.3115255E+03  0.7546771E-02  0.1081099E+00
          1   -1    0    0  501    0  0.00000000000E+00  0.00000000000E+00  0.15473290271E+04  0.15473290271E+04  0.00000000000E+00 0. -1.
         -1   -1    0    0    0  501 -0.00000000000E+00 -0.00000000000E+00 -0.68459714196E+02  0.68459714196E+02  0.00000000000E+00 0.  1.
         23    2    1    2    0    0  0.28264190189E+03 -0.39208354235E+02  0.47339692834E+03  0.56670343795E+03  0.12499758027E+03 0.  0.
         23    2    1    2    0    0 -0.28264190189E+03  0.39208354235E+02  0.10054723845E+04  0.10490853033E+04  0.90451743103E+02 0.  0.
          5    1    3    3  502    0  0.16143676726E+03 -0.83594123930E+02  0.26075238599E+03  0.31790518111E+03  0.47000000000E+01 0. -1.
         -5    1    3    3    0  502  0.12120513463E+03  0.44385769695E+02  0.21264454236E+03  0.24879825684E+03  0.47000000000E+01 0. -1.
        -11    1    4    4    0    0 -0.14514205953E+03  0.57653123002E+01  0.35833238538E+03  0.38665430902E+03  0.00000000000E+00 0.  1.
         11    1    4    4    0    0 -0.13749984236E+03  0.33443041935E+02  0.64713999914E+03  0.66243099428E+03  0.00000000000E+00 0. -1.
<mgrwt>
<rscale>  0 0.30843374E+03</rscale>
<asrwt>0</asrwt>
<pdfrwt beam="1">  1        1 0.23805059E+00 0.31152550E+03</pdfrwt>
<pdfrwt beam="2">  1       -1 0.10532265E-01 0.31152550E+03</pdfrwt>
<totfact> 0.37323541E+02</totfact>
</mgrwt>
</event>
<event>
 8    1  0.8504141E-006  0.1753112E+03  0.7546771E-02  0.1178487E+00
          2   -1    0    0  501    0  0.00000000000E+00  0.00000000000E+00  0.19085019890E+03  0.19085019890E+03  0.00000000000E+00 0. -1.
         -2   -1    0    0    0  501 -0.00000000000E+00 -0.00000000000E+00 -0.14150460329E+03  0.14150460329E+03  0.00000000000E+00 0.  1.
         23    2    1    2    0    0  0.10049503806E+03  0.70839122915E+02  0.16647131350E+02  0.17609980634E+03  0.12496631866E+03 0.  0.
         23    2    1    2    0    0 -0.10049503806E+03 -0.70839122915E+02  0.32698464254E+02  0.15625499585E+03  0.90713836608E+02 0.  0.
          5    1    3    3  502    0  0.61062147341E+02  0.10448733266E+03 -0.10679095091E+01  0.12111737676E+03  0.47000000000E+01 0.  1.
         -5    1    3    3    0  502  0.39432890719E+02 -0.33648209742E+02  0.17715040859E+02  0.54982429575E+02  0.47000000000E+01 0.  1.
        -11    1    4    4    0    0 -0.41208889456E+02 -0.72182968732E+02 -0.92294063452E+01  0.83628556646E+02  0.00000000000E+00 0.  1.
         11    1    4    4    0    0 -0.59286148604E+02  0.13438458174E+01  0.41927870600E+02  0.72626439200E+02  0.00000000000E+00 0. -1.
<mgrwt>
<rscale>  0 0.16938884E+03</rscale>
<asrwt>0</asrwt>
<pdfrwt beam="1">  1        2 0.29361569E-01 0.17531119E+03</pdfrwt>
<pdfrwt beam="2">  1       -2 0.21769939E-01 0.17531119E+03</pdfrwt>
<totfact> 0.31829227E+03</totfact>
</mgrwt>
</event>
<event>
 7    1  0.8504141E-006  0.2111561E+03  0.7546771E-02  0.1146442E+00
          1   -1    0    0  501    0  0.00000000000E+00  0.00000000000E+00  0.38945356195E+03  0.38945356195E+03  0.00000000000E+00 0. -1.
         -1   -1    0    0    0  501 -0.00000000000E+00 -0.00000000000E+00 -0.40371037708E+03  0.40371037708E+03  0.00000000000E+00 0.  1.
         23    2    1    2    0    0  0.15775180153E+03  0.25006789115E+02  0.33668808576E+03  0.38359196156E+03  0.90955788676E+02 0.  0.
          5    1    1    2  502    0 -0.28908363975E+02  0.19514528238E+02 -0.21186900126E+03  0.21477214441E+03  0.47000000000E+01 0. -1.
         -5    1    1    2    0  502 -0.12884343756E+03 -0.44521317353E+02 -0.13907589963E+03  0.19479983306E+03  0.47000000000E+01 0.  1.
        -11    1    3    3    0    0  0.88199808377E+02  0.57738205658E+02  0.21857117777E+03  0.24266492607E+03  0.00000000000E+00 0. -1.
         11    1    3    3    0    0  0.69551993154E+02 -0.32731416544E+02  0.11811690799E+03  0.14092703550E+03  0.00000000000E+00 0.  1.
<mgrwt>
<rscale>  0 0.20395832E+03</rscale>
<asrwt>0</asrwt>
<pdfrwt beam="1">  1        1 0.59915933E-01 0.21115606E+03</pdfrwt>
<pdfrwt beam="2">  1       -1 0.62109289E-01 0.21115606E+03</pdfrwt>
<totfact> 0.17354500E+02</totfact>
</mgrwt>
</event>
<event>
 8    1  0.8504141E-006  0.2704724E+03  0.7546771E-02  0.1102823E+00
          1   -1    0    0  501    0  0.00000000000E+00  0.00000000000E+00  0.10911654255E+04  0.10911654255E+04  0.00000000000E+00 0. -1.
         -1   -1    0    0    0  501 -0.00000000000E+00 -0.00000000000E+00 -0.12928813393E+03  0.12928813393E+03  0.00000000000E+00 0.  1.
         23    2    1    2    0    0  0.11248512381E+03  0.21184148387E+03  0.52963622526E+02  0.27560924985E+03  0.12500238368E+03 0.  0.
         23    2    1    2    0    0 -0.11248512381E+03 -0.21184148387E+03  0.90891366907E+03  0.94484430961E+03  0.95273260787E+02 0.  0.
          5    1    3    3  502    0  0.12307189838E+03  0.22083353442E+03  0.39928420344E+02  0.25598927878E+03  0.47000000000E+01 0.  1.
         -5    1    3    3    0  502 -0.10586774569E+02 -0.89920505588E+01  0.13035202182E+02  0.19619971074E+02  0.47000000000E+01 0.  1.
        -11    1    4    4    0    0 -0.16742830397E+02 -0.10676221498E+03  0.28156913103E+03  0.30159520631E+03  0.00000000000E+00 0.  1.
         11    1    4    4    0    0 -0.95742293415E+02 -0.10507926888E+03  0.62734453804E+03  0.64324910331E+03  0.00000000000E+00 0. -1.
<mgrwt>
<rscale>  0 0.26732031E+03</rscale>
<asrwt>0</asrwt>
<pdfrwt beam="1">  1        1 0.16787160E+00 0.27047239E+03</pdfrwt>
<pdfrwt beam="2">  1       -1 0.19890483E-01 0.27047239E+03</pdfrwt>
<totfact> 0.28067700E+02</totfact>
</mgrwt>
</event>
<event>
 8    1  0.8504141E-006  0.1400220E+03  0.7546771E-02  0.1225064E+00
         -1   -1    0    0    0  501 -0.00000000000E+00  0.00000000000E+00  0.48170824105E+02  0.48170824105E+02  0.00000000000E+00 0.  1.
          1   -1    0    0  501    0  0.00000000000E+00 -0.00000000000E+00 -0.32294750366E+03  0.32294750366E+03  0.00000000000E+00 0. -1.
         23    2    1    2    0    0  0.39447231930E+02 -0.49201822561E+02 -0.15932393850E+03  0.21210913024E+03  0.12501704804E+03 0.  0.
         23    2    1    2    0    0 -0.39447231930E+02  0.49201822561E+02 -0.11545274106E+03  0.15900919753E+03  0.89317893119E+02 0.  0.
          5    1    3    3  502    0  0.63835697673E+01  0.41678794447E+02 -0.38626880473E+02  0.57375933671E+02  0.47000000000E+01 0. -1.
         -5    1    3    3    0  502  0.33063662163E+02 -0.90880617008E+02 -0.12069705803E+03  0.15473319657E+03  0.47000000000E+01 0. -1.
        -11    1    4    4    0    0 -0.35315995099E+02  0.10116369154E+02  0.32957423311E+00  0.36737842259E+02  0.00000000000E+00 0.  1.
         11    1    4    4    0    0 -0.41312368312E+01  0.39085453406E+02 -0.11578231529E+03  0.12227135527E+03  0.00000000000E+00 0. -1.
<mgrwt>
<rscale>  0 0.13162521E+03</rscale>
<asrwt>0</asrwt>
<pdfrwt beam="2">  1        1 0.49684231E-01 0.14002202E+03</pdfrwt>
<pdfrwt beam="1">  1       -1 0.74108960E-02 0.14002202E+03</pdfrwt>
<totfact> 0.73694258E+03</totfact>
</mgrwt>
</event>
<event>
 8    1  0.8504141E-006  0.1670061E+03  0.7546771E-02  0.1188247E+00
         -1   -1    0    0    0  501 -0.00000000000E+00  0.00000000000E+00  0.64354908861E+03  0.64354908861E+03  0.00000000000E+00 0.  1.
          1   -1    0    0  501    0  0.00000000000E+00 -0.00000000000E+00 -0.37792858065E+02  0.37792858065E+02  0.00000000000E+00 0. -1.
         23    2    1    2    0    0  0.10886215755E+03 -0.20345867903E+02  0.37222416313E+03  0.40797287876E+03  0.12500447391E+03 0.  0.
         23    2    1    2    0    0 -0.10886215755E+03  0.20345867903E+02  0.23353206742E+03  0.27336906792E+03  0.89042108546E+02 0.  0.
          5    1    3    3  502    0 -0.11024281821E+02 -0.43087562537E+02  0.91845140906E+02  0.10215523845E+03  0.47000000000E+01 0. -1.
         -5    1    3    3    0  502  0.11988643937E+03  0.22741694634E+02  0.28037902222E+03  0.30581764030E+03  0.47000000000E+01 0. -1.
        -11    1    4    4    0    0 -0.51885159832E+02 -0.13503556121E+02  0.18108113597E+03  0.18885124740E+03  0.00000000000E+00 0.  1.
         11    1    4    4    0    0 -0.56976997720E+02  0.33849424023E+02  0.52450931444E+02  0.84517820519E+02  0.00000000000E+00 0. -1.
<mgrwt>
<rscale>  0 0.16039858E+03</rscale>
<asrwt>0</asrwt>
<pdfrwt beam="2">  1        1 0.58142863E-02 0.16700611E+03</pdfrwt>
<pdfrwt beam="1">  1       -1 0.99007544E-01 0.16700611E+03</pdfrwt>
<totfact> 0.13704189E+03</totfact>
</mgrwt>
</event>
<event>
 8    1  0.8504141E-006  0.1555128E+03  0.7546771E-02  0.1202166E+00
         -1   -1    0    0    0  501 -0.00000000000E+00  0.00000000000E+00  0.58432885516E+02  0.58432885516E+02  0.00000000000E+00 0.  1.
          1   -1    0    0  501    0  0.00000000000E+00 -0.00000000000E+00 -0.55884926617E+03  0.55884926617E+03  0.00000000000E+00 0. -1.
         23    2    1    2    0    0 -0.91908652944E+02 -0.10566564303E+02 -0.75261674528E+02  0.17276735639E+03  0.12500154804E+03 0.  0.
         23    2    1    2    0    0  0.91908652944E+02  0.10566564303E+02 -0.42515470612E+03  0.44451479530E+03  0.90983659691E+02 0.  0.
          5    1    3    3  502    0 -0.68153993975E+02  0.67153564044E+01 -0.10835421547E+03  0.12826842525E+03  0.47000000000E+01 0. -1.
         -5    1    3    3    0  502 -0.23754658969E+02 -0.17281920707E+02  0.33092540943E+02  0.44498931135E+02  0.47000000000E+01 0. -1.
        -11    1    4    4    0    0  0.81301248586E+02  0.73505070189E+01 -0.42566193266E+03  0.43341897039E+03  0.00000000000E+00 0. -1.
         11    1    4    4    0    0  0.10607404359E+02  0.32160572836E+01  0.50722653557E+00  0.11095824910E+02  0.00000000000E+00 0.  1.
<mgrwt>
<rscale>  0 0.14863030E+03</rscale>
<asrwt>0</asrwt>
<pdfrwt beam="2">  1        1 0.85976810E-01 0.15551283E+03</pdfrwt>
<pdfrwt beam="1">  1       -1 0.89896747E-02 0.15551283E+03</pdfrwt>
<totfact> 0.27408870E+03</totfact>
</mgrwt>
</event>
<event>
 8    1  0.8504141E-006  0.2337563E+03  0.7546771E-02  0.1127060E+00
          1   -1    0    0  501    0  0.00000000000E+00  0.00000000000E+00  0.78232195197E+03  0.78232195197E+03  0.00000000000E+00 0. -1.
         -1   -1    0    0    0  501 -0.00000000000E+00 -0.00000000000E+00 -0.69439434983E+02  0.69439434983E+02  0.00000000000E+00 0.  1.
         23    2    1    2    0    0 -0.12910550556E+03  0.14948378670E+03  0.25989185666E+03  0.34955081309E+03  0.12501343817E+03 0.  0.
         23    2    1    2    0    0  0.12910550556E+03 -0.14948378670E+03  0.45299066032E+03  0.50221057385E+03  0.89449919512E+02 0.  0.
          5    1    3    3  502    0 -0.16160376829E+02  0.48306824672E+02  0.30440183424E+01  0.51245127933E+02  0.47000000000E+01 0. -1.
         -5    1    3    3    0  502 -0.11294512873E+03  0.10117696203E+03  0.25684783832E+03  0.29830568516E+03  0.47000000000E+01 0. -1.
        -11    1    4    4    0    0  0.57414634533E+02 -0.10093125918E+03  0.34365614780E+03  0.36274385903E+03  0.00000000000E+00 0. -1.
         11    1    4    4    0    0  0.71690871030E+02 -0.48552527517E+02  0.10933451252E+03  0.13946671483E+03  0.00000000000E+00 0.  1.
<mgrwt>
<rscale>  0 0.22940449E+03</rscale>
<asrwt>0</asrwt>
<pdfrwt beam="1">  1        1 0.12035722E+00 0.23375627E+03</pdfrwt>
<pdfrwt beam="2">  1       -1 0.10682991E-01 0.23375627E+03</pdfrwt>
<totfact> 0.13116400E+03</totfact>
</mgrwt>
</event>
<event>
 8    1  0.8504141E-006  0.1412483E+03  0.7546771E-02  0.1221839E+00
          2   -1    0    0  501    0  0.00000000000E+00  0.00000000000E+00  0.11175662174E+03  0.11175662174E+03  0.00000000000E+00 0. -1.
         -2   -1    0    0    0  501 -0.00000000000E+00 -0.00000000000E+00 -0.19633579983E+03  0.19633579983E+03  0.00000000000E+00 0.  1.
         23    2    1    2    0    0  0.65752865735E+02  0.14118646162E+01 -0.12357192594E+03  0.18767282577E+03  0.12500254373E+03 0.  0.
         23    2    1    2    0    0 -0.65752865735E+02 -0.14118646162E+01  0.38992747850E+02  0.12041959581E+03  0.93032316724E+02 0.  0.
          5    1    3    3  502    0  0.88841560084E+02 -0.69976049460E+01 -0.35374912930E+02  0.95996165225E+02  0.47000000000E+01 0. -1.
         -5    1    3    3    0  502 -0.23088694349E+02  0.84094695622E+01 -0.88197013009E+02  0.91676660546E+02  0.47000000000E+01 0. -1.
        -11    1    4    4    0    0 -0.11115402487E+02  0.40718340644E+02  0.27755117868E+02  0.50516155882E+02  0.00000000000E+00 0. -1.
         11    1    4    4    0    0 -0.54637463248E+02 -0.42130205260E+02  0.11237629982E+02  0.69903439923E+02  0.00000000000E+00 0.  1.
<mgrwt>
<rscale>  0 0.13385929E+03</rscale>
<asrwt>0</asrwt>
<pdfrwt beam="1">  1        2 0.17193327E-01 0.14124825E+03</pdfrwt>
<pdfrwt beam="2">  1       -2 0.30205507E-01 0.14124825E+03</pdfrwt>
<totfact> 0.32246162E+03</totfact>
</mgrwt>
</event>
<event>
 8    1  0.8504141E-006  0.1338217E+03  0.7546771E-02  0.1234074E+00
         -1   -1    0    0    0  501 -0.00000000000E+00  0.00000000000E+00  0.36894459748E+02  0.36894459748E+02  0.00000000000E+00 0.  1.
          1   -1    0    0  501    0  0.00000000000E+00 -0.00000000000E+00 -0.41603794522E+03  0.41603794522E+03  0.00000000000E+00 0. -1.
         23    2    1    2    0    0 -0.32280134559E+02 -0.35391120965E+02 -0.14828881209E+03  0.19974437233E+03  0.12495480766E+03 0.  0.
         23    2    1    2    0    0  0.32280134559E+02  0.35391120965E+02 -0.23085467339E+03  0.25318803264E+03  0.92280881642E+02 0.  0.
          5    1    3    3  502    0 -0.61697219267E+02 -0.36091506751E+02 -0.15359463821E+03  0.16947727462E+03  0.47000000000E+01 0. -1.
         -5    1    3    3    0  502  0.29417084708E+02  0.70038578553E+00  0.53058261251E+01  0.30267097711E+02  0.47000000000E+01 0. -1.
        -11    1    4    4    0    0  0.19983359201E+02 -0.26295096324E+02 -0.13160062940E+03  0.13568158458E+03  0.00000000000E+00 0. -1.
         11    1    4    4    0    0  0.12296775357E+02  0.61686217290E+02 -0.99254043990E+02  0.11750644806E+03  0.00000000000E+00 0.  1.
<mgrwt>
<rscale>  0 0.12563903E+03</rscale>
<asrwt>0</asrwt>
<pdfrwt beam="2">  1        1 0.64005834E-01 0.13382168E+03</pdfrwt>
<pdfrwt beam="1">  1       -1 0.56760711E-02 0.13382168E+03</pdfrwt>
<totfact> 0.79710098E+03</totfact>
</mgrwt>
</event>
<event>
 8    1  0.8504141E-006  0.1167331E+03  0.7546771E-02  0.1257314E+00
          4   -1    0    0  501    0  0.00000000000E+00  0.00000000000E+00  0.20767035781E+03  0.20767035781E+03  0.00000000000E+00 0. -1.
         -4   -1    0    0    0  501 -0.00000000000E+00 -0.00000000000E+00 -0.65841888659E+03  0.65841888659E+03  0.00000000000E+00 0.  1.
         23    2    1    2    0    0 -0.34788361292E+02 -0.10687656131E+02 -0.64125418339E+03  0.65179256299E+03  0.11091510888E+03 0.  0.
         23    2    1    2    0    0  0.34788361292E+02  0.10687656131E+02  0.19050565462E+03  0.21429668141E+03  0.91138395570E+02 0.  0.
          5    1    3    3  502    0 -0.70950966419E+01 -0.18415182643E+02 -0.15939349226E+02  0.25799461271E+02  0.47000000000E+01 0. -1.
         -5    1    3    3    0  502 -0.27693264650E+02  0.77275265126E+01 -0.62531483417E+03  0.62599310172E+03  0.47000000000E+01 0.  1.
        -11    1    4    4    0    0  0.54349668326E+02  0.15224725940E+02  0.18508157897E+03  0.19349643305E+03  0.00000000000E+00 0. -1.
         11    1    4    4    0    0 -0.19561307034E+02 -0.45370698088E+01  0.54240756443E+01  0.20800248362E+02  0.00000000000E+00 0.  1.
<mgrwt>
<rscale>  0 0.11177703E+03</rscale>
<asrwt>0</asrwt>
<pdfrwt beam="1">  1        4 0.31949286E-01 0.11673310E+03</pdfrwt>
<pdfrwt beam="2">  1       -4 0.10129521E+00 0.11673310E+03</pdfrwt>
<totfact> 0.13081111E+01</totfact>
</mgrwt>
</event>
<event>
 8    1  0.8504141E-006  0.2892342E+03  0.7546771E-02  0.1093111E+00
          1   -1    0    0  501    0  0.00000000000E+00  0.00000000000E+00  0.12417204096E+03  0.12417204096E+03  0.00000000000E+00 0. -1.
         -1   -1    0    0    0  501 -0.00000000000E+00 -0.00000000000E+00 -0.63989671948E+03  0.63989671948E+03  0.00000000000E+00 0.  1.
         23    2    1    2    0    0 -0.23904025266E+03 -0.10435577334E+03 -0.22821332205E+03  0.36842605685E+03  0.12500427665E+03 0.  0.
         23    2    1    2    0    0  0.23904025266E+03  0.10435577334E+03 -0.28751135647E+03  0.39564270359E+03  0.76419886022E+02 0.  0.
          5    1    3    3  502    0 -0.61304482463E+02 -0.82544334695E+02 -0.12412989364E+03  0.16125175117E+03  0.47000000000E+01 0. -1.
         -5    1    3    3    0  502 -0.17773577020E+03 -0.21811438646E+02 -0.10408342841E+03  0.20717430568E+03  0.47000000000E+01 0. -1.
        -11    1    4    4    0    0  0.12859988894E+03  0.20218936053E+02 -0.16739483426E+03  0.21205604766E+03  0.00000000000E+00 0.  1.
         11    1    4    4    0    0  0.11044036372E+03  0.84136837287E+02 -0.12011652221E+03  0.18358665593E+03  0.00000000000E+00 0. -1.
<mgrwt>
<rscale>  0 0.28477119E+03</rscale>
<asrwt>0</asrwt>
<pdfrwt beam="1">  1        1 0.19103391E-01 0.28923423E+03</pdfrwt>
<pdfrwt beam="2">  1       -1 0.98445647E-01 0.28923423E+03</pdfrwt>
<totfact> 0.28376718E+02</totfact>
</mgrwt>
</event>
<event>
 8    1  0.8504141E-006  0.1165913E+03  0.7546771E-02  0.1254420E+00
          2   -1    0    0  501    0  0.00000000000E+00  0.00000000000E+00  0.10408803098E+03  0.10408803098E+03  0.00000000000E+00 0. -1.
         -2   -1    0    0    0  501 -0.00000000000E+00 -0.00000000000E+00 -0.11799253497E+03  0.11799253497E+03  0.00000000000E+00 0.  1.
         23    2    1    2    0    0 -0.17084893098E+02 -0.19479593685E+02  0.18007796133E+01  0.11660524752E+03  0.11367582328E+03 0.  0.
         23    2    1    2    0    0  0.17084893098E+02  0.19479593685E+02 -0.15705283599E+02  0.10547531844E+03  0.10102989025E+03 0.  0.
          5    1    3    3  502    0 -0.61014377015E+02  0.27637447189E+01 -0.17186039088E+02  0.63622656554E+02  0.47000000000E+01 0. -1.
         -5    1    3    3    0  502  0.43929483918E+02 -0.22243338404E+02  0.18986818702E+02  0.52982590962E+02  0.47000000000E+01 0.  1.
        -11    1    4    4    0    0 -0.11606890556E+02  0.42731669996E+02  0.24726302176E+02  0.50715929927E+02  0.00000000000E+00 0. -1.
         11    1    4    4    0    0  0.28691783653E+02 -0.23252076311E+02 -0.40431585775E+02  0.54759388512E+02  0.00000000000E+00 0.  1.
<mgrwt>
<rscale>  0 0.11338883E+03</rscale>
<asrwt>0</asrwt>
<pdfrwt beam="1">  1        2 0.16013543E-01 0.11659134E+03</pdfrwt>
<pdfrwt beam="2">  1       -2 0.18152698E-01 0.11659134E+03</pdfrwt>
<totfact> 0.83345161E+03</totfact>
</mgrwt>
</event>
<event>
 8    1  0.8504141E-006  0.2618686E+03  0.7546771E-02  0.1108426E+00
         -3   -1    0    0    0  501 -0.00000000000E+00  0.00000000000E+00  0.33631109629E+03  0.33631109629E+03  0.00000000000E+00 0.  1.
          3   -1    0    0  501    0  0.00000000000E+00 -0.00000000000E+00 -0.20939540443E+03  0.20939540443E+03  0.00000000000E+00 0. -1.
         23    2    1    2    0    0 -0.18613552666E+03  0.13528801262E+03 -0.13515324989E+02  0.26221711809E+03  0.12500348941E+03 0.  0.
         23    2    1    2    0    0  0.18613552666E+03 -0.13528801262E+03  0.14043101685E+03  0.28348938264E+03  0.87727298662E+02 0.  0.
          5    1    3    3  502    0 -0.13566624016E+03  0.28569694763E+02  0.18148114198E+02  0.13990353901E+03  0.47000000000E+01 0. -1.
         -5    1    3    3    0  502 -0.50469286499E+02  0.10671831786E+03 -0.31663439187E+02  0.12231357908E+03  0.47000000000E+01 0. -1.
        -11    1    4    4    0    0  0.14192893872E+03 -0.85884483293E+02  0.53788443802E+02  0.17439370632E+03  0.00000000000E+00 0. -1.
         11    1    4    4    0    0  0.44206587943E+02 -0.49403529328E+02  0.86642573050E+02  0.10909567632E+03  0.00000000000E+00 0.  1.
<mgrwt>
<rscale>  0 0.25787678E+03</rscale>
<asrwt>0</asrwt>
<pdfrwt beam="2">  1        3 0.32214678E-01 0.26186858E+03</pdfrwt>
<pdfrwt beam="1">  1       -3 0.51740169E-01 0.26186858E+03</pdfrwt>
<totfact> 0.87442699E+01</totfact>
</mgrwt>
</event>
<event>
 8    1  0.8504141E-006  0.1564496E+03  0.7546771E-02  0.1200897E+00
          1   -1    0    0  501    0  0.00000000000E+00  0.00000000000E+00  0.29250585264E+03  0.29250585264E+03  0.00000000000E+00 0. -1.
         -1   -1    0    0    0  501 -0.00000000000E+00 -0.00000000000E+00 -0.73452964672E+02  0.73452964672E+02  0.00000000000E+00 0.  1.
         23    2    1    2    0    0  0.93877750535E+02 -0.60442947576E+01  0.83031577544E+02  0.17711778265E+03  0.12500760184E+03 0.  0.
         23    2    1    2    0    0 -0.93877750535E+02  0.60442947576E+01  0.13602131042E+03  0.18884103466E+03  0.91156864453E+02 0.  0.
          5    1    3    3  502    0  0.95860937823E+02  0.39121982123E+02  0.81136702431E+02  0.13162485847E+03  0.47000000000E+01 0. -1.
         -5    1    3    3    0  502 -0.19831872876E+01 -0.45166276881E+02  0.18948751134E+01  0.45492924184E+02  0.47000000000E+01 0. -1.
        -11    1    4    4    0    0 -0.83161677252E+02 -0.57487249367E+01  0.14734616806E+03  0.16929207201E+03  0.00000000000E+00 0. -1.
         11    1    4    4    0    0 -0.10716073284E+02  0.11793019694E+02 -0.11324857641E+02  0.19548962650E+02  0.00000000000E+00 0.  1.
<mgrwt>
<rscale>  0 0.14965551E+03</rscale>
<asrwt>0</asrwt>
<pdfrwt beam="1">  1        1 0.45000900E-01 0.15644956E+03</pdfrwt>
<pdfrwt beam="2">  1       -1 0.11300456E-01 0.15644956E+03</pdfrwt>
<totfact> 0.44127685E+03</totfact>
</mgrwt>
</event>
<event>
 8    1  0.8504141E-006  0.1610686E+03  0.7546771E-02  0.1194909E+00
         -2   -1    0    0    0  501 -0.00000000000E+00  0.00000000000E+00  0.17274181951E+03  0.17274181951E+03  0.00000000000E+00 0. -1.
          2   -1    0    0  501    0  0.00000000000E+00 -0.00000000000E+00 -0.13881311469E+03  0.13881311469E+03  0.00000000000E+00 0.  1.
         23    2    1    2    0    0  0.10183518426E+02  0.10106022580E+03  0.60794756162E+02  0.17216007745E+03  0.12500486633E+03 0.  0.
         23    2    1    2    0    0 -0.10183518426E+02 -0.10106022580E+03 -0.26866051345E+02  0.13939485675E+03  0.91609323155E+02 0.  0.
          5    1    3    3  502    0  0.44388348796E+02 -0.19512894623E+01 -0.52980093431E+01  0.44992132005E+02  0.47000000000E+01 0.  1.
         -5    1    3    3    0  502 -0.34204830370E+02  0.10301151526E+03  0.66092765505E+02  0.12716794545E+03  0.47000000000E+01 0.  1.
        -11    1    4    4    0    0 -0.25522264721E+02 -0.10559498633E+03 -0.42851178348E+02  0.11678146523E+03  0.00000000000E+00 0.  1.
         11    1    4    4    0    0  0.15338746295E+02  0.45347605356E+01  0.15985127003E+02  0.22613391526E+02  0.00000000000E+00 0. -1.
<mgrwt>
<rscale>  0 0.15461972E+03</rscale>
<asrwt>0</asrwt>
<pdfrwt beam="2">  1        2 0.21355864E-01 0.16106859E+03</pdfrwt>
<pdfrwt beam="1">  1       -2 0.26575664E-01 0.16106859E+03</pdfrwt>
<totfact> 0.31873097E+03</totfact>
</mgrwt>
</event>
<event>
 8    1  0.8504141E-006  0.1620594E+03  0.7546771E-02  0.1191183E+00
          2   -1    0    0  501    0  0.00000000000E+00  0.00000000000E+00  0.82811603224E+02  0.82811603224E+02  0.00000000000E+00 0. -1.
         -2   -1    0    0    0  501 -0.00000000000E+00 -0.00000000000E+00 -0.28644742622E+03  0.28644742622E+03  0.00000000000E+00 0.  1.
         23    2    1    2    0    0 -0.11325024326E+03  0.10317001934E+02 -0.11428036100E+03  0.19830087728E+03  0.11546072446E+03 0.  0.
         23    2    1    2    0    0  0.11325024326E+03 -0.10317001934E+02 -0.89355461995E+02  0.17095815216E+03  0.91160479790E+02 0.  0.
          5    1    3    3  502    0 -0.84538312311E+02 -0.39352742121E+02 -0.33681300927E+02  0.99256660194E+02  0.47000000000E+01 0. -1.
         -5    1    3    3    0  502 -0.28711930949E+02  0.49669744055E+02 -0.80599060076E+02  0.99044217088E+02  0.47000000000E+01 0.  1.
        -11    1    4    4    0    0  0.12763542717E+03  0.20976797200E+00 -0.81794312244E+02  0.15159536862E+03  0.00000000000E+00 0. -1.
         11    1    4    4    0    0 -0.14385183914E+02 -0.10526769906E+02 -0.75611497504E+01  0.19362783541E+02  0.00000000000E+00 0.  1.
<mgrwt>
<rscale>  0 0.15781772E+03</rscale>
<asrwt>0</asrwt>
<pdfrwt beam="1">  1        2 0.12740247E-01 0.16205936E+03</pdfrwt>
<pdfrwt beam="2">  1       -2 0.44068834E-01 0.16205936E+03</pdfrwt>
<totfact> 0.22836781E+03</totfact>
</mgrwt>
</event>
<event>
 8    1  0.8504141E-006  0.1322110E+03  0.7546771E-02  0.1237970E+00
         -2   -1    0    0    0  501 -0.00000000000E+00  0.00000000000E+00  0.39319544485E+02  0.39319544485E+02  0.00000000000E+00 0.  1.
          2   -1    0    0  501    0  0.00000000000E+00 -0.00000000000E+00 -0.34156174662E+03  0.34156174662E+03  0.00000000000E+00 0. -1.
         23    2    1    2    0    0  0.19624274990E+02  0.38331201830E+02 -0.17303384008E+03  0.21776238297E+03  0.12500140966E+03 0.  0.
         23    2    1    2    0    0 -0.19624274990E+02 -0.38331201830E+02 -0.12920836205E+03  0.16311890814E+03  0.89769617166E+02 0.  0.
          5    1    3    3  502    0 -0.26466205273E+02 -0.15093917317E+02  0.87326929213E-02  0.30828176037E+02  0.47000000000E+01 0.  1.
         -5    1    3    3    0  502  0.46090480263E+02  0.53425119147E+02 -0.17304257278E+03  0.18693420693E+03  0.47000000000E+01 0.  1.
        -11    1    4    4    0    0 -0.45096099399E+02 -0.52985078729E+02 -0.82347518567E+02  0.10780626402E+03  0.00000000000E+00 0.  1.
         11    1    4    4    0    0  0.25471824409E+02  0.14653876899E+02 -0.46860843487E+02  0.55312644117E+02  0.00000000000E+00 0. -1.
<mgrwt>
<rscale>  0 0.12316184E+03</rscale>
<asrwt>0</asrwt>
<pdfrwt beam="2">  1        2 0.52547962E-01 0.13221099E+03</pdfrwt>
<pdfrwt beam="1">  1       -2 0.60491605E-02 0.13221099E+03</pdfrwt>
<totfact> 0.13053350E+04</totfact>
</mgrwt>
</event>
<event>
 8    1  0.8504141E-006  0.2766727E+03  0.7546771E-02  0.1099246E+00
          2   -1    0    0  501    0  0.00000000000E+00  0.00000000000E+00  0.27019273145E+03  0.27019273145E+03  0.00000000000E+00 0. -1.
         -2   -1    0    0    0  501 -0.00000000000E+00 -0.00000000000E+00 -0.44024938785E+03  0.44024938785E+03  0.00000000000E+00 0.  1.
         23    2    1    2    0    0 -0.23179551478E+03 -0.84827263471E+02 -0.30641510556E+03  0.41284138724E+03  0.12499187495E+03 0.  0.
         23    2    1    2    0    0  0.23179551478E+03  0.84827263471E+02  0.13635844916E+03  0.29760073206E+03  0.95119628718E+02 0.  0.
          5    1    3    3  502    0 -0.20451123242E+03 -0.11340027209E+03 -0.28110720032E+03  0.36568813758E+03  0.47000000000E+01 0. -1.
         -5    1    3    3    0  502 -0.27284282355E+02  0.28573008623E+02 -0.25307905245E+02  0.47153249658E+02  0.47000000000E+01 0. -1.
        -11    1    4    4    0    0  0.21763442427E+03  0.68824893182E+02  0.87823750491E+02  0.24457027559E+03  0.00000000000E+00 0.  1.
         11    1    4    4    0    0  0.14161090503E+02  0.16002370288E+02  0.48534698666E+02  0.53030456473E+02  0.00000000000E+00 0. -1.
<mgrwt>
<rscale>  0 0.27358402E+03</rscale>
<asrwt>0</asrwt>
<pdfrwt beam="1">  1        2 0.41568113E-01 0.27667272E+03</pdfrwt>
<pdfrwt beam="2">  1       -2 0.67730674E-01 0.27667272E+03</pdfrwt>
<totfact> 0.25239945E+02</totfact>
</mgrwt>
</event>
<event>
 8    1  0.8504141E-006  0.1295655E+03  0.7546771E-02  0.1236486E+00
         -1   -1    0    0    0  501 -0.00000000000E+00  0.00000000000E+00  0.65498174169E+02  0.65498174169E+02  0.00000000000E+00 0.  1.
          1   -1    0    0  501    0  0.00000000000E+00 -0.00000000000E+00 -0.24467244818E+03  0.24467244818E+03  0.00000000000E+00 0. -1.
         23    2    1    2    0    0  0.20722260648E+02 -0.57075314205E+02 -0.44737542391E+02  0.13707178036E+03  0.11445619990E+03 0.  0.
         23    2    1    2    0    0 -0.20722260648E+02  0.57075314205E+02 -0.13443673162E+03  0.17309884198E+03  0.90570252898E+02 0.  0.
          5    1    3    3  502    0  0.56509126818E+02 -0.42242369183E+02 -0.62336608784E+02  0.94263683159E+02  0.47000000000E+01 0. -1.
         -5    1    3    3    0  502 -0.35786866170E+02 -0.14832945022E+02  0.17599066394E+02  0.42808097204E+02  0.47000000000E+01 0.  1.
        -11    1    4    4    0    0 -0.47295694510E+01  0.38603534992E+02 -0.14223112409E+03  0.14745268529E+03  0.00000000000E+00 0. -1.
         11    1    4    4    0    0 -0.15992691197E+02  0.18471779213E+02  0.77943924691E+01  0.25646156691E+02  0.00000000000E+00 0.  1.
<mgrwt>
<rscale>  0 0.12409798E+03</rscale>
<asrwt>0</asrwt>
<pdfrwt beam="2">  1        1 0.37641915E-01 0.12956553E+03</pdfrwt>
<pdfrwt beam="1">  1       -1 0.10076642E-01 0.12956553E+03</pdfrwt>
<totfact> 0.64897480E+03</totfact>
</mgrwt>
</event>
<event>
 7    1  0.8504141E-006  0.3123440E+03  0.7546771E-02  0.1079228E+00
          3   -1    0    0  501    0  0.00000000000E+00  0.00000000000E+00  0.63416489950E+03  0.63416489950E+03  0.00000000000E+00 0. -1.
         -3   -1    0    0    0  501 -0.00000000000E+00 -0.00000000000E+00 -0.38459543453E+02  0.38459543453E+02  0.00000000000E+00 0.  1.
         23    2    1    2    0    0 -0.47350773245E+02  0.24508002399E+01  0.24702625398E+03  0.28088506719E+03  0.12500539454E+03 0.  0.
          5    1    3    3  502    0 -0.81272813442E+02 -0.25915796569E+02  0.12866855089E+03  0.15444929493E+03  0.47000000000E+01 0.  1.
         -5    1    3    3    0  502  0.33922040197E+02  0.28366596809E+02  0.11835770309E+03  0.12643577226E+03  0.47000000000E+01 0.  1.
        -11    1    1    2    0    0 -0.56926694517E+02 -0.25352755866E+02  0.72264394822E+02  0.95423024149E+02  0.00000000000E+00 0.  1.
         11    1    1    2    0    0  0.10427746776E+03  0.22901955626E+02  0.27641470725E+03  0.29631635162E+03  0.00000000000E+00 0. -1.
<mgrwt>
<rscale>  0 0.31234399E+03</rscale>
<asrwt>0</asrwt>
<pdfrwt beam="1">  1        3 0.97563823E-01 0.31234399E+03</pdfrwt>
<pdfrwt beam="2">  1       -3 0.59168533E-02 0.31234399E+03</pdfrwt>
<totfact> 0.42815196E+02</totfact>
</mgrwt>
</event>
<event>
 8    1  0.8504141E-006  0.1750138E+03  0.7546771E-02  0.1178415E+00
          2   -1    0    0  501    0  0.00000000000E+00  0.00000000000E+00  0.14089220948E+03  0.14089220948E+03  0.00000000000E+00 0. -1.
         -2   -1    0    0    0  501 -0.00000000000E+00 -0.00000000000E+00 -0.21245428004E+03  0.21245428004E+03  0.00000000000E+00 0.  1.
         23    2    1    2    0    0 -0.11505049991E+03  0.42039857110E+02 -0.92745256513E+02  0.19806943204E+03  0.12500340070E+03 0.  0.
         23    2    1    2    0    0  0.11505049991E+03 -0.42039857110E+02  0.21183185950E+02  0.15527705748E+03  0.93049825882E+02 0.  0.
          5    1    3    3  502    0 -0.20424425089E+02  0.72470700204E+02 -0.42639392917E+02  0.86656605961E+02  0.47000000000E+01 0.  1.
         -5    1    3    3    0  502 -0.94626074822E+02 -0.30430843095E+02 -0.50105863596E+02  0.11141282608E+03  0.47000000000E+01 0.  1.
        -11    1    4    4    0    0  0.51301330705E+02 -0.81941539608E+01 -0.35989577601E+02  0.63199844835E+02  0.00000000000E+00 0.  1.
         11    1    4    4    0    0  0.63749169206E+02 -0.33845703149E+02  0.57172763551E+02  0.92077212643E+02  0.00000000000E+00 0. -1.
<mgrwt>
<rscale>  0 0.16945763E+03</rscale>
<asrwt>0</asrwt>
<pdfrwt beam="1">  1        2 0.21675725E-01 0.17501376E+03</pdfrwt>
<pdfrwt beam="2">  1       -2 0.32685274E-01 0.17501376E+03</pdfrwt>
<totfact> 0.21670557E+03</totfact>
</mgrwt>
</event>
<event>
 8    1  0.8504141E-006  0.1277461E+03  0.7546771E-02  0.1246548E+00
          1   -1    0    0  501    0  0.00000000000E+00  0.00000000000E+00  0.38418405919E+03  0.38418405919E+03  0.00000000000E+00 0. -1.
         -1   -1    0    0    0  501 -0.00000000000E+00 -0.00000000000E+00 -0.34567341205E+02  0.34567341205E+02  0.00000000000E+00 0.  1.
         23    2    1    2    0    0 -0.22910537761E+02 -0.65383086576E+01  0.14003818685E+03  0.18955145248E+03  0.12550464988E+03 0.  0.
         23    2    1    2    0    0  0.22910537761E+02  0.65383086576E+01  0.20957853113E+03  0.22919994791E+03  0.89676157311E+02 0.  0.
          5    1    3    3  502    0 -0.66690055982E+01  0.57883260948E+02  0.84944866577E+02  0.10311482867E+03  0.47000000000E+01 0. -1.
         -5    1    3    3    0  502 -0.16241532162E+02 -0.64421569606E+02  0.55093320274E+02  0.86436623814E+02  0.47000000000E+01 0. -1.
        -11    1    4    4    0    0  0.10145847191E+02  0.38067419773E+02  0.39627996281E+02  0.55878839937E+02  0.00000000000E+00 0.  1.
         11    1    4    4    0    0  0.12764690570E+02 -0.31529111116E+02  0.16995053485E+03  0.17332110798E+03  0.00000000000E+00 0. -1.
<mgrwt>
<rscale>  0 0.11793226E+03</rscale>
<asrwt>0</asrwt>
<pdfrwt beam="1">  1        1 0.59105237E-01 0.12774607E+03</pdfrwt>
<pdfrwt beam="2">  1       -1 0.53180528E-02 0.12774607E+03</pdfrwt>
<totfact> 0.96738492E+03</totfact>
</mgrwt>
</event>
<event>
 8    1  0.8504141E-006  0.1344815E+03  0.7546771E-02  0.1233463E+00
          1   -1    0    0  501    0  0.00000000000E+00  0.00000000000E+00  0.48456945146E+03  0.48456945146E+03  0.00000000000E+00 0. -1.
         -1   -1    0    0    0  501 -0.00000000000E+00 -0.00000000000E+00 -0.31296028617E+02  0.31296028617E+02  0.00000000000E+00 0.  1.
         23    2    1    2    0    0 -0.20185883394E+02  0.44997624820E+02  0.18902595668E+03  0.23198293648E+03  0.12511200739E+03 0.  0.
         23    2    1    2    0    0  0.20185883394E+02 -0.44997624820E+02  0.26424746616E+03  0.28388254359E+03  0.91270581538E+02 0.  0.
          5    1    3    3  502    0 -0.26095634997E+02  0.28284163139E+02  0.20440440544E+03  0.20804861695E+03  0.47000000000E+01 0.  1.
         -5    1    3    3    0  502  0.59097516028E+01  0.16713461681E+02 -0.15378448761E+02  0.23934319537E+02  0.47000000000E+01 0.  1.
        -11    1    4    4    0    0 -0.15492946529E+02 -0.26709073108E+00  0.21873546501E+01  0.15648873761E+02  0.00000000000E+00 0.  1.
         11    1    4    4    0    0  0.35678829923E+02 -0.44730534089E+02  0.26206011151E+03  0.26823366983E+03  0.00000000000E+00 0. -1.
<mgrwt>
<rscale>  0 0.12603362E+03</rscale>
<asrwt>0</asrwt>
<pdfrwt beam="1">  1        1 0.74549141E-01 0.13448149E+03</pdfrwt>
<pdfrwt beam="2">  1       -1 0.48147740E-02 0.13448149E+03</pdfrwt>
<totfact> 0.83707011E+03</totfact>
</mgrwt>
</event>
<event>
 7    1  0.8504141E-006  0.1966149E+03  0.7546771E-02  0.1161619E+00
          1   -1    0    0  501    0  0.00000000000E+00  0.00000000000E+00  0.88609449767E+03  0.88609449767E+03  0.00000000000E+00 0. -1.
         -1   -1    0    0    0  501 -0.00000000000E+00 -0.00000000000E+00 -0.36315078406E+02  0.36315078406E+02  0.00000000000E+00 0.  1.
         23    2    1    2    0    0 -0.54365669265E+02  0.11849992485E+03  0.43869460269E+03  0.46672531907E+03  0.91551684054E+02 0.  0.
          5    1    1    2  502    0  0.71554411146E+01 -0.15696190173E+02 -0.94160193837E+01  0.20206982568E+02  0.47000000000E+01 0. -1.
         -5    1    1    2    0  502  0.47210228151E+02 -0.10280373468E+03  0.42050083596E+03  0.43547727443E+03  0.47000000000E+01 0.  1.
        -11    1    3    3    0    0 -0.14495206156E+01  0.10290515729E+03  0.31217454689E+03  0.32870126290E+03  0.00000000000E+00 0. -1.
         11    1    3    3    0    0 -0.52916148650E+02  0.15594767558E+02  0.12652005579E+03  0.13802405617E+03  0.00000000000E+00 0.  1.
<mgrwt>
<rscale>  0 0.18654037E+03</rscale>
<asrwt>0</asrwt>
<pdfrwt beam="1">  1        1 0.13632221E+00 0.19661489E+03</pdfrwt>
<pdfrwt beam="2">  1       -1 0.55869358E-02 0.19661489E+03</pdfrwt>
<totfact> 0.28938100E+03</totfact>
</mgrwt>
</event>
<event>
 8    1  0.8504141E-006  0.1425373E+03  0.7546771E-02  0.1220271E+00
         -2   -1    0    0    0  501 -0.00000000000E+00  0.00000000000E+00  0.91213451352E+02  0.91213451352E+02  0.00000000000E+00 0.  1.
          2   -1    0    0  501    0  0.00000000000E+00 -0.00000000000E+00 -0.22512125989E+03  0.22512125989E+03  0.00000000000E+00 0. -1.
         23    2    1    2    0    0 -0.47776297037E+02  0.49082170505E+02 -0.32720748783E+01  0.14257481549E+03  0.12500095007E+03 0.  0.
         23    2    1    2    0    0  0.47776297037E+02 -0.49082170505E+02 -0.13063573366E+03  0.17375989574E+03  0.91843194855E+02 0.  0.
          5    1    3    3  502    0 -0.53618029577E+02 -0.30218843251E+02 -0.10420972225E+02  0.62599985984E+02  0.47000000000E+01 0. -1.
         -5    1    3    3    0  502  0.58417325400E+01  0.79301013756E+02  0.71488973471E+01  0.79974829510E+02  0.47000000000E+01 0. -1.
        -11    1    4    4    0    0  0.24533524445E+02  0.22275232077E+02 -0.69378477344E+02  0.76885973392E+02  0.00000000000E+00 0. -1.
         11    1    4    4    0    0  0.23242772592E+02 -0.71357402583E+02 -0.61257256312E+02  0.96873922353E+02  0.00000000000E+00 0.  1.
<mgrwt>
<rscale>  0 0.13496346E+03</rscale>
<asrwt>0</asrwt>
<pdfrwt beam="2">  1        2 0.34634039E-01 0.14253726E+03</pdfrwt>
<pdfrwt beam="1">  1       -2 0.14032839E-01 0.14253726E+03</pdfrwt>
<totfact> 0.54812680E+03</totfact>
</mgrwt>
</event>
<event>
 8    1  0.9137488E-006  0.1256451E+03  0.7546771E-02  0.1252283E+00
         -1   -1    0    0    0  501 -0.00000000000E+00  0.00000000000E+00  0.77515446759E+03  0.77515446759E+03  0.00000000000E+00 0.  1.
          1   -1    0    0  501    0  0.00000000000E+00 -0.00000000000E+00 -0.17620558598E+02  0.17620558598E+02  0.00000000000E+00 0. -1.
         23    2    1    2    0    0 -0.33278030030E+01  0.12267664356E+02  0.59825798392E+03  0.61130950771E+03  0.12500051612E+03 0.  0.
         23    2    1    2    0    0  0.33278030030E+01 -0.12267664356E+02  0.15927592507E+03  0.18146551848E+03  0.86019440985E+02 0.  0.
          5    1    3    3  502    0  0.10872633244E+02  0.24882518715E+02  0.58903199508E+03  0.58967629690E+03  0.47000000000E+01 0. -1.
         -5    1    3    3    0  502 -0.14200436247E+02 -0.12614854359E+02  0.92259888387E+01  0.21633210814E+02  0.47000000000E+01 0. -1.
        -11    1    4    4    0    0  0.11187111067E+02  0.17203160064E+02  0.12888552713E+01  0.20561160428E+02  0.00000000000E+00 0. -1.
         11    1    4    4    0    0 -0.78593080641E+01 -0.29470824421E+02  0.15798706980E+03  0.16090435805E+03  0.00000000000E+00 0.  1.
<mgrwt>
<rscale>  0 0.11459905E+03</rscale>
<asrwt>0</asrwt>
<pdfrwt beam="2">  1        1 0.27108558E-02 0.12564513E+03</pdfrwt>
<pdfrwt beam="1">  1       -1 0.11925451E+00 0.12564513E+03</pdfrwt>
<totfact> 0.25388451E+03</totfact>
</mgrwt>
</event>
<event>
 8    1  0.8504141E-006  0.1623661E+03  0.7546771E-02  0.1191833E+00
          2   -1    0    0  501    0  0.00000000000E+00  0.00000000000E+00  0.80335376832E+02  0.80335376832E+02  0.00000000000E+00 0. -1.
         -2   -1    0    0    0  501 -0.00000000000E+00 -0.00000000000E+00 -0.32857997279E+03  0.32857997279E+03  0.00000000000E+00 0.  1.
         23    2    1    2    0    0 -0.27671987897E+02  0.99865225672E+02 -0.20112719867E+03  0.25848580723E+03  0.12499584105E+03 0.  0.
         23    2    1    2    0    0  0.27671987897E+02 -0.99865225672E+02 -0.47117397288E+02  0.15042954240E+03  0.98337154149E+02 0.  0.
          5    1    3    3  502    0  0.15732088364E+01  0.66187233422E+02 -0.16368351006E+02  0.68361083730E+02  0.47000000000E+01 0.  1.
         -5    1    3    3    0  502 -0.29245196734E+02  0.33677992250E+02 -0.18475884767E+03  0.19012472350E+03  0.47000000000E+01 0.  1.
        -11    1    4    4    0    0  0.63242944532E+02 -0.80434275187E+02 -0.33024604711E+02  0.10751728779E+03  0.00000000000E+00 0. -1.
         11    1    4    4    0    0 -0.35570956635E+02 -0.19430950485E+02 -0.14092792577E+02  0.42912254605E+02  0.00000000000E+00 0.  1.
<mgrwt>
<rscale>  0 0.15725313E+03</rscale>
<asrwt>0</asrwt>
<pdfrwt beam="1">  1        2 0.12359289E-01 0.16236614E+03</pdfrwt>
<pdfrwt beam="2">  1       -2 0.50550766E-01 0.16236614E+03</pdfrwt>
<totfact> 0.18097859E+03</totfact>
</mgrwt>
</event>
<event>
 8    1  0.8504141E-006  0.1275512E+03  0.7546771E-02  0.1255315E+00
         -1   -1    0    0    0  501 -0.00000000000E+00  0.00000000000E+00  0.45242912409E+02  0.45242912409E+02  0.00000000000E+00 0.  1.
          1   -1    0    0  501    0  0.00000000000E+00 -0.00000000000E+00 -0.25455267239E+03  0.25455267239E+03  0.00000000000E+00 0. -1.
         23    2    1    2    0    0  0.20860033140E+01  0.21715144892E+02 -0.86300543822E+02  0.15400355828E+03  0.12567184717E+03 0.  0.
         23    2    1    2    0    0 -0.20860033140E+01 -0.21715144892E+02 -0.12300921616E+03  0.14579202652E+03  0.75154166945E+02 0.  0.
          5    1    3    3  502    0 -0.42498066398E+02  0.31659546136E+02 -0.93446341625E+02  0.10753009473E+03  0.47000000000E+01 0.  1.
         -5    1    3    3    0  502  0.44584069712E+02 -0.99444012441E+01  0.71457978032E+01  0.46473463551E+02  0.47000000000E+01 0.  1.
        -11    1    4    4    0    0 -0.33820674034E+02 -0.12913263367E+02 -0.29649498323E+02  0.46794049982E+02  0.00000000000E+00 0.  1.
         11    1    4    4    0    0  0.31734670721E+02 -0.88018815251E+01 -0.93359717835E+02  0.98997976537E+02  0.00000000000E+00 0. -1.
<mgrwt>
<rscale>  0 0.11288683E+03</rscale>
<asrwt>0</asrwt>
<pdfrwt beam="2">  1        1 0.39161950E-01 0.12755121E+03</pdfrwt>
<pdfrwt beam="1">  1       -1 0.69604480E-02 0.12755121E+03</pdfrwt>
<totfact> 0.10792732E+04</totfact>
</mgrwt>
</event>
<event>
 8    1  0.8504141E-006  0.3345417E+03  0.7546771E-02  0.1070367E+00
          2   -1    0    0  501    0  0.00000000000E+00  0.00000000000E+00  0.19466590907E+04  0.19466590907E+04  0.00000000000E+00 0. -1.
         -2   -1    0    0    0  501 -0.00000000000E+00 -0.00000000000E+00 -0.81314888471E+02  0.81314888471E+02  0.00000000000E+00 0.  1.
         23    2    1    2    0    0  0.24752751222E+03 -0.18714076334E+03  0.37332673646E+03  0.50128937172E+03  0.12500658960E+03 0.  0.
         23    2    1    2    0    0 -0.24752751222E+03  0.18714076334E+03  0.14920174658E+04  0.15266846074E+04  0.91423398725E+02 0.  0.
          5    1    3    3  502    0  0.15250230695E+03 -0.45081922644E+02  0.22093709960E+03  0.27225837977E+03  0.47000000000E+01 0. -1.
         -5    1    3    3    0  502  0.95025205266E+02 -0.14205884069E+03  0.15238963686E+03  0.22903099195E+03  0.47000000000E+01 0. -1.
        -11    1    4    4    0    0 -0.22605374850E+01  0.34548200845E+02  0.15540908782E+03  0.15921894607E+03  0.00000000000E+00 0. -1.
         11    1    4    4    0    0 -0.24526697473E+03  0.15259256249E+03  0.13366083780E+04  0.13674656614E+04  0.00000000000E+00 0.  1.
<mgrwt>
<rscale>  0 0.33174549E+03</rscale>
<asrwt>0</asrwt>
<pdfrwt beam="1">  1        2 0.29948598E+00 0.33454175E+03</pdfrwt>
<pdfrwt beam="2">  1       -2 0.12509984E-01 0.33454175E+03</pdfrwt>
<totfact> 0.36315558E+02</totfact>
</mgrwt>
</event>
<event>
 8    1  0.8504141E-006  0.1453764E+03  0.7546771E-02  0.1215729E+00
         -1   -1    0    0    0  501 -0.00000000000E+00  0.00000000000E+00  0.59427775743E+02  0.59427775743E+02  0.00000000000E+00 0.  1.
          1   -1    0    0  501    0  0.00000000000E+00 -0.00000000000E+00 -0.32248012705E+03  0.32248012705E+03  0.00000000000E+00 0. -1.
         23    2    1    2    0    0 -0.70659390942E+02 -0.22734574928E+02 -0.86741149467E+02  0.16928768872E+03  0.12499873645E+03 0.  0.
         23    2    1    2    0    0  0.70659390942E+02  0.22734574928E+02 -0.17631120184E+03  0.21262021408E+03  0.92801428408E+02 0.  0.
          5    1    3    3  502    0  0.10520701876E+02  0.29020756092E+02  0.99374552991E+01  0.32767857268E+02  0.47000000000E+01 0.  1.
         -5    1    3    3    0  502 -0.81180092818E+02 -0.51755331020E+02 -0.96678604767E+02  0.13651983145E+03  0.47000000000E+01 0.  1.
        -11    1    4    4    0    0 -0.14581379264E+02  0.12865859064E+01  0.10475278708E+01  0.14675463849E+02  0.00000000000E+00 0.  1.
         11    1    4    4    0    0  0.85240770206E+02  0.21447989022E+02 -0.17735872971E+03  0.19794475023E+03  0.00000000000E+00 0. -1.
<mgrwt>
<rscale>  0 0.13823128E+03</rscale>
<asrwt>0</asrwt>
<pdfrwt beam="2">  1        1 0.49612327E-01 0.14537639E+03</pdfrwt>
<pdfrwt beam="1">  1       -1 0.91427348E-02 0.14537639E+03</pdfrwt>
<totfact> 0.53858377E+03</totfact>
</mgrwt>
</event>
<event>
 8    1  0.8504141E-006  0.2193833E+03  0.7546771E-02  0.1137931E+00
         -2   -1    0    0    0  501 -0.00000000000E+00  0.00000000000E+00  0.18290249230E+03  0.18290249230E+03  0.00000000000E+00 0.  1.
          2   -1    0    0  501    0  0.00000000000E+00 -0.00000000000E+00 -0.30222186910E+03  0.30222186910E+03  0.00000000000E+00 0. -1.
         23    2    1    2    0    0 -0.16289453209E+03  0.77283330401E+02  0.46782041226E+02  0.22431586633E+03  0.12498682635E+03 0.  0.
         23    2    1    2    0    0  0.16289453209E+03 -0.77283330401E+02 -0.16610141803E+03  0.26080849507E+03  0.89017123548E+02 0.  0.
          5    1    3    3  502    0 -0.14678309016E+03  0.10764142284E+03  0.26137171559E+02  0.18394888748E+03  0.47000000000E+01 0. -1.
         -5    1    3    3    0  502 -0.16111441931E+02 -0.30358092440E+02  0.20644869667E+02  0.40366978847E+02  0.47000000000E+01 0. -1.
        -11    1    4    4    0    0  0.64683427703E+02 -0.61407533499E+02 -0.34034427047E+02  0.95462941575E+02  0.00000000000E+00 0. -1.
         11    1    4    4    0    0  0.98211104389E+02 -0.15875796903E+02 -0.13206699098E+03  0.16534555349E+03  0.00000000000E+00 0.  1.
<mgrwt>
<rscale>  0 0.21465577E+03</rscale>
<asrwt>0</asrwt>
<pdfrwt beam="2">  1        2 0.46495672E-01 0.21938334E+03</pdfrwt>
<pdfrwt beam="1">  1       -2 0.28138845E-01 0.21938334E+03</pdfrwt>
<totfact> 0.12422031E+03</totfact>
</mgrwt>
</event>
<event>
 8    1  0.8504141E-006  0.1519978E+03  0.7546771E-02  0.1206740E+00
         -2   -1    0    0    0  501 -0.00000000000E+00  0.00000000000E+00  0.17118342199E+02  0.17118342199E+02  0.00000000000E+00 0.  1.
          2   -1    0    0  501    0  0.00000000000E+00 -0.00000000000E+00 -0.11330066355E+04  0.11330066355E+04  0.00000000000E+00 0. -1.
         23    2    1    2    0    0 -0.84298211480E+02  0.19332106687E+02 -0.64806876246E+03  0.66565489418E+03  0.12499359372E+03 0.  0.
         23    2    1    2    0    0  0.84298211480E+02 -0.19332106687E+02 -0.46781953080E+03  0.48447008347E+03  0.91521743714E+02 0.  0.
          5    1    3    3  502    0 -0.47395707325E+02  0.71128302183E+02 -0.43071987448E+03  0.43914381325E+03  0.47000000000E+01 0. -1.
         -5    1    3    3    0  502 -0.36902504155E+02 -0.51796195496E+02 -0.21734888798E+03  0.22651108093E+03  0.47000000000E+01 0. -1.
        -11    1    4    4    0    0  0.18481324017E+02 -0.49827413723E+02 -0.18323330724E+03  0.19078463088E+03  0.00000000000E+00 0. -1.
         11    1    4    4    0    0  0.65816887463E+02  0.30495307036E+02 -0.28458622356E+03  0.29368545259E+03  0.00000000000E+00 0.  1.
<mgrwt>
<rscale>  0 0.14501155E+03</rscale>
<asrwt>0</asrwt>
<pdfrwt beam="2">  1        2 0.17430872E+00 0.15199775E+03</pdfrwt>
<pdfrwt beam="1">  1       -2 0.26335910E-02 0.15199775E+03</pdfrwt>
<totfact> 0.10920453E+04</totfact>
</mgrwt>
</event>
<event>
 8    1  0.8504141E-006  0.1354973E+03  0.7546771E-02  0.1220026E+00
         -2   -1    0    0    0  501 -0.00000000000E+00  0.00000000000E+00  0.35899286087E+02  0.35899286087E+02  0.00000000000E+00 0.  1.
          2   -1    0    0  501    0  0.00000000000E+00 -0.00000000000E+00 -0.81045934070E+03  0.81045934070E+03  0.00000000000E+00 0. -1.
         23    2    1    2    0    0  0.39370006828E+02  0.28223871693E+02 -0.12663512315E+03  0.18441737318E+03  0.12500691479E+03 0.  0.
         23    2    1    2    0    0 -0.39370006828E+02 -0.28223871693E+02 -0.64792493146E+03  0.66194125360E+03  0.12654217495E+03 0.  0.
          5    1    3    3  502    0  0.15710655705E+02 -0.20275363093E+02 -0.12760475693E+03  0.13024200184E+03  0.47000000000E+01 0.  1.
         -5    1    3    3    0  502  0.23659351123E+02  0.48499234786E+02  0.96963378195E+00  0.54175371342E+02  0.47000000000E+01 0.  1.
        -11    1    4    4    0    0  0.44519541073E+02  0.52206154139E+01 -0.23827861916E+03  0.24245812981E+03  0.00000000000E+00 0. -1.
         11    1    4    4    0    0 -0.83889547900E+02 -0.33444487107E+02 -0.40964631230E+03  0.41948312379E+03  0.00000000000E+00 0.  1.
<mgrwt>
<rscale>  0 0.13513766E+03</rscale>
<asrwt>0</asrwt>
<pdfrwt beam="2">  1        2 0.12468604E+00 0.13549726E+03</pdfrwt>
<pdfrwt beam="1">  1       -2 0.55229678E-02 0.13549726E+03</pdfrwt>
<totfact> 0.56877748E+03</totfact>
</mgrwt>
</event>
<event>
 7    1  0.8504141E-006  0.2331321E+03  0.7546771E-02  0.1137264E+00
         -1   -1    0    0    0  501 -0.00000000000E+00  0.00000000000E+00  0.14025038536E+03  0.14025038536E+03  0.00000000000E+00 0.  1.
          1   -1    0    0  501    0  0.00000000000E+00 -0.00000000000E+00 -0.32695979591E+03  0.32695979591E+03  0.00000000000E+00 0. -1.
         23    2    1    2    0    0  0.36805925794E+02 -0.13862530289E+03 -0.15803414990E+03  0.23232114892E+03  0.91796911300E+02 0.  0.
          5    1    1    2  502    0 -0.81165829638E+02  0.82026864906E+02 -0.85020810892E+02  0.14341173854E+03  0.47000000000E+01 0. -1.
         -5    1    1    2    0  502  0.44359903844E+02  0.56598437986E+02  0.56345550238E+02  0.91477293811E+02  0.47000000000E+01 0.  1.
        -11    1    3    3    0    0  0.67636163029E+02 -0.94249439541E+02 -0.11356367624E+03  0.16234012432E+03  0.00000000000E+00 0.  1.
         11    1    3    3    0    0 -0.30830237235E+02 -0.44375863350E+02 -0.44470473659E+02  0.69981024596E+02  0.00000000000E+00 0. -1.
<mgrwt>
<rscale>  0 0.21552527E+03</rscale>
<asrwt>0</asrwt>
<pdfrwt beam="2">  1        1 0.50301507E-01 0.23313212E+03</pdfrwt>
<pdfrwt beam="1">  1       -1 0.21576982E-01 0.23313212E+03</pdfrwt>
<totfact> 0.13935828E+03</totfact>
</mgrwt>
</event>
<event>
 8    1  0.8504141E-006  0.1425587E+03  0.7546771E-02  0.1219210E+00
         -2   -1    0    0    0  501 -0.00000000000E+00  0.00000000000E+00  0.30967160131E+03  0.30967160131E+03  0.00000000000E+00 0.  1.
          2   -1    0    0  501    0  0.00000000000E+00 -0.00000000000E+00 -0.56198975985E+02  0.56198975985E+02  0.00000000000E+00 0. -1.
         23    2    1    2    0    0  0.68228990369E+02  0.63759099760E+01  0.17105618851E+03  0.22267282850E+03  0.12500848600E+03 0.  0.
         23    2    1    2    0    0 -0.68228990369E+02 -0.63759099760E+01  0.82416436818E+02  0.14319774880E+03  0.94959353660E+02 0.  0.
          5    1    3    3  502    0  0.21600993690E+02 -0.55230407790E+02  0.10602912973E+03  0.12157823499E+03  0.47000000000E+01 0.  1.
         -5    1    3    3    0  502  0.46627996679E+02  0.61606317766E+02  0.65027058781E+02  0.10109459351E+03  0.47000000000E+01 0.  1.
        -11    1    4    4    0    0 -0.33910231516E+02  0.25456852153E+02  0.86374855313E+02  0.96221467217E+02  0.00000000000E+00 0.  1.
         11    1    4    4    0    0 -0.34318758854E+02 -0.31832762129E+02 -0.39584184948E+01  0.46976281579E+02  0.00000000000E+00 0. -1.
<mgrwt>
<rscale>  0 0.13571793E+03</rscale>
<asrwt>0</asrwt>
<pdfrwt beam="2">  1        2 0.86459965E-02 0.14255865E+03</pdfrwt>
<pdfrwt beam="1">  1       -2 0.47641784E-01 0.14255865E+03</pdfrwt>
<totfact> 0.31314051E+03</totfact>
</mgrwt>
</event>
<event>
 8    1  0.8504141E-006  0.1322293E+03  0.7546771E-02  0.1236887E+00
          4   -1    0    0  501    0  0.00000000000E+00  0.00000000000E+00  0.42890752535E+03  0.42890752535E+03  0.00000000000E+00 0. -1.
         -4   -1    0    0    0  501 -0.00000000000E+00 -0.00000000000E+00 -0.32323680480E+02  0.32323680480E+02  0.00000000000E+00 0.  1.
         23    2    1    2    0    0  0.82103716717E+01  0.42347600914E+02  0.19790407699E+03  0.23801388935E+03  0.12499543323E+03 0.  0.
         23    2    1    2    0    0 -0.82103716717E+01 -0.42347600914E+02  0.19867976788E+03  0.22321731648E+03  0.92149827485E+02 0.  0.
          5    1    3    3  502    0 -0.47672703664E+02 -0.11082280571E+02  0.11215859335E+03  0.12246282571E+03  0.47000000000E+01 0. -1.
         -5    1    3    3    0  502  0.55883075336E+02  0.53429881486E+02  0.85745483634E+02  0.11555106364E+03  0.47000000000E+01 0. -1.
        -11    1    4    4    0    0 -0.12854919876E+02 -0.66136910465E+02  0.93285696746E+02  0.11507198229E+03  0.00000000000E+00 0.  1.
         11    1    4    4    0    0  0.46445482043E+01  0.23789309550E+02  0.10539407113E+03  0.10814533419E+03  0.00000000000E+00 0. -1.
<mgrwt>
<rscale>  0 0.12384415E+03</rscale>
<asrwt>0</asrwt>
<pdfrwt beam="1">  1        4 0.65985769E-01 0.13222930E+03</pdfrwt>
<pdfrwt beam="2">  1       -4 0.49728742E-02 0.13222930E+03</pdfrwt>
<totfact> 0.85903349E+02</totfact>
</mgrwt>
</event>
<event>
 6    1  0.8504141E-006  0.1478913E+03  0.7546771E-02  0.1232555E+00
         -2   -1    0    0    0  501 -0.00000000000E+00  0.00000000000E+00  0.12360447123E+03  0.12360447123E+03  0.00000000000E+00 0.  1.
          2   -1    0    0  501    0  0.00000000000E+00 -0.00000000000E+00 -0.14953578949E+03  0.14953578949E+03  0.00000000000E+00 0. -1.
          5    1    1    2  502    0 -0.19567325595E+02 -0.66784596469E+02  0.31053120263E+02  0.76350827334E+02  0.47000000000E+01 0. -1.
         -5    1    1    2    0  502  0.70716558876E+02  0.32405520517E+02  0.25745261956E+02  0.82072272860E+02  0.47000000000E+01 0.  1.
        -11    1    1    2    0    0 -0.13452750323E+02 -0.35252352639E+01 -0.50310073944E+02  0.52196813267E+02  0.00000000000E+00 0. -1.
         11    1    1    2    0    0 -0.37696482958E+02  0.37904311215E+02 -0.32419626534E+02  0.62520347253E+02  0.00000000000E+00 0.  1.
<mgrwt>
<rscale>  0 0.12662242E+03</rscale>
<asrwt>0</asrwt>
<pdfrwt beam="2">  1        2 0.23005506E-01 0.14789125E+03</pdfrwt>
<pdfrwt beam="1">  1       -2 0.19016073E-01 0.14789125E+03</pdfrwt>
<totfact> 0.51981677E+03</totfact>
</mgrwt>
</event>
<event>
 8    1  0.8504141E-006  0.1282794E+03  0.7546771E-02  0.1244482E+00
          3   -1    0    0  501    0  0.00000000000E+00  0.00000000000E+00  0.47410617379E+02  0.47410617379E+02  0.00000000000E+00 0. -1.
         -3   -1    0    0    0  501 -0.00000000000E+00 -0.00000000000E+00 -0.27254675545E+03  0.27254675545E+03  0.00000000000E+00 0.  1.
         23    2    1    2    0    0  0.27223951720E+02  0.10463068890E+02 -0.10069626100E+03  0.16308075314E+03  0.12491987716E+03 0.  0.
         23    2    1    2    0    0 -0.27223951720E+02 -0.10463068890E+02 -0.12443987707E+03  0.15687661968E+03  0.90963572046E+02 0.  0.
          5    1    3    3  502    0 -0.16495495796E+02  0.58195728928E+02 -0.65385371017E+02  0.89197427037E+02  0.47000000000E+01 0. -1.
         -5    1    3    3    0  502  0.43719447516E+02 -0.47732660038E+02 -0.35310889979E+02  0.73883326106E+02  0.47000000000E+01 0. -1.
        -11    1    4    4    0    0 -0.59752817702E+02  0.21616270110E+01 -0.88316236658E+02  0.10665284578E+03  0.00000000000E+00 0. -1.
         11    1    4    4    0    0  0.32528865982E+02 -0.12624695901E+02 -0.36123640414E+02  0.50223773907E+02  0.00000000000E+00 0.  1.
<mgrwt>
<rscale>  0 0.11916443E+03</rscale>
<asrwt>0</asrwt>
<pdfrwt beam="1">  1        3 0.72939411E-02 0.12827936E+03</pdfrwt>
<pdfrwt beam="2">  1       -3 0.41930271E-01 0.12827936E+03</pdfrwt>
<totfact> 0.15991472E+03</totfact>
</mgrwt>
</event>
<event>
 8    1  0.8504141E-006  0.1932783E+03  0.7546771E-02  0.1159751E+00
          2   -1    0    0  501    0  0.00000000000E+00  0.00000000000E+00  0.79558998960E+03  0.79558998960E+03  0.00000000000E+00 0. -1.
         -2   -1    0    0    0  501 -0.00000000000E+00 -0.00000000000E+00 -0.56234927510E+02  0.56234927510E+02  0.00000000000E+00 0.  1.
         23    2    1    2    0    0  0.92066448982E+02  0.11513442570E+03  0.17435567996E+03  0.26030063258E+03  0.12499739667E+03 0.  0.
         23    2    1    2    0    0 -0.92066448982E+02 -0.11513442570E+03  0.56499938213E+03  0.59152428453E+03  0.94575421658E+02 0.  0.
          5    1    3    3  502    0  0.27031732689E+02  0.12437144231E+03  0.11181019469E+03  0.16947737274E+03  0.47000000000E+01 0.  1.
         -5    1    3    3    0  502  0.65034716293E+02 -0.92370166082E+01  0.62545485271E+02  0.90823259834E+02  0.47000000000E+01 0.  1.
        -11    1    4    4    0    0 -0.89188304938E+02 -0.60028776197E+02  0.25634606244E+03  0.27797717791E+03  0.00000000000E+00 0.  1.
         11    1    4    4    0    0 -0.28781440443E+01 -0.55105649504E+02  0.30865331969E+03  0.31354710663E+03  0.00000000000E+00 0. -1.
<mgrwt>
<rscale>  0 0.18857687E+03</rscale>
<asrwt>0</asrwt>
<pdfrwt beam="1">  1        2 0.12239845E+00 0.19327834E+03</pdfrwt>
<pdfrwt beam="2">  1       -2 0.86515279E-02 0.19327834E+03</pdfrwt>
<totfact> 0.29573695E+03</totfact>
</mgrwt>
</event>
<event>
 8    1  0.8504141E-006  0.1738712E+03  0.7546771E-02  0.1180100E+00
          1   -1    0    0  501    0  0.00000000000E+00  0.00000000000E+00  0.55253606900E+03  0.55253606900E+03  0.00000000000E+00 0. -1.
         -1   -1    0    0    0  501 -0.00000000000E+00 -0.00000000000E+00 -0.47797609518E+02  0.47797609518E+02  0.00000000000E+00 0.  1.
         23    2    1    2    0    0  0.40851471484E+02  0.11375055823E+03  0.26223832262E+03  0.31464287305E+03  0.12499266974E+03 0.  0.
         23    2    1    2    0    0 -0.40851471484E+02 -0.11375055823E+03  0.24250013686E+03  0.28569080548E+03  0.90580835360E+02 0.  0.
          5    1    3    3  502    0 -0.14993774754E+02 -0.17994773298E+02  0.76416803535E+02  0.80063993217E+02  0.47000000000E+01 0. -1.
         -5    1    3    3    0  502  0.55845246238E+02  0.13174533152E+03  0.18582151909E+03  0.23457887983E+03  0.47000000000E+01 0. -1.
        -11    1    4    4    0    0 -0.61860138912E+02 -0.10317787503E+03  0.16173059993E+03  0.20156670766E+03  0.00000000000E+00 0.  1.
         11    1    4    4    0    0  0.21008667428E+02 -0.10572683197E+02  0.80769536937E+02  0.84124097820E+02  0.00000000000E+00 0. -1.
<mgrwt>
<rscale>  0 0.16785852E+03</rscale>
<asrwt>0</asrwt>
<pdfrwt beam="1">  1        1 0.85005545E-01 0.17387122E+03</pdfrwt>
<pdfrwt beam="2">  1       -1 0.73534788E-02 0.17387122E+03</pdfrwt>
<totfact> 0.37896890E+03</totfact>
</mgrwt>
</event>
<event>
 8    1  0.8504141E-006  0.1853685E+03  0.7546771E-02  0.1167800E+00
         -1   -1    0    0    0  501 -0.00000000000E+00  0.00000000000E+00  0.21330658004E+04  0.21330658004E+04  0.00000000000E+00 0.  1.
          1   -1    0    0  501    0  0.00000000000E+00 -0.00000000000E+00 -0.17598025190E+02  0.17598025190E+02  0.00000000000E+00 0. -1.
         23    2    1    2    0    0 -0.70427987532E+02  0.11737626289E+03  0.15681308289E+04  0.15790490053E+04  0.12499670412E+03 0.  0.
         23    2    1    2    0    0  0.70427987532E+02 -0.11737626289E+03  0.54733694628E+03  0.57161482028E+03  0.91806761587E+02 0.  0.
          5    1    3    3  502    0 -0.42737327239E+02  0.22196439346E+02  0.10719565690E+04  0.10730480590E+04  0.47000000000E+01 0. -1.
         -5    1    3    3    0  502 -0.27690660294E+02  0.95179823543E+02  0.49617425984E+03  0.50600094625E+03  0.47000000000E+01 0. -1.
        -11    1    4    4    0    0  0.87523641665E+02 -0.72580394478E+02  0.32959160518E+03  0.34865301909E+03  0.00000000000E+00 0. -1.
         11    1    4    4    0    0 -0.17095654132E+02 -0.44795868411E+02  0.21774534110E+03  0.22296180119E+03  0.00000000000E+00 0.  1.
<mgrwt>
<rscale>  0 0.18000295E+03</rscale>
<asrwt>0</asrwt>
<pdfrwt beam="2">  1        1 0.27073902E-02 0.18536846E+03</pdfrwt>
<pdfrwt beam="1">  1       -1 0.32816376E+00 0.18536846E+03</pdfrwt>
<totfact> 0.10242404E+02</totfact>
</mgrwt>
</event>
<event>
 8    1  0.8504141E-006  0.1411857E+03  0.7546771E-02  0.1222806E+00
          1   -1    0    0  501    0  0.00000000000E+00  0.00000000000E+00  0.65682557325E+03  0.65682557325E+03  0.00000000000E+00 0. -1.
         -1   -1    0    0    0  501 -0.00000000000E+00 -0.00000000000E+00 -0.27602548875E+02  0.27602548875E+02  0.00000000000E+00 0.  1.
         23    2    1    2    0    0 -0.51667760303E+02  0.40493556027E+02  0.23027313116E+03  0.27010946983E+03  0.12499650084E+03 0.  0.
         23    2    1    2    0    0  0.51667760303E+02 -0.40493556027E+02  0.39894989322E+03  0.41431865230E+03  0.90496645308E+02 0.  0.
          5    1    3    3  502    0 -0.32458591070E+02 -0.26742839291E+02  0.16980920607E+02  0.45598040004E+02  0.47000000000E+01 0. -1.
         -5    1    3    3    0  502 -0.19209169233E+02  0.67236395317E+02  0.21329221056E+03  0.22451142982E+03  0.47000000000E+01 0. -1.
        -11    1    4    4    0    0  0.26639888922E+02 -0.66561561290E+02  0.31251585413E+03  0.32063419064E+03  0.00000000000E+00 0. -1.
         11    1    4    4    0    0  0.25027871381E+02  0.26068005263E+02  0.86434039088E+02  0.93684461664E+02  0.00000000000E+00 0.  1.
<mgrwt>
<rscale>  0 0.13318405E+03</rscale>
<asrwt>0</asrwt>
<pdfrwt beam="1">  1        1 0.10105008E+00 0.14118573E+03</pdfrwt>
<pdfrwt beam="2">  1       -1 0.42465465E-02 0.14118573E+03</pdfrwt>
<totfact> 0.67154638E+03</totfact>
</mgrwt>
</event>
<event>
 8    1  0.8504141E-006  0.1472735E+03  0.7546771E-02  0.1215582E+00
         -2   -1    0    0    0  501 -0.00000000000E+00  0.00000000000E+00  0.82776122838E+02  0.82776122838E+02  0.00000000000E+00 0.  1.
          2   -1    0    0  501    0  0.00000000000E+00 -0.00000000000E+00 -0.23661393864E+03  0.23661393864E+03  0.00000000000E+00 0. -1.
         23    2    1    2    0    0 -0.33040282818E+02  0.70717687512E+02 -0.29392883220E+02  0.15017802413E+03  0.12488733215E+03 0.  0.
         23    2    1    2    0    0  0.33040282818E+02 -0.70717687512E+02 -0.12444493258E+03  0.16921203735E+03  0.83985241092E+02 0.  0.
          5    1    3    3  502    0 -0.72673603917E+02  0.75521588606E+02 -0.95499913685E+01  0.10534825764E+03  0.47000000000E+01 0.  1.
         -5    1    3    3    0  502  0.39633321099E+02 -0.48039010938E+01 -0.19842891852E+02  0.44829766496E+02  0.47000000000E+01 0.  1.
        -11    1    4    4    0    0 -0.18571226028E+01 -0.40594487411E+02 -0.47100860027E+01  0.40908999287E+02  0.00000000000E+00 0.  1.
         11    1    4    4    0    0  0.34897405420E+02 -0.30123200101E+02 -0.11973484658E+03  0.12830303806E+03  0.00000000000E+00 0. -1.
<mgrwt>
<rscale>  0 0.13833863E+03</rscale>
<asrwt>0</asrwt>
<pdfrwt beam="2">  1        2 0.36402145E-01 0.14727355E+03</pdfrwt>
<pdfrwt beam="1">  1       -2 0.12734788E-01 0.14727355E+03</pdfrwt>
<totfact> 0.60913745E+03</totfact>
</mgrwt>
</event>
<event>
 8    1  0.8504141E-006  0.2487521E+03  0.7546771E-02  0.1116471E+00
         -2   -1    0    0    0  501 -0.00000000000E+00  0.00000000000E+00  0.26719489749E+03  0.26719489749E+03  0.00000000000E+00 0.  1.
          2   -1    0    0  501    0  0.00000000000E+00 -0.00000000000E+00 -0.26860302737E+03  0.26860302737E+03  0.00000000000E+00 0. -1.
         23    2    1    2    0    0  0.20042015182E+03 -0.78005022174E+02  0.11515783831E+03  0.27411478825E+03  0.12499827467E+03 0.  0.
         23    2    1    2    0    0 -0.20042015182E+03  0.78005022174E+02 -0.11656596819E+03  0.26168313662E+03  0.92937711977E+02 0.  0.
          5    1    3    3  502    0  0.21095269272E+03 -0.58166556436E+02  0.12145970749E+03  0.25031767296E+03  0.47000000000E+01 0. -1.
         -5    1    3    3    0  502 -0.10532540898E+02 -0.19838465738E+02 -0.63018691828E+01  0.23797115283E+02  0.47000000000E+01 0. -1.
        -11    1    4    4    0    0 -0.49314264792E+02  0.46155219473E+02  0.10744227491E+01  0.67552611946E+02  0.00000000000E+00 0.  1.
         11    1    4    4    0    0 -0.15110588703E+03  0.31849802701E+02 -0.11764039094E+03  0.19413052467E+03  0.00000000000E+00 0. -1.
<mgrwt>
<rscale>  0 0.24505418E+03</rscale>
<asrwt>0</asrwt>
<pdfrwt beam="2">  1        2 0.41323543E-01 0.24875206E+03</pdfrwt>
<pdfrwt beam="1">  1       -2 0.41106907E-01 0.24875206E+03</pdfrwt>
<totfact> 0.69854430E+02</totfact>
</mgrwt>
</event>
<event>
 8    1  0.8504141E-006  0.2756709E+03  0.7546771E-02  0.1099763E+00
         -2   -1    0    0    0  501 -0.00000000000E+00  0.00000000000E+00  0.22414473723E+03  0.22414473723E+03  0.00000000000E+00 0.  1.
          2   -1    0    0  501    0  0.00000000000E+00 -0.00000000000E+00 -0.32979968635E+03  0.32979968635E+03  0.00000000000E+00 0. -1.
         23    2    1    2    0    0  0.18165323186E+03  0.16544416827E+03 -0.19394020682E+02  0.27635229191E+03  0.12499916699E+03 0.  0.
         23    2    1    2    0    0 -0.18165323186E+03 -0.16544416827E+03 -0.86260928441E+02  0.27759213167E+03  0.96160149374E+02 0.  0.
          5    1    3    3  502    0  0.10717864761E+03  0.19926119739E+02  0.12186392911E+02  0.10979485837E+03  0.47000000000E+01 0. -1.
         -5    1    3    3    0  502  0.74474584252E+02  0.14551804853E+03 -0.31580413593E+02  0.16655743355E+03  0.47000000000E+01 0. -1.
        -11    1    4    4    0    0 -0.18869863381E+03 -0.13590065136E+03 -0.83560979474E+02  0.24710038189E+03  0.00000000000E+00 0. -1.
         11    1    4    4    0    0  0.70454019452E+01 -0.29543516906E+02 -0.26999489663E+01  0.30491749772E+02  0.00000000000E+00 0.  1.
<mgrwt>
<rscale>  0 0.27266677E+03</rscale>
<asrwt>0</asrwt>
<pdfrwt beam="2">  1        2 0.50738413E-01 0.27567093E+03</pdfrwt>
<pdfrwt beam="1">  1       -2 0.34483806E-01 0.27567093E+03</pdfrwt>
<totfact> 0.78100806E+02</totfact>
</mgrwt>
</event>
<event>
 8    1  0.8504141E-006  0.1348631E+03  0.7546771E-02  0.1233693E+00
         -1   -1    0    0    0  501 -0.00000000000E+00  0.00000000000E+00  0.82727074091E+02  0.82727074091E+02  0.00000000000E+00 0.  1.
          1   -1    0    0  501    0  0.00000000000E+00 -0.00000000000E+00 -0.17070741360E+03  0.17070741360E+03  0.00000000000E+00 0. -1.
         23    2    1    2    0    0  0.26185433401E+02  0.43131932416E+02 -0.42438577956E+02  0.14138279899E+03  0.12506807121E+03 0.  0.
         23    2    1    2    0    0 -0.26185433401E+02 -0.43131932416E+02 -0.45541761548E+02  0.11205168869E+03  0.89081358196E+02 0.  0.
          5    1    3    3  502    0 -0.27560935788E+02  0.61468353865E+02  0.43276174551E+01  0.67666697727E+02  0.47000000000E+01 0. -1.
         -5    1    3    3    0  502  0.53746369189E+02 -0.18336421449E+02 -0.46766195411E+02  0.73716101266E+02  0.47000000000E+01 0. -1.
        -11    1    4    4    0    0 -0.26161806718E+02  0.15553598617E+02 -0.43804668665E+02  0.53340449544E+02  0.00000000000E+00 0. -1.
         11    1    4    4    0    0 -0.23626682731E-01 -0.58685531034E+02 -0.17370928832E+01  0.58711239151E+02  0.00000000000E+00 0.  1.
<mgrwt>
<rscale>  0 0.12588471E+03</rscale>
<asrwt>0</asrwt>
<pdfrwt beam="2">  1        1 0.26262679E-01 0.13486313E+03</pdfrwt>
<pdfrwt beam="1">  1       -1 0.12727242E-01 0.13486313E+03</pdfrwt>
<totfact> 0.71074046E+03</totfact>
</mgrwt>
</event>
<event>
 8    1  0.8504141E-006  0.1545779E+03  0.7546771E-02  0.1204500E+00
         -1   -1    0    0    0  501 -0.00000000000E+00  0.00000000000E+00  0.56275886228E+02  0.56275886228E+02  0.00000000000E+00 0.  1.
          1   -1    0    0  501    0  0.00000000000E+00 -0.00000000000E+00 -0.47599746732E+03  0.47599746732E+03  0.00000000000E+00 0. -1.
         23    2    1    2    0    0 -0.85746727177E+02 -0.30272504575E+02 -0.88713386417E+02  0.17822566013E+03  0.12500158097E+03 0.  0.
         23    2    1    2    0    0  0.85746727177E+02  0.30272504575E+02 -0.33100819468E+03  0.35404769342E+03  0.86685745753E+02 0.  0.
          5    1    3    3  502    0  0.23933549156E+02 -0.33319195079E+02 -0.41942790654E+02  0.58858059972E+02  0.47000000000E+01 0. -1.
         -5    1    3    3    0  502 -0.10968027633E+03  0.30466905038E+01 -0.46770595763E+02  0.11936760016E+03  0.47000000000E+01 0. -1.
        -11    1    4    4    0    0  0.88964860483E+02  0.41872173949E+02 -0.32683814431E+03  0.34130806895E+03  0.00000000000E+00 0. -1.
         11    1    4    4    0    0 -0.32181333054E+01 -0.11599669374E+02 -0.41700503621E+01  0.12739624468E+02  0.00000000000E+00 0.  1.
<mgrwt>
<rscale>  0 0.14676936E+03</rscale>
<asrwt>0</asrwt>
<pdfrwt beam="2">  1        1 0.73230381E-01 0.15457788E+03</pdfrwt>
<pdfrwt beam="1">  1       -1 0.86578285E-02 0.15457788E+03</pdfrwt>
<totfact> 0.35856876E+03</totfact>
</mgrwt>
</event>
<event>
 8    1  0.1648081E-005  0.2429152E+03  0.7546771E-02  0.1120457E+00
         -2   -1    0    0    0  501 -0.00000000000E+00  0.00000000000E+00  0.57964178291E+02  0.57964178291E+02  0.00000000000E+00 0.  1.
          2   -1    0    0  501    0  0.00000000000E+00 -0.00000000000E+00 -0.99932141149E+03  0.99932141149E+03  0.00000000000E+00 0. -1.
         23    2    1    2    0    0  0.16946757633E+03  0.12109312514E+03 -0.37405181562E+03  0.44600735693E+03  0.12499998914E+03 0.  0.
         23    2    1    2    0    0 -0.16946757633E+03 -0.12109312514E+03 -0.56730541757E+03  0.61127823284E+03  0.91884910392E+02 0.  0.
          5    1    3    3  502    0  0.50576677970E+02  0.10971161010E+03 -0.15623284056E+03  0.19754854647E+03  0.47000000000E+01 0. -1.
         -5    1    3    3    0  502  0.11889089836E+03  0.11381515048E+02 -0.21781897506E+03  0.24845881046E+03  0.47000000000E+01 0. -1.
        -11    1    4    4    0    0 -0.58796819650E+02 -0.82747766477E+02 -0.34993391960E+03  0.36435972190E+03  0.00000000000E+00 0.  1.
         11    1    4    4    0    0 -0.11067075668E+03 -0.38345358668E+02 -0.21737149797E+03  0.24691851094E+03  0.00000000000E+00 0. -1.
<mgrwt>
<rscale>  0 0.23900618E+03</rscale>
<asrwt>0</asrwt>
<pdfrwt beam="2">  1        2 0.15374177E+00 0.24291521E+03</pdfrwt>
<pdfrwt beam="1">  1       -2 0.89175651E-02 0.24291521E+03</pdfrwt>
<totfact> 0.20900007E+03</totfact>
</mgrwt>
</event>
<event>
 8    1  0.8504141E-006  0.2224386E+03  0.7546771E-02  0.1135341E+00
         -1   -1    0    0    0  501 -0.00000000000E+00  0.00000000000E+00  0.54484333078E+02  0.54484333078E+02  0.00000000000E+00 0.  1.
          1   -1    0    0  501    0  0.00000000000E+00 -0.00000000000E+00 -0.92540059856E+03  0.92540059856E+03  0.00000000000E+00 0. -1.
         23    2    1    2    0    0  0.63792547242E+02 -0.17257850454E+03 -0.30242364888E+03  0.37541840493E+03  0.12500434411E+03 0.  0.
         23    2    1    2    0    0 -0.63792547242E+02  0.17257850454E+03 -0.56849261660E+03  0.60446652671E+03  0.91340557635E+02 0.  0.
          5    1    3    3  502    0  0.58520488761E+02 -0.18246788368E+03 -0.30741735079E+03  0.36227985557E+03  0.47000000000E+01 0. -1.
         -5    1    3    3    0  502  0.52720584808E+01  0.98893791457E+01  0.49937019146E+01  0.13138549361E+02  0.47000000000E+01 0. -1.
        -11    1    4    4    0    0 -0.70666240584E+01  0.89755091745E+02 -0.15774831837E+03  0.18163272177E+03  0.00000000000E+00 0.  1.
         11    1    4    4    0    0 -0.56725923183E+02  0.82823412792E+02 -0.41074429823E+03  0.42283380494E+03  0.00000000000E+00 0. -1.
<mgrwt>
<rscale>  0 0.21805517E+03</rscale>
<asrwt>0</asrwt>
<pdfrwt beam="2">  1        1 0.14236931E+00 0.22243857E+03</pdfrwt>
<pdfrwt beam="1">  1       -1 0.83822056E-02 0.22243857E+03</pdfrwt>
<totfact> 0.14613255E+03</totfact>
</mgrwt>
</event>
<event>
 8    1  0.8504141E-006  0.1327739E+03  0.7546771E-02  0.1235214E+00
          1   -1    0    0  501    0  0.00000000000E+00  0.00000000000E+00  0.53296843653E+03  0.53296843653E+03  0.00000000000E+00 0.  1.
         -1   -1    0    0    0  501 -0.00000000000E+00 -0.00000000000E+00 -0.27053337203E+02  0.27053337203E+02  0.00000000000E+00 0. -1.
         23    2    1    2    0    0  0.39808773622E+02 -0.20464172456E+02  0.23633557693E+03  0.27107826607E+03  0.12500160240E+03 0.  0.
         23    2    1    2    0    0 -0.39808773622E+02  0.20464172456E+02  0.26957952239E+03  0.28894350766E+03  0.93870713822E+02 0.  0.
          5    1    3    3  502    0  0.68508431427E+02 -0.34863372593E+02  0.78605209357E+02  0.11004421322E+03  0.47000000000E+01 0.  1.
         -5    1    3    3    0  502 -0.28699657804E+02  0.14399200137E+02  0.15773036758E+03  0.16103405285E+03  0.47000000000E+01 0.  1.
        -11    1    4    4    0    0 -0.13611083045E+02  0.42704304786E+02  0.23828778446E+03  0.24246646666E+03  0.00000000000E+00 0.  1.
         11    1    4    4    0    0 -0.26197690577E+02 -0.22240132330E+02  0.31291737927E+02  0.46477041000E+02  0.00000000000E+00 0. -1.
<mgrwt>
<rscale>  0 0.12490768E+03</rscale>
<asrwt>0</asrwt>
<pdfrwt beam="1">  1        1 0.81995137E-01 0.13277395E+03</pdfrwt>
<pdfrwt beam="2">  1       -1 0.41620523E-02 0.13277395E+03</pdfrwt>
<totfact> 0.91522980E+03</totfact>
</mgrwt>
</event>
<event>
 8    1  0.8504141E-006  0.1330150E+03  0.7546771E-02  0.1235267E+00
          3   -1    0    0  501    0  0.00000000000E+00  0.00000000000E+00  0.11759887441E+03  0.11759887441E+03  0.00000000000E+00 0. -1.
         -3   -1    0    0    0  501 -0.00000000000E+00 -0.00000000000E+00 -0.14949867789E+03  0.14949867789E+03  0.00000000000E+00 0.  1.
         23    2    1    2    0    0  0.16389441340E+02  0.42421553327E+02 -0.77739843698E+02  0.15406648770E+03  0.12499918944E+03 0.  0.
         23    2    1    2    0    0 -0.16389441340E+02 -0.42421553327E+02  0.45840040219E+02  0.11303106459E+03  0.92771279509E+02 0.  0.
          5    1    3    3  502    0 -0.76902399294E+01  0.45314196684E+02  0.22100226722E+02  0.51215488208E+02  0.47000000000E+01 0.  1.
         -5    1    3    3    0  502  0.24079681269E+02 -0.28926433563E+01 -0.99840070420E+02  0.10285099949E+03  0.47000000000E+01 0.  1.
        -11    1    4    4    0    0  0.82219872710E+01  0.24000110363E+02  0.32034761832E+02  0.40863582048E+02  0.00000000000E+00 0. -1.
         11    1    4    4    0    0 -0.24611428611E+02 -0.66421663691E+02  0.13805278388E+02  0.72167482546E+02  0.00000000000E+00 0.  1.
<mgrwt>
<rscale>  0 0.12487344E+03</rscale>
<asrwt>0</asrwt>
<pdfrwt beam="1">  1        3 0.18092135E-01 0.13301503E+03</pdfrwt>
<pdfrwt beam="2">  1       -3 0.22999796E-01 0.13301503E+03</pdfrwt>
<totfact> 0.10753883E+03</totfact>
</mgrwt>
</event>
<event>
 8    1  0.8504141E-006  0.1319095E+03  0.7546771E-02  0.1237336E+00
         -1   -1    0    0    0  501 -0.00000000000E+00  0.00000000000E+00  0.19390260786E+03  0.19390260786E+03  0.00000000000E+00 0.  1.
          1   -1    0    0  501    0  0.00000000000E+00 -0.00000000000E+00 -0.87598325716E+02  0.87598325716E+02  0.00000000000E+00 0. -1.
         23    2    1    2    0    0 -0.51461596012E+01  0.41839108401E+02  0.12086512207E+03  0.17890918920E+03  0.12499250496E+03 0.  0.
         23    2    1    2    0    0  0.51461596012E+01 -0.41839108401E+02 -0.14560839924E+02  0.10259174438E+03  0.92390767963E+02 0.  0.
          5    1    3    3  502    0 -0.43994176593E+02  0.57804211465E+02  0.30070010427E+02  0.78759824557E+02  0.47000000000E+01 0. -1.
         -5    1    3    3    0  502  0.38848016992E+02 -0.15965103065E+02  0.90795111646E+02  0.10014936465E+03  0.47000000000E+01 0. -1.
        -11    1    4    4    0    0  0.31008987764E+02 -0.61582336016E+02 -0.81503197995E+01  0.69428878315E+02  0.00000000000E+00 0.  1.
         11    1    4    4    0    0 -0.25862828163E+02  0.19743227615E+02 -0.64105201249E+01  0.33162866063E+02  0.00000000000E+00 0. -1.
<mgrwt>
<rscale>  0 0.12356073E+03</rscale>
<asrwt>0</asrwt>
<pdfrwt beam="2">  1        1 0.13476666E-01 0.13190952E+03</pdfrwt>
<pdfrwt beam="1">  1       -1 0.29831170E-01 0.13190952E+03</pdfrwt>
<totfact> 0.42371706E+03</totfact>
</mgrwt>
</event>
<event>
 8    1  0.8504141E-006  0.1314910E+03  0.7546771E-02  0.1239144E+00
         -1   -1    0    0    0  501 -0.00000000000E+00  0.00000000000E+00  0.49159863682E+03  0.49159863682E+03  0.00000000000E+00 0.  1.
          1   -1    0    0  501    0  0.00000000000E+00 -0.00000000000E+00 -0.35343714606E+02  0.35343714606E+02  0.00000000000E+00 0. -1.
         23    2    1    2    0    0 -0.58208183331E+01  0.40366229307E+02  0.38004919880E+03  0.40215329027E+03  0.12500624373E+03 0.  0.
         23    2    1    2    0    0  0.58208183331E+01 -0.40366229307E+02  0.76205723411E+02  0.12478906115E+03  0.90009350117E+02 0.  0.
          5    1    3    3  502    0  0.51625261933E+02 -0.11804487490E+02  0.13609244940E+03  0.14610872109E+03  0.47000000000E+01 0. -1.
         -5    1    3    3    0  502 -0.57446080266E+02  0.52170716797E+02  0.24395674940E+03  0.25604456918E+03  0.47000000000E+01 0. -1.
        -11    1    4    4    0    0  0.33628552349E+02 -0.52685359334E+02  0.69824006485E+02  0.93712424485E+02  0.00000000000E+00 0.  1.
         11    1    4    4    0    0 -0.27807734016E+02  0.12319130027E+02  0.63817169256E+01  0.31076636668E+02  0.00000000000E+00 0. -1.
<mgrwt>
<rscale>  0 0.12242806E+03</rscale>
<asrwt>0</asrwt>
<pdfrwt beam="2">  1        1 0.54374949E-02 0.13149097E+03</pdfrwt>
<pdfrwt beam="1">  1       -1 0.75630555E-01 0.13149097E+03</pdfrwt>
<totfact> 0.26181957E+03</totfact>
</mgrwt>
</event>
<event>
 8    1  0.8504141E-006  0.1303768E+03  0.7546771E-02  0.1240597E+00
         -2   -1    0    0    0  501 -0.00000000000E+00  0.00000000000E+00  0.46703930754E+03  0.46703930754E+03  0.00000000000E+00 0. -1.
          2   -1    0    0  501    0  0.00000000000E+00 -0.00000000000E+00 -0.31697167314E+02  0.31697167314E+02  0.00000000000E+00 0.  1.
         23    2    1    2    0    0  0.15958184147E+02  0.33458589650E+02  0.32871791328E+03  0.35362915697E+03  0.12499589307E+03 0.  0.
         23    2    1    2    0    0 -0.15958184147E+02 -0.33458589650E+02  0.10662422695E+03  0.14510731789E+03  0.91177119224E+02 0.  0.
          5    1    3    3  502    0  0.24406345550E+01 -0.22702923481E+02  0.38453168999E+01  0.23627439422E+02  0.47000000000E+01 0.  1.
         -5    1    3    3    0  502  0.13517549592E+02  0.56161513131E+02  0.32487259638E+03  0.33000171755E+03  0.47000000000E+01 0.  1.
        -11    1    4    4    0    0 -0.34489907041E+02 -0.86630434909E+01  0.15793815859E+01  0.35596298353E+02  0.00000000000E+00 0.  1.
         11    1    4    4    0    0  0.18531722894E+02 -0.24795546159E+02  0.10504484536E+03  0.10951101954E+03  0.00000000000E+00 0. -1.
<mgrwt>
<rscale>  0 0.12152797E+03</rscale>
<asrwt>0</asrwt>
<pdfrwt beam="2">  1        2 0.48764876E-02 0.13037682E+03</pdfrwt>
<pdfrwt beam="1">  1       -2 0.71852196E-01 0.13037682E+03</pdfrwt>
<totfact> 0.27948235E+03</totfact>
</mgrwt>
</event>
<event>
 8    1  0.8504141E-006  0.1285686E+03  0.7546771E-02  0.1242602E+00
          1   -1    0    0  501    0  0.00000000000E+00  0.00000000000E+00  0.32254455177E+03  0.32254455177E+03  0.00000000000E+00 0. -1.
         -1   -1    0    0    0  501 -0.00000000000E+00 -0.00000000000E+00 -0.42560371683E+02  0.42560371683E+02  0.00000000000E+00 0.  1.
         23    2    1    2    0    0  0.15310502310E+02  0.25837508134E+02  0.11281247112E+03  0.17104542194E+03  0.12501157714E+03 0.  0.
         23    2    1    2    0    0 -0.15310502310E+02 -0.25837508134E+02  0.16717170897E+03  0.19405950151E+03  0.93865443801E+02 0.  0.
          5    1    3    3  502    0  0.17429855817E+02  0.75954855549E+02  0.64995010931E+02  0.10158435608E+03  0.47000000000E+01 0. -1.
         -5    1    3    3    0  502 -0.21193535070E+01 -0.50117347415E+02  0.47817460189E+02  0.69461065858E+02  0.47000000000E+01 0. -1.
        -11    1    4    4    0    0 -0.32268625599E+02  0.25993861768E+02  0.94636375961E+02  0.10331015779E+03  0.00000000000E+00 0.  1.
         11    1    4    4    0    0  0.16958123289E+02 -0.51831369901E+02  0.72535333007E+02  0.90749343721E+02  0.00000000000E+00 0. -1.
<mgrwt>
<rscale>  0 0.12030086E+03</rscale>
<asrwt>0</asrwt>
<pdfrwt beam="1">  1        1 0.49622237E-01 0.12856859E+03</pdfrwt>
<pdfrwt beam="2">  1       -1 0.65477497E-02 0.12856859E+03</pdfrwt>
<totfact> 0.88335065E+03</totfact>
</mgrwt>
</event>
<event>
 8    1  0.8504141E-006  0.1943086E+03  0.7546771E-02  0.1159366E+00
         -2   -1    0    0    0  501 -0.00000000000E+00  0.00000000000E+00  0.91969749168E+02  0.91969749168E+02  0.00000000000E+00 0.  1.
          2   -1    0    0  501    0  0.00000000000E+00 -0.00000000000E+00 -0.37261522068E+03  0.37261522068E+03  0.00000000000E+00 0. -1.
         23    2    1    2    0    0 -0.14145875757E+03  0.46042301642E+02 -0.17208308996E+03  0.25955424419E+03  0.12500136875E+03 0.  0.
         23    2    1    2    0    0  0.14145875757E+03 -0.46042301642E+02 -0.10856238155E+03  0.20503072566E+03  0.90118445078E+02 0.  0.
          5    1    3    3  502    0 -0.52478349957E+02 -0.43233180741E+02 -0.62117473731E+02  0.92215810325E+02  0.47000000000E+01 0.  1.
         -5    1    3    3    0  502 -0.88980407613E+02  0.89275482383E+02 -0.10996561623E+03  0.16733843386E+03  0.47000000000E+01 0.  1.
        -11    1    4    4    0    0  0.15429194882E+03 -0.38875231141E+02 -0.97221007478E+02  0.18646504595E+03  0.00000000000E+00 0.  1.
         11    1    4    4    0    0 -0.12833191249E+02 -0.71670705016E+01 -0.11341374068E+02  0.18565679707E+02  0.00000000000E+00 0. -1.
<mgrwt>
<rscale>  0 0.18900046E+03</rscale>
<asrwt>0</asrwt>
<pdfrwt beam="2">  1        2 0.57325418E-01 0.19430856E+03</pdfrwt>
<pdfrwt beam="1">  1       -2 0.14149192E-01 0.19430856E+03</pdfrwt>
<totfact> 0.32030134E+03</totfact>
</mgrwt>
</event>
<event>
 8    1  0.8504141E-006  0.1396750E+03  0.7546771E-02  0.1224270E+00
          1   -1    0    0  501    0  0.00000000000E+00  0.00000000000E+00  0.32510049846E+03  0.32510049846E+03  0.00000000000E+00 0. -1.
         -1   -1    0    0    0  501 -0.00000000000E+00 -0.00000000000E+00 -0.48890600391E+02  0.48890600391E+02  0.00000000000E+00 0.  1.
         23    2    1    2    0    0  0.43244856341E+02  0.44869057681E+02  0.14177090116E+03  0.19901783426E+03  0.12500303997E+03 0.  0.
         23    2    1    2    0    0 -0.43244856341E+02 -0.44869057681E+02  0.13443899691E+03  0.17497326459E+03  0.93050789855E+02 0.  0.
          5    1    3    3  502    0  0.77420174221E+02  0.55595289288E+02  0.12950231091E+03  0.16086534151E+03  0.47000000000E+01 0.  1.
         -5    1    3    3    0  502 -0.34175317881E+02 -0.10726231607E+02  0.12268590246E+02  0.38152492754E+02  0.47000000000E+01 0.  1.
        -11    1    4    4    0    0  0.12214836278E+02  0.22188309974E+01 -0.81814772264E+01  0.14868154085E+02  0.00000000000E+00 0.  1.
         11    1    4    4    0    0 -0.55459692618E+02 -0.47087888679E+02  0.14262047414E+03  0.16010511050E+03  0.00000000000E+00 0. -1.
<mgrwt>
<rscale>  0 0.13217035E+03</rscale>
<asrwt>0</asrwt>
<pdfrwt beam="1">  1        1 0.50015460E-01 0.13967502E+03</pdfrwt>
<pdfrwt beam="2">  1       -1 0.75216310E-02 0.13967502E+03</pdfrwt>
<totfact> 0.71463503E+03</totfact>
</mgrwt>
</event>
<event>
 8    1  0.8504141E-006  0.1836168E+03  0.7546771E-02  0.1169483E+00
          1   -1    0    0  501    0  0.00000000000E+00  0.00000000000E+00  0.23897454044E+03  0.23897454044E+03  0.00000000000E+00 0. -1.
         -1   -1    0    0    0  501 -0.00000000000E+00 -0.00000000000E+00 -0.12666446721E+03  0.12666446721E+03  0.00000000000E+00 0.  1.
         23    2    1    2    0    0 -0.12364887140E+03  0.52925924904E+02  0.44415525867E+02  0.18891230964E+03  0.12499969948E+03 0.  0.
         23    2    1    2    0    0  0.12364887140E+03 -0.52925924904E+02  0.67894547360E+02  0.17672669801E+03  0.92371312116E+02 0.  0.
          5    1    3    3  502    0 -0.12557723160E+02  0.21391933833E+02  0.66601857429E+02  0.71226460372E+02  0.47000000000E+01 0.  1.
         -5    1    3    3    0  502 -0.11109114824E+03  0.31533991071E+02 -0.22186331563E+02  0.11768584927E+03  0.47000000000E+01 0.  1.
        -11    1    4    4    0    0  0.92069884213E+02 -0.69013075349E+02  0.79015947528E+02  0.13958219124E+03  0.00000000000E+00 0.  1.
         11    1    4    4    0    0  0.31578987187E+02  0.16087150444E+02 -0.11121400169E+02  0.37144506766E+02  0.00000000000E+00 0. -1.
<mgrwt>
<rscale>  0 0.17827510E+03</rscale>
<asrwt>0</asrwt>
<pdfrwt beam="1">  1        1 0.36765314E-01 0.18361678E+03</pdfrwt>
<pdfrwt beam="2">  1       -1 0.19486841E-01 0.18361678E+03</pdfrwt>
<totfact> 0.24214754E+03</totfact>
</mgrwt>
</event>
<event>
 8    1  0.8504141E-006  0.1304870E+03  0.7546771E-02  0.1242139E+00
          2   -1    0    0  501    0  0.00000000000E+00  0.00000000000E+00  0.17707596912E+03  0.17707596912E+03  0.00000000000E+00 0. -1.
         -2   -1    0    0    0  501 -0.00000000000E+00 -0.00000000000E+00 -0.71889569429E+02  0.71889569429E+02  0.00000000000E+00 0.  1.
         23    2    1    2    0    0  0.16630841519E+02  0.33543554674E+02  0.59657560432E+02  0.14347777889E+03  0.12500037428E+03 0.  0.
         23    2    1    2    0    0 -0.16630841519E+02 -0.33543554674E+02  0.45528839264E+02  0.10548775966E+03  0.87481639694E+02 0.  0.
          5    1    3    3  502    0  0.46677392413E+02 -0.11735278045E+02 -0.15348660685E+02  0.50736250335E+02  0.47000000000E+01 0. -1.
         -5    1    3    3    0  502 -0.30046550893E+02  0.45278832718E+02  0.75006221117E+02  0.92741528557E+02  0.47000000000E+01 0. -1.
        -11    1    4    4    0    0  0.32199810162E+02 -0.32965112711E+02  0.18358849995E+02  0.49604171232E+02  0.00000000000E+00 0.  1.
         11    1    4    4    0    0 -0.48830651681E+02 -0.57844196287E+00  0.27169989269E+02  0.55883588428E+02  0.00000000000E+00 0. -1.
<mgrwt>
<rscale>  0 0.12058274E+03</rscale>
<asrwt>0</asrwt>
<pdfrwt beam="1">  1        2 0.27242457E-01 0.13048697E+03</pdfrwt>
<pdfrwt beam="2">  1       -2 0.11059934E-01 0.13048697E+03</pdfrwt>
<totfact> 0.10344026E+04</totfact>
</mgrwt>
</event>
<event>
 8    1  0.8504141E-006  0.1936765E+03  0.7546771E-02  0.1159899E+00
         -2   -1    0    0    0  501 -0.00000000000E+00  0.00000000000E+00  0.32398346837E+02  0.32398346837E+02  0.00000000000E+00 0.  1.
          2   -1    0    0  501    0  0.00000000000E+00 -0.00000000000E+00 -0.10424998300E+04  0.10424998300E+04  0.00000000000E+00 0. -1.
         23    2    1    2    0    0 -0.92179089187E+02  0.11571894616E+03 -0.50730101888E+03  0.54301463440E+03  0.12499084139E+03 0.  0.
         23    2    1    2    0    0  0.92179089187E+02 -0.11571894616E+03 -0.50280046433E+03  0.53188354248E+03  0.90575586395E+02 0.  0.
          5    1    3    3  502    0  0.64974612050E-01  0.36524009897E+02 -0.30299889367E+03  0.30522848341E+03  0.47000000000E+01 0. -1.
         -5    1    3    3    0  502 -0.92244063799E+02  0.79194936265E+02 -0.20430212521E+03  0.23778615099E+03  0.47000000000E+01 0. -1.
        -11    1    4    4    0    0  0.55507289975E+02 -0.59635096286E+02 -0.40637310466E+03  0.41445929130E+03  0.00000000000E+00 0. -1.
         11    1    4    4    0    0  0.36671799212E+02 -0.56083849876E+02 -0.96427359667E+02  0.11742425119E+03  0.00000000000E+00 0.  1.
<mgrwt>
<rscale>  0 0.18841420E+03</rscale>
<asrwt>0</asrwt>
<pdfrwt beam="2">  1        2 0.16038459E+00 0.19367646E+03</pdfrwt>
<pdfrwt beam="1">  1       -2 0.49843609E-02 0.19367646E+03</pdfrwt>
<totfact> 0.48127907E+03</totfact>
</mgrwt>
</event>
<event>
 8    1  0.9923353E-006  0.3073810E+03  0.7546771E-02  0.1083073E+00
          2   -1    0    0  501    0  0.00000000000E+00  0.00000000000E+00  0.21468747813E+03  0.21468747813E+03  0.00000000000E+00 0. -1.
         -2   -1    0    0    0  501 -0.00000000000E+00 -0.00000000000E+00 -0.43314628558E+03  0.43314628558E+03  0.00000000000E+00 0.  1.
         23    2    1    2    0    0 -0.26250742019E+03 -0.99741141949E+02 -0.62499066780E+02  0.31367058840E+03  0.12499865450E+03 0.  0.
         23    2    1    2    0    0  0.26250742019E+03  0.99741141949E+02 -0.15595974067E+03  0.33416317530E+03  0.92103995376E+02 0.  0.
          5    1    3    3  502    0 -0.22572831048E+03 -0.55653505146E+02 -0.90617290207E+02  0.24956795883E+03  0.47000000000E+01 0. -1.
         -5    1    3    3    0  502 -0.36779109710E+02 -0.44087636802E+02  0.28118223427E+02  0.64102629576E+02  0.47000000000E+01 0. -1.
        -11    1    4    4    0    0  0.16232433527E+03  0.92753934850E+02 -0.62913082097E+02  0.19725754270E+03  0.00000000000E+00 0. -1.
         11    1    4    4    0    0  0.10018308492E+03  0.69872070985E+01 -0.93046658575E+02  0.13690563261E+03  0.00000000000E+00 0.  1.
<mgrwt>
<rscale>  0 0.30437603E+03</rscale>
<asrwt>0</asrwt>
<pdfrwt beam="1">  1        2 0.33028843E-01 0.30738104E+03</pdfrwt>
<pdfrwt beam="2">  1       -2 0.66637890E-01 0.30738104E+03</pdfrwt>
<totfact> 0.33558952E+02</totfact>
</mgrwt>
</event>
<event>
 8    1  0.8504141E-006  0.1254180E+03  0.7546771E-02  0.1251531E+00
         -2   -1    0    0    0  501 -0.00000000000E+00  0.00000000000E+00  0.44997898522E+02  0.44997898522E+02  0.00000000000E+00 0.  1.
          2   -1    0    0  501    0  0.00000000000E+00 -0.00000000000E+00 -0.29241555438E+03  0.29241555438E+03  0.00000000000E+00 0. -1.
         23    2    1    2    0    0 -0.38411526984E+01 -0.94827111166E+01 -0.82456585242E+02  0.15009584765E+03  0.12499999507E+03 0.  0.
         23    2    1    2    0    0  0.38411526984E+01  0.94827111166E+01 -0.16496107062E+03  0.18731760526E+03  0.88153582769E+02 0.  0.
          5    1    3    3  502    0 -0.58268316067E+02  0.20903554177E+02 -0.49674504077E+02  0.79509757827E+02  0.47000000000E+01 0. -1.
         -5    1    3    3    0  502  0.54427163369E+02 -0.30386265293E+02 -0.32782081165E+02  0.70586089822E+02  0.47000000000E+01 0. -1.
        -11    1    4    4    0    0  0.33205495819E+02  0.28621960566E+02 -0.47054354730E+02  0.64311226689E+02  0.00000000000E+00 0.  1.
         11    1    4    4    0    0 -0.29364343121E+02 -0.19139249449E+02 -0.11790671589E+03  0.12300637857E+03  0.00000000000E+00 0. -1.
<mgrwt>
<rscale>  0 0.11502871E+03</rscale>
<asrwt>0</asrwt>
<pdfrwt beam="2">  1        2 0.44987007E-01 0.12541800E+03</pdfrwt>
<pdfrwt beam="1">  1       -2 0.69227538E-02 0.12541800E+03</pdfrwt>
<totfact> 0.12476526E+04</totfact>
</mgrwt>
</event>
<event>
 8    1  0.8504141E-006  0.1411950E+03  0.7546771E-02  0.1222051E+00
         -2   -1    0    0    0  501 -0.00000000000E+00  0.00000000000E+00  0.20399783399E+03  0.20399783399E+03  0.00000000000E+00 0.  1.
          2   -1    0    0  501    0  0.00000000000E+00 -0.00000000000E+00 -0.79949178330E+02  0.79949178330E+02  0.00000000000E+00 0. -1.
         23    2    1    2    0    0  0.52101239782E+02 -0.39890741276E+02  0.78899122604E+02  0.16174389866E+03  0.12502082538E+03 0.  0.
         23    2    1    2    0    0 -0.52101239782E+02  0.39890741276E+02  0.45149533058E+02  0.12220311367E+03  0.92678531644E+02 0.  0.
          5    1    3    3  502    0 -0.25849561052E+01 -0.45946001912E+02  0.93767082717E+02  0.10455655355E+03  0.47000000000E+01 0.  1.
         -5    1    3    3    0  502  0.54686195887E+02  0.60552606354E+01 -0.14867960113E+02  0.57187345103E+02  0.47000000000E+01 0.  1.
        -11    1    4    4    0    0 -0.38115140507E+02  0.33624470238E+02  0.73859782846E+02  0.89658443310E+02  0.00000000000E+00 0.  1.
         11    1    4    4    0    0 -0.13986099275E+02  0.62662710378E+01 -0.28710249788E+02  0.32544670356E+02  0.00000000000E+00 0. -1.
<mgrwt>
<rscale>  0 0.13371114E+03</rscale>
<asrwt>0</asrwt>
<pdfrwt beam="2">  1        2 0.12299874E-01 0.14119496E+03</pdfrwt>
<pdfrwt beam="1">  1       -2 0.31384282E-01 0.14119496E+03</pdfrwt>
<totfact> 0.44620311E+03</totfact>
</mgrwt>
</event>
<event>
 8    1  0.8504141E-006  0.2053817E+03  0.7546771E-02  0.1149602E+00
         -2   -1    0    0    0  501 -0.00000000000E+00  0.00000000000E+00  0.22995132888E+03  0.22995132888E+03  0.00000000000E+00 0.  1.
          2   -1    0    0  501    0  0.00000000000E+00 -0.00000000000E+00 -0.17597399923E+03  0.17597399923E+03  0.00000000000E+00 0. -1.
         23    2    1    2    0    0  0.32350503017E+02 -0.15971896134E+03 -0.20132012939E+02  0.20636601703E+03  0.12499973354E+03 0.  0.
         23    2    1    2    0    0 -0.32350503017E+02  0.15971896134E+03  0.74109342590E+02  0.19955931108E+03  0.88176087038E+02 0.  0.
          5    1    3    3  502    0  0.38537059429E+01 -0.14331372614E+03 -0.59119320741E+02  0.15514786248E+03  0.47000000000E+01 0.  1.
         -5    1    3    3    0  502  0.28496797074E+02 -0.16405235201E+02  0.38987307802E+02  0.51218154546E+02  0.47000000000E+01 0.  1.
        -11    1    4    4    0    0 -0.14598609153E+02  0.73377190712E+02  0.82069495769E+02  0.11105284166E+03  0.00000000000E+00 0.  1.
         11    1    4    4    0    0 -0.17751893864E+02  0.86341770626E+02 -0.79601531795E+01  0.88506469420E+02  0.00000000000E+00 0. -1.
<mgrwt>
<rscale>  0 0.20016274E+03</rscale>
<asrwt>0</asrwt>
<pdfrwt beam="2">  1        2 0.27072923E-01 0.20538168E+03</pdfrwt>
<pdfrwt beam="1">  1       -2 0.35377128E-01 0.20538168E+03</pdfrwt>
<totfact> 0.14680772E+03</totfact>
</mgrwt>
</event>
<event>
 8    1  0.8504141E-006  0.1338851E+03  0.7546771E-02  0.1237157E+00
         -1   -1    0    0    0  501 -0.00000000000E+00  0.00000000000E+00  0.88843281686E+02  0.88843281686E+02  0.00000000000E+00 0.  1.
          1   -1    0    0  501    0  0.00000000000E+00 -0.00000000000E+00 -0.30379852278E+03  0.30379852278E+03  0.00000000000E+00 0. -1.
         23    2    1    2    0    0  0.23950459722E+02 -0.41594947465E+02  0.22678400344E+02  0.13579224571E+03  0.12498583910E+03 0.  0.
         23    2    1    2    0    0 -0.23950459722E+02  0.41594947465E+02 -0.23763364144E+03  0.25684955876E+03  0.84842112868E+02 0.  0.
          5    1    3    3  502    0  0.59560256544E+02 -0.44975488316E+01  0.49397474821E+02  0.77652125687E+02  0.47000000000E+01 0. -1.
         -5    1    3    3    0  502 -0.35609796821E+02 -0.37097398633E+02 -0.26719074477E+02  0.58140120020E+02  0.47000000000E+01 0. -1.
        -11    1    4    4    0    0 -0.39850298529E+02 -0.11098788583E+02 -0.83539369491E+02  0.93220468009E+02  0.00000000000E+00 0.  1.
         11    1    4    4    0    0  0.15899838806E+02  0.52693736048E+02 -0.15409427195E+03  0.16362909075E+03  0.00000000000E+00 0. -1.
<mgrwt>
<rscale>  0 0.12367326E+03</rscale>
<asrwt>0</asrwt>
<pdfrwt beam="2">  1        1 0.46738235E-01 0.13388512E+03</pdfrwt>
<pdfrwt beam="1">  1       -1 0.13668197E-01 0.13388512E+03</pdfrwt>
<totfact> 0.31122315E+03</totfact>
</mgrwt>
</event>
<event>
 7    1  0.8504141E-006  0.1727236E+03  0.7546771E-02  0.1182563E+00
          1   -1    0    0  501    0  0.00000000000E+00  0.00000000000E+00  0.49458641963E+02  0.49458641963E+02  0.00000000000E+00 0. -1.
         -1   -1    0    0    0  501 -0.00000000000E+00 -0.00000000000E+00 -0.55466736509E+03  0.55466736509E+03  0.00000000000E+00 0.  1.
         23    2    1    2    0    0 -0.79360853771E+02  0.81302149909E+02 -0.15014706145E+03  0.20928146114E+03  0.91358662561E+02 0.  0.
          5    1    1    2  502    0  0.93992285338E+01 -0.48612976789E+01  0.10020117302E+02  0.15312428380E+02  0.47000000000E+01 0. -1.
         -5    1    1    2    0  502  0.69961625237E+02 -0.76440852230E+02 -0.36508177898E+03  0.37953211753E+03  0.47000000000E+01 0.  1.
        -11    1    3    3    0    0 -0.70023270188E+02  0.10014138368E+03 -0.14033248528E+03  0.18607729984E+03  0.00000000000E+00 0. -1.
         11    1    3    3    0    0 -0.93375835828E+01 -0.18839233769E+02 -0.98145761712E+01  0.23204161299E+02  0.00000000000E+00 0.  1.
<mgrwt>
<rscale>  0 0.16555614E+03</rscale>
<asrwt>0</asrwt>
<pdfrwt beam="1">  1        1 0.76090220E-02 0.17272357E+03</pdfrwt>
<pdfrwt beam="2">  1       -1 0.85333439E-01 0.17272357E+03</pdfrwt>
<totfact> 0.13091446E+03</totfact>
</mgrwt>
</event>
<event>
 8    1  0.8504141E-006  0.1954212E+03  0.7546771E-02  0.1158348E+00
          2   -1    0    0  501    0  0.00000000000E+00  0.00000000000E+00  0.11870455850E+04  0.11870455850E+04  0.00000000000E+00 0. -1.
         -2   -1    0    0    0  501 -0.00000000000E+00 -0.00000000000E+00 -0.30680870354E+02  0.30680870354E+02  0.00000000000E+00 0.  1.
         23    2    1    2    0    0 -0.12150728856E+03  0.88322482599E+02  0.46206061080E+03  0.50168659463E+03  0.12499819627E+03 0.  0.
         23    2    1    2    0    0  0.12150728856E+03 -0.88322482599E+02  0.69430410389E+03  0.71603986077E+03  0.89944490791E+02 0.  0.
          5    1    3    3  502    0 -0.12419581215E+03  0.10027237926E+03  0.46172779536E+03  0.48856299164E+03  0.47000000000E+01 0. -1.
         -5    1    3    3    0  502  0.26885235820E+01 -0.11949896658E+02  0.33281543983E+00  0.13123602985E+02  0.47000000000E+01 0. -1.
        -11    1    4    4    0    0 -0.25169411814E+01 -0.26051627734E+02  0.44890183814E+02  0.51962976275E+02  0.00000000000E+00 0.  1.
         11    1    4    4    0    0  0.12402422974E+03 -0.62270854864E+02  0.64941392007E+03  0.66407688449E+03  0.00000000000E+00 0. -1.
<mgrwt>
<rscale>  0 0.19012585E+03</rscale>
<asrwt>0</asrwt>
<pdfrwt beam="1">  1        2 0.18262236E+00 0.19542116E+03</pdfrwt>
<pdfrwt beam="2">  1       -2 0.47201348E-02 0.19542116E+03</pdfrwt>
<totfact> 0.43113786E+03</totfact>
</mgrwt>
</event>
<event>
 8    1  0.8504141E-006  0.1351185E+03  0.7546771E-02  0.1231553E+00
         -1   -1    0    0    0  501 -0.00000000000E+00  0.00000000000E+00  0.44353748778E+02  0.44353748778E+02  0.00000000000E+00 0.  1.
          1   -1    0    0  501    0  0.00000000000E+00 -0.00000000000E+00 -0.38827403481E+03  0.38827403481E+03  0.00000000000E+00 0. -1.
         23    2    1    2    0    0  0.26717543509E+02 -0.43795573577E+02 -0.10508376223E+03  0.17117125569E+03  0.12500048918E+03 0.  0.
         23    2    1    2    0    0 -0.26717543509E+02  0.43795573577E+02 -0.23883652381E+03  0.26145652790E+03  0.93192014032E+02 0.  0.
          5    1    3    3  502    0  0.36292224072E+02 -0.20644634066E+02 -0.12933457434E+03  0.13598841334E+03  0.47000000000E+01 0. -1.
         -5    1    3    3    0  502 -0.95746805626E+01 -0.23150939511E+02  0.24250812110E+02  0.35182842354E+02  0.47000000000E+01 0. -1.
        -11    1    4    4    0    0 -0.25629710959E+02 -0.16828922334E+02 -0.15492805813E+03  0.15793289052E+03  0.00000000000E+00 0.  1.
         11    1    4    4    0    0 -0.10878325504E+01  0.60624495911E+02 -0.83908465673E+02  0.10352363738E+03  0.00000000000E+00 0. -1.
<mgrwt>
<rscale>  0 0.12727722E+03</rscale>
<asrwt>0</asrwt>
<pdfrwt beam="2">  1        1 0.59734465E-01 0.13511847E+03</pdfrwt>
<pdfrwt beam="1">  1       -1 0.68236538E-02 0.13511847E+03</pdfrwt>
<totfact> 0.66119616E+03</totfact>
</mgrwt>
</event>
<event>
 8    1  0.8504141E-006  0.1476811E+03  0.7546771E-02  0.1213522E+00
          3   -1    0    0  501    0  0.00000000000E+00  0.00000000000E+00  0.13950003520E+03  0.13950003520E+03  0.00000000000E+00 0. -1.
         -3   -1    0    0    0  501 -0.00000000000E+00 -0.00000000000E+00 -0.14208892489E+03  0.14208892489E+03  0.00000000000E+00 0.  1.
         23    2    1    2    0    0 -0.56543164770E+01 -0.78441666989E+02 -0.46684615313E+02  0.15488437219E+03  0.12499859610E+03 0.  0.
         23    2    1    2    0    0  0.56543164770E+01  0.78441666989E+02  0.44095725621E+02  0.12670458790E+03  0.89019959351E+02 0.  0.
          5    1    3    3  502    0 -0.11714794354E+02  0.31762087224E+02 -0.24899721873E+02  0.42286555085E+02  0.47000000000E+01 0. -1.
         -5    1    3    3    0  502  0.60604778774E+01 -0.11020375421E+03 -0.21784893441E+02  0.11259781711E+03  0.47000000000E+01 0. -1.
        -11    1    4    4    0    0 -0.11514699408E+02  0.10617992547E+02 -0.24269689670E+02  0.28885081008E+02  0.00000000000E+00 0.  1.
         11    1    4    4    0    0  0.17169015885E+02  0.67823674442E+02  0.68365415291E+02  0.97819506895E+02  0.00000000000E+00 0. -1.
<mgrwt>
<rscale>  0 0.13985666E+03</rscale>
<asrwt>0</asrwt>
<pdfrwt beam="1">  1        3 0.21461544E-01 0.14768113E+03</pdfrwt>
<pdfrwt beam="2">  1       -3 0.21859835E-01 0.14768113E+03</pdfrwt>
<totfact> 0.88604433E+02</totfact>
</mgrwt>
</event>
<event>
 8    1  0.8504141E-006  0.3412727E+03  0.7546771E-02  0.1067391E+00
         -1   -1    0    0    0  501 -0.00000000000E+00  0.00000000000E+00  0.14958976633E+04  0.14958976633E+04  0.00000000000E+00 0.  1.
          1   -1    0    0  501    0  0.00000000000E+00 -0.00000000000E+00 -0.79606303691E+02  0.79606303691E+02  0.00000000000E+00 0. -1.
         23    2    1    2    0    0 -0.21516962205E+03  0.23354748520E+03  0.89821016700E+03  0.96085824224E+03  0.12499865391E+03 0.  0.
         23    2    1    2    0    0  0.21516962205E+03 -0.23354748520E+03  0.51808119259E+03  0.61464572473E+03  0.92405901973E+02 0.  0.
          5    1    3    3  502    0 -0.14539333077E+03  0.22877324590E+03  0.70574132126E+03  0.75602203752E+03  0.47000000000E+01 0. -1.
         -5    1    3    3    0  502 -0.69776291282E+02  0.47742392993E+01  0.19246884574E+03  0.20483620472E+03  0.47000000000E+01 0. -1.
        -11    1    4    4    0    0  0.17068428453E+03 -0.15985434584E+03  0.30132349035E+03  0.38142152889E+03  0.00000000000E+00 0.  1.
         11    1    4    4    0    0  0.44485337522E+02 -0.73693139365E+02  0.21675770224E+03  0.23322419584E+03  0.00000000000E+00 0. -1.
<mgrwt>
<rscale>  0 0.33860551E+03</rscale>
<asrwt>0</asrwt>
<pdfrwt beam="2">  1        1 0.12247125E-01 0.34127270E+03</pdfrwt>
<pdfrwt beam="1">  1       -1 0.23013808E+00 0.34127270E+03</pdfrwt>
<totfact> 0.51316778E+01</totfact>
</mgrwt>
</event>
<event>
 8    1  0.8504141E-006  0.1518642E+03  0.7546771E-02  0.1206921E+00
          4   -1    0    0  501    0  0.00000000000E+00  0.00000000000E+00  0.57131433974E+03  0.57131433974E+03  0.00000000000E+00 0. -1.
         -4   -1    0    0    0  501 -0.00000000000E+00 -0.00000000000E+00 -0.36746725650E+02  0.36746725650E+02  0.00000000000E+00 0.  1.
         23    2    1    2    0    0 -0.63885083844E+02 -0.57921298042E+02  0.20356523497E+03  0.25397150927E+03  0.12500616757E+03 0.  0.
         23    2    1    2    0    0  0.63885083844E+02  0.57921298042E+02  0.33100237912E+03  0.35408955611E+03  0.91545934165E+02 0.  0.
          5    1    3    3  502    0 -0.25844003398E+02 -0.93523940802E+02  0.15286838852E+03  0.18112281531E+03  0.47000000000E+01 0. -1.
         -5    1    3    3    0  502 -0.38041080446E+02  0.35602642761E+02  0.50696846444E+02  0.72848693965E+02  0.47000000000E+01 0. -1.
        -11    1    4    4    0    0  0.18996230344E+02  0.55255392510E+02  0.28027326688E+03  0.28629900331E+03  0.00000000000E+00 0. -1.
         11    1    4    4    0    0  0.44888853499E+02  0.26659055315E+01  0.50729112235E+02  0.67790552800E+02  0.00000000000E+00 0.  1.
<mgrwt>
<rscale>  0 0.14487099E+03</rscale>
<asrwt>0</asrwt>
<pdfrwt beam="1">  1        4 0.87894507E-01 0.15186416E+03</pdfrwt>
<pdfrwt beam="2">  1       -4 0.56533428E-02 0.15186416E+03</pdfrwt>
<totfact> 0.38243319E+02</totfact>
</mgrwt>
</event>
<event>
 8    1  0.8504141E-006  0.1547402E+03  0.7546771E-02  0.1203233E+00
          2   -1    0    0  501    0  0.00000000000E+00  0.00000000000E+00  0.42636377561E+03  0.42636377561E+03  0.00000000000E+00 0. -1.
         -2   -1    0    0    0  501 -0.00000000000E+00 -0.00000000000E+00 -0.51811475679E+02  0.51811475679E+02  0.00000000000E+00 0.  1.
         23    2    1    2    0    0  0.17643251367E+02 -0.89494616584E+02  0.13116273952E+03  0.20285018098E+03  0.12499584381E+03 0.  0.
         23    2    1    2    0    0 -0.17643251367E+02  0.89494616584E+02  0.24338956042E+03  0.27532507031E+03  0.90801131631E+02 0.  0.
          5    1    3    3  502    0  0.29477908268E+00 -0.99255169924E+02  0.14668570188E+03  0.17717353298E+03  0.47000000000E+01 0. -1.
         -5    1    3    3    0  502  0.17348472284E+02  0.97605533402E+01 -0.15522962364E+02  0.25676648003E+02  0.47000000000E+01 0. -1.
        -11    1    4    4    0    0  0.37719798196E+01  0.22255331232E+02  0.69934002582E+00  0.22583548801E+02  0.00000000000E+00 0. -1.
         11    1    4    4    0    0 -0.21415231187E+02  0.67239285353E+02  0.24269022039E+03  0.25274152151E+03  0.00000000000E+00 0.  1.
<mgrwt>
<rscale>  0 0.14777558E+03</rscale>
<asrwt>0</asrwt>
<pdfrwt beam="1">  1        2 0.65594425E-01 0.15474021E+03</pdfrwt>
<pdfrwt beam="2">  1       -2 0.79709965E-02 0.15474021E+03</pdfrwt>
<totfact> 0.68229042E+03</totfact>
</mgrwt>
</event>
<event>
 8    1  0.8504141E-006  0.2687624E+03  0.7546771E-02  0.1103965E+00
          2   -1    0    0  501    0  0.00000000000E+00  0.00000000000E+00  0.10478932751E+04  0.10478932751E+04  0.00000000000E+00 0. -1.
         -2   -1    0    0    0  501 -0.00000000000E+00 -0.00000000000E+00 -0.72960837163E+02  0.72960837163E+02  0.00000000000E+00 0.  1.
         23    2    1    2    0    0  0.11914239183E+03 -0.20599911527E+03  0.32005383705E+03  0.41793260461E+03  0.12491060148E+03 0.  0.
         23    2    1    2    0    0 -0.11914239183E+03  0.20599911527E+03  0.65487860091E+03  0.70292150767E+03  0.92747609156E+02 0.  0.
          5    1    3    3  502    0  0.12441960414E+03 -0.14213601962E+03  0.16792722492E+03  0.25279345094E+03  0.47000000000E+01 0.  1.
         -5    1    3    3    0  502 -0.52772123134E+01 -0.63863095644E+02  0.15212661213E+03  0.16513915367E+03  0.47000000000E+01 0.  1.
        -11    1    4    4    0    0 -0.24405128093E+02  0.86167980578E+02  0.14293995528E+03  0.16867827948E+03  0.00000000000E+00 0.  1.
         11    1    4    4    0    0 -0.94737263738E+02  0.11983113469E+03  0.51193864563E+03  0.53424322819E+03  0.00000000000E+00 0. -1.
<mgrwt>
<rscale>  0 0.26535939E+03</rscale>
<asrwt>0</asrwt>
<pdfrwt beam="1">  1        2 0.16121434E+00 0.26876235E+03</pdfrwt>
<pdfrwt beam="2">  1       -2 0.11224745E-01 0.26876235E+03</pdfrwt>
<totfact> 0.13532662E+03</totfact>
</mgrwt>
</event>
<event>
 8    1  0.8504141E-006  0.1270028E+03  0.7546771E-02  0.1246423E+00
         -3   -1    0    0    0  501 -0.00000000000E+00  0.00000000000E+00  0.42782346174E+03  0.42782346174E+03  0.00000000000E+00 0.  1.
          3   -1    0    0  501    0  0.00000000000E+00 -0.00000000000E+00 -0.29712946224E+02  0.29712946224E+02  0.00000000000E+00 0. -1.
         23    2    1    2    0    0 -0.23472377584E+01  0.22337437014E+02  0.26866232895E+03  0.29716855545E+03  0.12500093094E+03 0.  0.
         23    2    1    2    0    0  0.23472377584E+01 -0.22337437014E+02  0.12944818657E+03  0.16036785251E+03  0.91959472032E+02 0.  0.
          5    1    3    3  502    0 -0.38719334447E+02 -0.31051705860E+02  0.56556065042E+02  0.75392796671E+02  0.47000000000E+01 0.  1.
         -5    1    3    3    0  502  0.36372096689E+02  0.53389142874E+02  0.21210626391E+03  0.22177575878E+03  0.47000000000E+01 0.  1.
        -11    1    4    4    0    0  0.27810280596E+02 -0.56518894186E+01  0.10373762461E+01  0.28397741288E+02  0.00000000000E+00 0. -1.
         11    1    4    4    0    0 -0.25463042837E+02 -0.16685547596E+02  0.12841081032E+03  0.13197011122E+03  0.00000000000E+00 0.  1.
<mgrwt>
<rscale>  0 0.11800612E+03</rscale>
<asrwt>0</asrwt>
<pdfrwt beam="2">  1        3 0.45712228E-02 0.12700277E+03</pdfrwt>
<pdfrwt beam="1">  1       -3 0.65818990E-01 0.12700277E+03</pdfrwt>
<totfact> 0.13567030E+03</totfact>
</mgrwt>
</event>
<event>
 8    1  0.8504141E-006  0.1559114E+03  0.7546771E-02  0.1201726E+00
         -4   -1    0    0    0  501 -0.00000000000E+00  0.00000000000E+00  0.14909865972E+04  0.14909865972E+04  0.00000000000E+00 0.  1.
          4   -1    0    0  501    0  0.00000000000E+00 -0.00000000000E+00 -0.14049130441E+02  0.14049130441E+02  0.00000000000E+00 0. -1.
         23    2    1    2    0    0 -0.81553408634E+02  0.45079960691E+02  0.92082701688E+03  0.93393294427E+03  0.12500075226E+03 0.  0.
         23    2    1    2    0    0  0.81553408634E+02 -0.45079960691E+02  0.55611044983E+03  0.57110278332E+03  0.90644334570E+02 0.  0.
          5    1    3    3  502    0 -0.26089245199E+02  0.78465853179E+02  0.36225466881E+03  0.37160203701E+03  0.47000000000E+01 0. -1.
         -5    1    3    3    0  502 -0.55464163435E+02 -0.33385892488E+02  0.55857234807E+03  0.56233090727E+03  0.47000000000E+01 0. -1.
        -11    1    4    4    0    0  0.10125310550E+03 -0.32967527638E+02  0.47273463793E+03  0.48457928881E+03  0.00000000000E+00 0.  1.
         11    1    4    4    0    0 -0.19699696864E+02 -0.12112433053E+02  0.83375811909E+02  0.86523494511E+02  0.00000000000E+00 0. -1.
<mgrwt>
<rscale>  0 0.14898506E+03</rscale>
<asrwt>0</asrwt>
<pdfrwt beam="2">  1        4 0.21614059E-02 0.15591135E+03</pdfrwt>
<pdfrwt beam="1">  1       -4 0.22938243E+00 0.15591135E+03</pdfrwt>
<totfact> 0.14948893E+02</totfact>
</mgrwt>
</event>
<event>
 8    1  0.8504141E-006  0.1975021E+03  0.7546771E-02  0.1156217E+00
          1   -1    0    0  501    0  0.00000000000E+00  0.00000000000E+00  0.76659471069E+03  0.76659471069E+03  0.00000000000E+00 0. -1.
         -1   -1    0    0    0  501 -0.00000000000E+00 -0.00000000000E+00 -0.48483030890E+02  0.48483030890E+02  0.00000000000E+00 0.  1.
         23    2    1    2    0    0  0.81349088776E+02  0.12947524092E+03  0.28533864463E+03  0.34702338787E+03  0.12500230938E+03 0.  0.
         23    2    1    2    0    0 -0.81349088776E+02 -0.12947524092E+03  0.43277303516E+03  0.46805435371E+03  0.91656237155E+02 0.  0.
          5    1    3    3  502    0  0.27003234202E+02 -0.20787600314E+02  0.29342832652E+02  0.45214940144E+02  0.47000000000E+01 0.  1.
         -5    1    3    3    0  502  0.54345854574E+02  0.15026284123E+03  0.25599581198E+03  0.30180844772E+03  0.47000000000E+01 0.  1.
        -11    1    4    4    0    0 -0.62995033300E+02 -0.64615345675E+02  0.13252058378E+03  0.16032848232E+03  0.00000000000E+00 0.  1.
         11    1    4    4    0    0 -0.18354055475E+02 -0.64859895241E+02  0.30025245138E+03  0.30772587139E+03  0.00000000000E+00 0. -1.
<mgrwt>
<rscale>  0 0.19250948E+03</rscale>
<asrwt>0</asrwt>
<pdfrwt beam="1">  1        1 0.11793764E+00 0.19750213E+03</pdfrwt>
<pdfrwt beam="2">  1       -1 0.74589284E-02 0.19750213E+03</pdfrwt>
<totfact> 0.23426588E+03</totfact>
</mgrwt>
</event>
<event>
 6    1  0.8504141E-006  0.1518111E+03  0.7546771E-02  0.1232240E+00
         -2   -1    0    0    0  501 -0.00000000000E+00  0.00000000000E+00  0.26128148662E+02  0.26128148662E+02  0.00000000000E+00 0.  1.
          2   -1    0    0  501    0  0.00000000000E+00 -0.00000000000E+00 -0.58121549882E+03  0.58121549882E+03  0.00000000000E+00 0. -1.
          5    1    1    2  502    0 -0.75287691211E+02  0.27377790470E+02 -0.84867426869E+02  0.11680047090E+03  0.47000000000E+01 0. -1.
         -5    1    1    2    0  502  0.56489908688E+02  0.24642841261E+02 -0.15740678780E+03  0.16910755824E+03  0.47000000000E+01 0.  1.
        -11    1    1    2    0    0  0.30023911285E+02 -0.47655989502E+02 -0.29204910150E+03  0.29743101095E+03  0.00000000000E+00 0.  1.
         11    1    1    2    0    0 -0.11226128762E+02 -0.43646422285E+01 -0.20764033990E+02  0.24004607397E+02  0.00000000000E+00 0. -1.
<mgrwt>
<rscale>  0 0.12682770E+03</rscale>
<asrwt>0</asrwt>
<pdfrwt beam="2">  1        2 0.89417757E-01 0.15181109E+03</pdfrwt>
<pdfrwt beam="1">  1       -2 0.40197157E-02 0.15181109E+03</pdfrwt>
<totfact> 0.13676132E+04</totfact>
</mgrwt>
</event>
<event>
 8    1  0.8504141E-006  0.1250561E+03  0.7546771E-02  0.1250226E+00
          3   -1    0    0  501    0  0.00000000000E+00  0.00000000000E+00  0.10595532235E+03  0.10595532235E+03  0.00000000000E+00 0.  1.
         -3   -1    0    0    0  501 -0.00000000000E+00 -0.00000000000E+00 -0.11131092315E+03  0.11131092315E+03  0.00000000000E+00 0. -1.
         23    2    1    2    0    0  0.38901748164E+01 -0.11063213624E+00 -0.83890164893E+01  0.12533720467E+03  0.12499557423E+03 0.  0.
         23    2    1    2    0    0 -0.38901748164E+01  0.11063213624E+00  0.30334156869E+01  0.91929040833E+02  0.91796520839E+02 0.  0.
          5    1    3    3  502    0  0.11359781037E+02 -0.50604669424E+02 -0.39511690984E+02  0.65369265845E+02  0.47000000000E+01 0.  1.
         -5    1    3    3    0  502 -0.74696062203E+01  0.50494037288E+02  0.31122674494E+02  0.59967938820E+02  0.47000000000E+01 0.  1.
        -11    1    4    4    0    0  0.90979202804E+01 -0.68193845963E+01 -0.42541927727E+02  0.44035119784E+02  0.00000000000E+00 0. -1.
         11    1    4    4    0    0 -0.12988095097E+02  0.69300167326E+01  0.45575343414E+02  0.47893921049E+02  0.00000000000E+00 0.  1.
<mgrwt>
<rscale>  0 0.11577981E+03</rscale>
<asrwt>0</asrwt>
<pdfrwt beam="1">  1        3 0.16300819E-01 0.12505614E+03</pdfrwt>
<pdfrwt beam="2">  1       -3 0.17124757E-01 0.12505614E+03</pdfrwt>
<totfact> 0.21401946E+03</totfact>
</mgrwt>
</event>
<event>
 8    1  0.8504141E-006  0.1402245E+03  0.7546771E-02  0.1224062E+00
          2   -1    0    0  501    0  0.00000000000E+00  0.00000000000E+00  0.39741510620E+03  0.39741510620E+03  0.00000000000E+00 0.  1.
         -2   -1    0    0    0  501 -0.00000000000E+00 -0.00000000000E+00 -0.42328078029E+02  0.42328078029E+02  0.00000000000E+00 0. -1.
         23    2    1    2    0    0 -0.60137297608E+00  0.63267268380E+02  0.14293936496E+03  0.20023626440E+03  0.12513908512E+03 0.  0.
         23    2    1    2    0    0  0.60137297608E+00 -0.63267268380E+02  0.21214766321E+03  0.23950691983E+03  0.91399260097E+02 0.  0.
          5    1    3    3  502    0 -0.20028077589E+02 -0.21687081872E+02 -0.31558235070E+01  0.30058320546E+02  0.47000000000E+01 0. -1.
         -5    1    3    3    0  502  0.19426704612E+02  0.84954350252E+02  0.14609518847E+03  0.17017794385E+03  0.47000000000E+01 0. -1.
        -11    1    4    4    0    0  0.11422615823E+02 -0.81194181520E+01 -0.52479054571E+01  0.14964678916E+02  0.00000000000E+00 0. -1.
         11    1    4    4    0    0 -0.10821242847E+02 -0.55147850228E+02  0.21739556866E+03  0.22454224092E+03  0.00000000000E+00 0.  1.
<mgrwt>
<rscale>  0 0.13231427E+03</rscale>
<asrwt>0</asrwt>
<pdfrwt beam="1">  1        2 0.61140783E-01 0.14022446E+03</pdfrwt>
<pdfrwt beam="2">  1       -2 0.65120123E-02 0.14022446E+03</pdfrwt>
<totfact> 0.99753562E+03</totfact>
</mgrwt>
</event>
<event>
 8    1  0.8504141E-006  0.1524969E+03  0.7546771E-02  0.1206313E+00
         -2   -1    0    0    0  501 -0.00000000000E+00  0.00000000000E+00  0.14101171162E+03  0.14101171162E+03  0.00000000000E+00 0.  1.
          2   -1    0    0  501    0  0.00000000000E+00 -0.00000000000E+00 -0.17995413472E+03  0.17995413472E+03  0.00000000000E+00 0. -1.
         23    2    1    2    0    0 -0.57959432614E+02  0.65348195259E+02  0.56920172697E+02  0.16277351926E+03  0.12500252021E+03 0.  0.
         23    2    1    2    0    0  0.57959432614E+02 -0.65348195259E+02 -0.95862595795E+02  0.15819232708E+03  0.90584174233E+02 0.  0.
          5    1    3    3  502    0  0.11453770637E+02  0.87593411235E+01 -0.32664743498E+02  0.36013752741E+02  0.47000000000E+01 0.  1.
         -5    1    3    3    0  502 -0.69413203251E+02  0.56588854135E+02  0.89584916195E+02  0.12675976652E+03  0.47000000000E+01 0.  1.
        -11    1    4    4    0    0 -0.21423871603E+01 -0.40477251460E+02 -0.82312286222E+02  0.91751349699E+02  0.00000000000E+00 0. -1.
         11    1    4    4    0    0  0.60101819774E+02 -0.24870943799E+02 -0.13550309573E+02  0.66440977380E+02  0.00000000000E+00 0.  1.
<mgrwt>
<rscale>  0 0.14534452E+03</rscale>
<asrwt>0</asrwt>
<pdfrwt beam="2">  1        2 0.27685251E-01 0.15249693E+03</pdfrwt>
<pdfrwt beam="1">  1       -2 0.21694110E-01 0.15249693E+03</pdfrwt>
<totfact> 0.33919921E+03</totfact>
</mgrwt>
</event>
<event>
 8    1  0.8504141E-006  0.1285895E+03  0.7546771E-02  0.1234822E+00
          1   -1    0    0  501    0  0.00000000000E+00  0.00000000000E+00  0.45785488282E+02  0.45785488282E+02  0.00000000000E+00 0. -1.
         -1   -1    0    0    0  501 -0.00000000000E+00 -0.00000000000E+00 -0.32744208103E+03  0.32744208103E+03  0.00000000000E+00 0.  1.
         23    2    1    2    0    0  0.28375270273E+02 -0.10239288012E+02 -0.16426137792E+03  0.20860744143E+03  0.12500106144E+03 0.  0.
         23    2    1    2    0    0 -0.28375270273E+02  0.10239288012E+02 -0.11739521483E+03  0.16462012788E+03  0.11139188057E+03 0.  0.
          5    1    3    3  502    0 -0.94826964296E+01 -0.58947407272E+02 -0.47395692095E+02  0.76375126741E+02  0.47000000000E+01 0. -1.
         -5    1    3    3    0  502  0.37857966702E+02  0.48708119260E+02 -0.11686568583E+03  0.13223231469E+03  0.47000000000E+01 0. -1.
        -11    1    4    4    0    0 -0.22991258296E+02 -0.43328743799E+02 -0.93774781580E+02  0.10582857675E+03  0.00000000000E+00 0.  1.
         11    1    4    4    0    0 -0.53840119773E+01  0.53568031811E+02 -0.23620433245E+02  0.58791551126E+02  0.00000000000E+00 0. -1.
<mgrwt>
<rscale>  0 0.12515830E+03</rscale>
<asrwt>0</asrwt>
<pdfrwt beam="1">  1        1 0.70439212E-02 0.12858952E+03</pdfrwt>
<pdfrwt beam="2">  1       -1 0.50375705E-01 0.12858952E+03</pdfrwt>
<totfact> 0.40064501E+03</totfact>
</mgrwt>
</event>
<event>
 8    1  0.8504141E-006  0.1422204E+03  0.7546771E-02  0.1222244E+00
          1   -1    0    0  501    0  0.00000000000E+00  0.00000000000E+00  0.22958123481E+02  0.22958123481E+02  0.00000000000E+00 0. -1.
         -1   -1    0    0    0  501 -0.00000000000E+00 -0.00000000000E+00 -0.72435265411E+03  0.72435265411E+03  0.00000000000E+00 0.  1.
         23    2    1    2    0    0 -0.11541980202E+02 -0.66857529950E+02 -0.46560585554E+03  0.48684232605E+03  0.12499396425E+03 0.  0.
         23    2    1    2    0    0  0.11541980202E+02  0.66857529950E+02 -0.23578867509E+03  0.26046845154E+03  0.87432078391E+02 0.  0.
          5    1    3    3  502    0 -0.19262992878E+02  0.14268208504E+02 -0.31146851625E+03  0.31242498505E+03  0.47000000000E+01 0.  1.
         -5    1    3    3    0  502  0.77210126758E+01 -0.81125738455E+02 -0.15413733929E+03  0.17441734099E+03  0.47000000000E+01 0.  1.
        -11    1    4    4    0    0  0.24679238243E+02 -0.35282096541E+01 -0.16777135294E+02  0.30049714347E+02  0.00000000000E+00 0. -1.
         11    1    4    4    0    0 -0.13137258041E+02  0.70385739604E+02 -0.21901153979E+03  0.23041873719E+03  0.00000000000E+00 0.  1.
<mgrwt>
<rscale>  0 0.13357568E+03</rscale>
<asrwt>0</asrwt>
<pdfrwt beam="1">  1        1 0.35320190E-02 0.14222038E+03</pdfrwt>
<pdfrwt beam="2">  1       -1 0.11143887E+00 0.14222038E+03</pdfrwt>
<totfact> 0.20724278E+03</totfact>
</mgrwt>
</event>
<event>
 8    1  0.8504141E-006  0.1464047E+03  0.7546771E-02  0.1214533E+00
          2   -1    0    0  501    0  0.00000000000E+00  0.00000000000E+00  0.38137428306E+03  0.38137428306E+03  0.00000000000E+00 0.  1.
         -2   -1    0    0    0  501 -0.00000000000E+00 -0.00000000000E+00 -0.53618834940E+02  0.53618834940E+02  0.00000000000E+00 0. -1.
         23    2    1    2    0    0 -0.55014094565E+02 -0.52759195526E+02  0.98242826845E+02  0.17631216494E+03  0.12499697263E+03 0.  0.
         23    2    1    2    0    0  0.55014094565E+02  0.52759195526E+02  0.22951262127E+03  0.25868095306E+03  0.91813445848E+02 0.  0.
          5    1    3    3  502    0 -0.52543946040E+02 -0.71770548349E+02  0.11835770071E+03  0.14813005500E+03  0.47000000000E+01 0.  1.
         -5    1    3    3    0  502 -0.24701485254E+01  0.19011352823E+02 -0.20114873869E+02  0.28182109940E+02  0.47000000000E+01 0.  1.
        -11    1    4    4    0    0  0.38856758081E+02 -0.17244913693E+02  0.12354492746E+03  0.13065444424E+03  0.00000000000E+00 0.  1.
         11    1    4    4    0    0  0.16157336484E+02  0.70004109220E+02  0.10596769381E+03  0.12802650882E+03  0.00000000000E+00 0. -1.
<mgrwt>
<rscale>  0 0.13910865E+03</rscale>
<asrwt>0</asrwt>
<pdfrwt beam="1">  1        2 0.58672965E-01 0.14640467E+03</pdfrwt>
<pdfrwt beam="2">  1       -2 0.82490518E-02 0.14640467E+03</pdfrwt>
<totfact> 0.72681202E+03</totfact>
</mgrwt>
</event>
<event>
 8    1  0.8504141E-006  0.1629781E+03  0.7546771E-02  0.1192102E+00
          2   -1    0    0  501    0  0.00000000000E+00  0.00000000000E+00  0.39731956820E+03  0.39731956820E+03  0.00000000000E+00 0. -1.
         -2   -1    0    0    0  501 -0.00000000000E+00 -0.00000000000E+00 -0.97425441067E+02  0.97425441067E+02  0.00000000000E+00 0.  1.
         23    2    1    2    0    0 -0.96338267905E+02  0.40772829994E+02 -0.68839799884E+00  0.16297951595E+03  0.12497344997E+03 0.  0.
         23    2    1    2    0    0  0.96338267905E+02 -0.40772829994E+02  0.30058252514E+03  0.33176549333E+03  0.93674983938E+02 0.  0.
          5    1    3    3  502    0  0.12466183993E+02  0.14667714683E+02 -0.39714655779E+02  0.44383459543E+02  0.47000000000E+01 0. -1.
         -5    1    3    3    0  502 -0.10880445190E+03  0.26105115311E+02  0.39026257780E+02  0.11859605640E+03  0.47000000000E+01 0. -1.
        -11    1    4    4    0    0  0.61782597711E+02 -0.23022804155E+02  0.28028334375E+03  0.28793383211E+03  0.00000000000E+00 0. -1.
         11    1    4    4    0    0  0.34555670194E+02 -0.17750025838E+02  0.20299181386E+02  0.43831661214E+02  0.00000000000E+00 0.  1.
<mgrwt>
<rscale>  0 0.15702039E+03</rscale>
<asrwt>0</asrwt>
<pdfrwt beam="1">  1        2 0.61126086E-01 0.16297806E+03</pdfrwt>
<pdfrwt beam="2">  1       -2 0.14988530E-01 0.16297806E+03</pdfrwt>
<totfact> 0.27021725E+03</totfact>
</mgrwt>
</event>
<event>
 8    1  0.8504141E-006  0.1911902E+03  0.7546771E-02  0.1162078E+00
         -1   -1    0    0    0  501 -0.00000000000E+00  0.00000000000E+00  0.13410063136E+03  0.13410063136E+03  0.00000000000E+00 0.  1.
          1   -1    0    0  501    0  0.00000000000E+00 -0.00000000000E+00 -0.27845845039E+03  0.27845845039E+03  0.00000000000E+00 0. -1.
         23    2    1    2    0    0  0.89532865119E+02  0.11348812748E+03 -0.43720881851E+01  0.19124022763E+03  0.12513201226E+03 0.  0.
         23    2    1    2    0    0 -0.89532865119E+02 -0.11348812748E+03 -0.13998573085E+03  0.22131885413E+03  0.92143048229E+02 0.  0.
          5    1    3    3  502    0  0.74799626508E+02  0.65170930038E+02  0.54689853374E+02  0.11338123438E+03  0.47000000000E+01 0. -1.
         -5    1    3    3    0  502  0.14733238612E+02  0.48317197441E+02 -0.59061941559E+02  0.77858993246E+02  0.47000000000E+01 0. -1.
        -11    1    4    4    0    0 -0.38796065540E+02 -0.14339433541E+02 -0.90380768979E+02  0.99395359333E+02  0.00000000000E+00 0. -1.
         11    1    4    4    0    0 -0.50736799580E+02 -0.99148693939E+02 -0.49604961867E+02  0.12192349480E+03  0.00000000000E+00 0.  1.
<mgrwt>
<rscale>  0 0.18604453E+03</rscale>
<asrwt>0</asrwt>
<pdfrwt beam="2">  1        1 0.42839761E-01 0.19119024E+03</pdfrwt>
<pdfrwt beam="1">  1       -1 0.20630867E-01 0.19119024E+03</pdfrwt>
<totfact> 0.18265319E+03</totfact>
</mgrwt>
</event>
<event>
 8    1  0.8504141E-006  0.1348494E+03  0.7546771E-02  0.1230335E+00
          1   -1    0    0  501    0  0.00000000000E+00  0.00000000000E+00  0.50674843253E+03  0.50674843253E+03  0.00000000000E+00 0. -1.
         -1   -1    0    0    0  501 -0.00000000000E+00 -0.00000000000E+00 -0.37174520742E+02  0.37174520742E+02  0.00000000000E+00 0.  1.
         23    2    1    2    0    0  0.59905923392E+02  0.30454582666E+02  0.13097798142E+03  0.18798829552E+03  0.11691093350E+03 0.  0.
         23    2    1    2    0    0 -0.59905923392E+02 -0.30454582666E+02  0.33859593037E+03  0.35593465775E+03  0.86752955372E+02 0.  0.
          5    1    3    3  502    0  0.42146960815E+02  0.69720829892E+02  0.48818074859E+02  0.95092874915E+02  0.47000000000E+01 0.  1.
         -5    1    3    3    0  502  0.17758962578E+02 -0.39266247225E+02  0.82159906561E+02  0.92895420604E+02  0.47000000000E+01 0. -1.
        -11    1    4    4    0    0 -0.58174320834E+02 -0.57454164697E+02  0.23306876906E+03  0.24699450147E+03  0.00000000000E+00 0. -1.
         11    1    4    4    0    0 -0.17316025583E+01  0.26999582031E+02  0.10552716131E+03  0.10894015628E+03  0.00000000000E+00 0.  1.
<mgrwt>
<rscale>  0 0.12807825E+03</rscale>
<asrwt>0</asrwt>
<pdfrwt beam="1">  1        1 0.77961292E-01 0.13484943E+03</pdfrwt>
<pdfrwt beam="2">  1       -1 0.57191574E-02 0.13484943E+03</pdfrwt>
<totfact> 0.61203567E+03</totfact>
</mgrwt>
</event>
<event>
 8    1  0.8504141E-006  0.1439722E+03  0.7546771E-02  0.1218486E+00
          1   -1    0    0  501    0  0.00000000000E+00  0.00000000000E+00  0.53405986784E+03  0.53405986784E+03  0.00000000000E+00 0. -1.
         -1   -1    0    0    0  501 -0.00000000000E+00 -0.00000000000E+00 -0.31540165549E+02  0.31540165549E+02  0.00000000000E+00 0.  1.
         23    2    1    2    0    0  0.22119399292E+02 -0.67929583202E+02  0.28896211841E+03  0.32284220498E+03  0.12499714932E+03 0.  0.
         23    2    1    2    0    0 -0.22119399292E+02  0.67929583202E+02  0.21355758388E+03  0.24275782841E+03  0.90668768187E+02 0.  0.
          5    1    3    3  502    0 -0.51934453617E+02 -0.26524207614E+02  0.10487683459E+03  0.12009147137E+03  0.47000000000E+01 0.  1.
         -5    1    3    3    0  502  0.74053852908E+02 -0.41405375588E+02  0.18408528382E+03  0.20275073361E+03  0.47000000000E+01 0.  1.
        -11    1    4    4    0    0  0.12251835773E+02  0.36502188855E+02  0.18311157501E+03  0.18711591641E+03  0.00000000000E+00 0. -1.
         11    1    4    4    0    0 -0.34371235065E+02  0.31427394347E+02  0.30446008868E+02  0.55641912003E+02  0.00000000000E+00 0.  1.
<mgrwt>
<rscale>  0 0.13623552E+03</rscale>
<asrwt>0</asrwt>
<pdfrwt beam="1">  1        1 0.82163050E-01 0.14397216E+03</pdfrwt>
<pdfrwt beam="2">  1       -1 0.48523336E-02 0.14397216E+03</pdfrwt>
<totfact> 0.73162406E+03</totfact>
</mgrwt>
</event>
<event>
 8    1  0.8504141E-006  0.1637121E+03  0.7546771E-02  0.1190301E+00
         -2   -1    0    0    0  501 -0.00000000000E+00  0.00000000000E+00  0.89742186503E+02  0.89742186503E+02  0.00000000000E+00 0.  1.
          2   -1    0    0  501    0  0.00000000000E+00 -0.00000000000E+00 -0.26620878382E+03  0.26620878382E+03  0.00000000000E+00 0. -1.
         23    2    1    2    0    0 -0.78193760448E+02  0.71154153335E+02 -0.77759203533E+02  0.18124054984E+03  0.12499786184E+03 0.  0.
         23    2    1    2    0    0  0.78193760448E+02 -0.71154153335E+02 -0.98707393782E+02  0.17471042048E+03  0.97996957741E+02 0.  0.
          5    1    3    3  502    0 -0.69688206316E+02  0.75879847011E+02 -0.10787642592E+03  0.14924346066E+03  0.47000000000E+01 0. -1.
         -5    1    3    3    0  502 -0.85055541323E+01 -0.47256936763E+01  0.30117222385E+02  0.31997089180E+02  0.47000000000E+01 0. -1.
        -11    1    4    4    0    0  0.20000315857E+02 -0.82110935947E+02 -0.51373090093E+02  0.98901025385E+02  0.00000000000E+00 0.  1.
         11    1    4    4    0    0  0.58193444591E+02  0.10956782613E+02 -0.47334303690E+02  0.75809395093E+02  0.00000000000E+00 0. -1.
<mgrwt>
<rscale>  0 0.15858706E+03</rscale>
<asrwt>0</asrwt>
<pdfrwt beam="2">  1        2 0.40955198E-01 0.16371207E+03</pdfrwt>
<pdfrwt beam="1">  1       -2 0.13806490E-01 0.16371207E+03</pdfrwt>
<totfact> 0.47409827E+03</totfact>
</mgrwt>
</event>
<event>
 8    1  0.8504141E-006  0.1377490E+03  0.7546771E-02  0.1228231E+00
          1   -1    0    0  501    0  0.00000000000E+00  0.00000000000E+00  0.12833248060E+02  0.12833248060E+02  0.00000000000E+00 0. -1.
         -1   -1    0    0    0  501 -0.00000000000E+00 -0.00000000000E+00 -0.12221123550E+04  0.12221123550E+04  0.00000000000E+00 0.  1.
         23    2    1    2    0    0  0.25729438115E+02 -0.51818119070E+02 -0.80022086747E+03  0.81199028577E+03  0.12501066354E+03 0.  0.
         23    2    1    2    0    0 -0.25729438115E+02  0.51818119070E+02 -0.40905823945E+03  0.42295531727E+03  0.90639040689E+02 0.  0.
          5    1    3    3  502    0  0.75888687402E+02 -0.38685719204E+02 -0.52553572153E+03  0.53241484047E+03  0.47000000000E+01 0.  1.
         -5    1    3    3    0  502 -0.50159249287E+02 -0.13132399866E+02 -0.27468514594E+03  0.27957544530E+03  0.47000000000E+01 0.  1.
        -11    1    4    4    0    0  0.33029526873E+02  0.96765488536E+01 -0.15713756975E+03  0.16086267768E+03  0.00000000000E+00 0.  1.
         11    1    4    4    0    0 -0.58758964987E+02  0.42141570217E+02 -0.25192066970E+03  0.26209263959E+03  0.00000000000E+00 0. -1.
<mgrwt>
<rscale>  0 0.12947863E+03</rscale>
<asrwt>0</asrwt>
<pdfrwt beam="1">  1        1 0.19743452E-02 0.13774900E+03</pdfrwt>
<pdfrwt beam="2">  1       -1 0.18801735E+00 0.13774900E+03</pdfrwt>
<totfact> 0.12132420E+03</totfact>
</mgrwt>
</event>
<event>
 8    1  0.8504141E-006  0.1446728E+03  0.7546771E-02  0.1217508E+00
         -4   -1    0    0    0  501 -0.00000000000E+00  0.00000000000E+00  0.55446269452E+03  0.55446269452E+03  0.00000000000E+00 0.  1.
          4   -1    0    0  501    0  0.00000000000E+00 -0.00000000000E+00 -0.32199380153E+02  0.32199380153E+02  0.00000000000E+00 0. -1.
         23    2    1    2    0    0 -0.12954119146E+02  0.71677491893E+02  0.35193427996E+03  0.38051012021E+03  0.12499896849E+03 0.  0.
         23    2    1    2    0    0  0.12954119146E+02 -0.71677491893E+02  0.17032903441E+03  0.20615195446E+03  0.90449855283E+02 0.  0.
          5    1    3    3  502    0  0.19751935278E+02 -0.15291175248E+02  0.12061465225E+02  0.28134106189E+02  0.47000000000E+01 0. -1.
         -5    1    3    3    0  502 -0.32706054424E+02  0.86968667140E+02  0.33987281473E+03  0.35237601402E+03  0.47000000000E+01 0. -1.
        -11    1    4    4    0    0  0.36637771386E+02 -0.26274097203E+02  0.23902900160E+02  0.51029433781E+02  0.00000000000E+00 0. -1.
         11    1    4    4    0    0 -0.23683652240E+02 -0.45403394690E+02  0.14642613425E+03  0.15512252068E+03  0.00000000000E+00 0.  1.
<mgrwt>
<rscale>  0 0.13693931E+03</rscale>
<asrwt>0</asrwt>
<pdfrwt beam="2">  1        4 0.49537512E-02 0.14467278E+03</pdfrwt>
<pdfrwt beam="1">  1       -4 0.85301946E-01 0.14467278E+03</pdfrwt>
<totfact> 0.50186399E+02</totfact>
</mgrwt>
</event>
<event>
 8    1  0.8504141E-006  0.1411191E+03  0.7546771E-02  0.1223094E+00
          2   -1    0    0  501    0  0.00000000000E+00  0.00000000000E+00  0.50561292258E+02  0.50561292258E+02  0.00000000000E+00 0. -1.
         -2   -1    0    0    0  501 -0.00000000000E+00 -0.00000000000E+00 -0.36250491355E+03  0.36250491355E+03  0.00000000000E+00 0.  1.
         23    2    1    2    0    0  0.61840209056E+02 -0.20765349570E+02 -0.24629850115E+03  0.28386184497E+03  0.12513666194E+03 0.  0.
         23    2    1    2    0    0 -0.61840209056E+02  0.20765349570E+02 -0.65645120137E+02  0.12920436083E+03  0.90161376774E+02 0.  0.
          5    1    3    3  502    0 -0.32112559134E+02  0.11025937248E+02 -0.11008130900E+03  0.11529428580E+03  0.47000000000E+01 0. -1.
         -5    1    3    3    0  502  0.93952768190E+02 -0.31791286818E+02 -0.13621719215E+03  0.16856755917E+03  0.47000000000E+01 0. -1.
        -11    1    4    4    0    0 -0.10277890742E+02 -0.30004865494E+02 -0.42901220612E+02  0.53352054520E+02  0.00000000000E+00 0.  1.
         11    1    4    4    0    0 -0.51562318314E+02  0.50770215064E+02 -0.22743899524E+02  0.75852306314E+02  0.00000000000E+00 0. -1.
<mgrwt>
<rscale>  0 0.13298390E+03</rscale>
<asrwt>0</asrwt>
<pdfrwt beam="1">  1        2 0.77786603E-02 0.14111908E+03</pdfrwt>
<pdfrwt beam="2">  1       -2 0.55769987E-01 0.14111908E+03</pdfrwt>
<totfact> 0.26107741E+03</totfact>
</mgrwt>
</event>
<event>
 8    1  0.8504141E-006  0.1291409E+03  0.7546771E-02  0.1244411E+00
         -2   -1    0    0    0  501 -0.00000000000E+00  0.00000000000E+00  0.56025361049E+02  0.56025361049E+02  0.00000000000E+00 0. -1.
          2   -1    0    0  501    0  0.00000000000E+00 -0.00000000000E+00 -0.23032596914E+03  0.23032596914E+03  0.00000000000E+00 0.  1.
         23    2    1    2    0    0  0.23654968777E+02 -0.22032979096E+02 -0.73108120833E+02  0.14839868703E+03  0.12502944959E+03 0.  0.
         23    2    1    2    0    0 -0.23654968777E+02  0.22032979096E+02 -0.10119248726E+03  0.13795264316E+03  0.88011377457E+02 0.  0.
          5    1    3    3  502    0  0.54101799546E+02 -0.57337424119E+02 -0.61583794695E+02  0.10014608673E+03  0.47000000000E+01 0.  1.
         -5    1    3    3    0  502 -0.30446830769E+02  0.35304445024E+02 -0.11524326138E+02  0.48252600295E+02  0.47000000000E+01 0.  1.
        -11    1    4    4    0    0 -0.16481401764E+02  0.55234890834E+02 -0.48864177946E+02  0.75566114469E+02  0.00000000000E+00 0. -1.
         11    1    4    4    0    0 -0.71735670134E+01 -0.33201911739E+02 -0.52328309311E+02  0.62386528691E+02  0.00000000000E+00 0.  1.
<mgrwt>
<rscale>  0 0.11920727E+03</rscale>
<asrwt>0</asrwt>
<pdfrwt beam="2">  1        2 0.35434763E-01 0.12914090E+03</pdfrwt>
<pdfrwt beam="1">  1       -2 0.86192866E-02 0.12914090E+03</pdfrwt>
<totfact> 0.11501553E+04</totfact>
</mgrwt>
</event>
<event>
 8    1  0.8504141E-006  0.1377575E+03  0.7546771E-02  0.1228394E+00
         -1   -1    0    0    0  501 -0.00000000000E+00  0.00000000000E+00  0.45508844969E+03  0.45508844969E+03  0.00000000000E+00 0.  1.
          1   -1    0    0  501    0  0.00000000000E+00 -0.00000000000E+00 -0.45549408003E+02  0.45549408003E+02  0.00000000000E+00 0. -1.
         23    2    1    2    0    0 -0.34143013315E+02  0.46775317665E+02  0.35419429790E+03  0.38004041826E+03  0.12499377243E+03 0.  0.
         23    2    1    2    0    0  0.34143013315E+02 -0.46775317665E+02  0.55344743785E+02  0.12059743943E+03  0.90150019588E+02 0.  0.
          5    1    3    3  502    0 -0.39269768078E+01 -0.13575842830E+02 -0.40734418537E+01  0.15440452841E+02  0.47000000000E+01 0. -1.
         -5    1    3    3    0  502 -0.30216036507E+02  0.60351160495E+02  0.35826773975E+03  0.36459996542E+03  0.47000000000E+01 0. -1.
        -11    1    4    4    0    0  0.40929748785E+02 -0.20007595143E+02 -0.12589019534E+02  0.47265543601E+02  0.00000000000E+00 0. -1.
         11    1    4    4    0    0 -0.67867354708E+01 -0.26767722522E+02  0.67933763319E+02  0.73331895830E+02  0.00000000000E+00 0.  1.
<mgrwt>
<rscale>  0 0.12936965E+03</rscale>
<asrwt>0</asrwt>
<pdfrwt beam="2">  1        1 0.70076015E-02 0.13775746E+03</pdfrwt>
<pdfrwt beam="1">  1       -1 0.70013605E-01 0.13775746E+03</pdfrwt>
<totfact> 0.21697513E+03</totfact>
</mgrwt>
</event>
<event>
 7    1  0.8504141E-006  0.1823864E+03  0.7546771E-02  0.1196601E+00
         -1   -1    0    0    0  501 -0.00000000000E+00  0.00000000000E+00  0.13912315169E+03  0.13912315169E+03  0.00000000000E+00 0.  1.
          1   -1    0    0  501    0  0.00000000000E+00 -0.00000000000E+00 -0.18035814975E+03  0.18035814975E+03  0.00000000000E+00 0. -1.
         23    2    1    2    0    0 -0.94728575982E+01  0.73609975158E+01 -0.92926492679E+02  0.12991123253E+03  0.89987087852E+02 0.  0.
          5    1    1    2  502    0  0.43763005296E+02  0.65252711995E+02  0.71926355105E+02  0.10662367286E+03  0.47000000000E+01 0. -1.
         -5    1    1    2    0  502 -0.34290147698E+02 -0.72613709511E+02 -0.20234860486E+02  0.82946396045E+02  0.47000000000E+01 0.  1.
        -11    1    3    3    0    0 -0.15428792594E+01 -0.32944079349E+02 -0.56630751926E+01  0.33462863912E+02  0.00000000000E+00 0.  1.
         11    1    3    3    0    0 -0.79299783388E+01  0.40305076865E+02 -0.87263417486E+02  0.96448368617E+02  0.00000000000E+00 0. -1.
<mgrwt>
<rscale>  0 0.15319541E+03</rscale>
<asrwt>0</asrwt>
<pdfrwt beam="2">  1        1 0.27747408E-01 0.18238640E+03</pdfrwt>
<pdfrwt beam="1">  1       -1 0.21403562E-01 0.18238640E+03</pdfrwt>
<totfact> 0.29581577E+03</totfact>
</mgrwt>
</event>
<event>
 8    1  0.8504141E-006  0.1317114E+03  0.7546771E-02  0.1238543E+00
         -2   -1    0    0    0  501 -0.00000000000E+00  0.00000000000E+00  0.53105531184E+02  0.53105531184E+02  0.00000000000E+00 0.  1.
          2   -1    0    0  501    0  0.00000000000E+00 -0.00000000000E+00 -0.25358962124E+03  0.25358962124E+03  0.00000000000E+00 0. -1.
         23    2    1    2    0    0 -0.24660322338E+02 -0.33442798546E+02 -0.10110140870E+03  0.16604034146E+03  0.12498539066E+03 0.  0.
         23    2    1    2    0    0  0.24660322338E+02  0.33442798546E+02 -0.99382681356E+02  0.14065481096E+03  0.90445045313E+02 0.  0.
          5    1    3    3  502    0 -0.38576543884E+02 -0.24004823964E+02  0.15425892647E+02  0.48212337379E+02  0.47000000000E+01 0. -1.
         -5    1    3    3    0  502  0.13916221547E+02 -0.94379745818E+01 -0.11652730135E+03  0.11782800408E+03  0.47000000000E+01 0. -1.
        -11    1    4    4    0    0 -0.30885571371E+02  0.96675012530E+01 -0.12209279083E+02  0.34589674690E+02  0.00000000000E+00 0.  1.
         11    1    4    4    0    0  0.55545893709E+02  0.23775297293E+02 -0.87173402273E+02  0.10606513628E+03  0.00000000000E+00 0. -1.
<mgrwt>
<rscale>  0 0.12280317E+03</rscale>
<asrwt>0</asrwt>
<pdfrwt beam="2">  1        2 0.39013789E-01 0.13171143E+03</pdfrwt>
<pdfrwt beam="1">  1       -2 0.81700816E-02 0.13171143E+03</pdfrwt>
<totfact> 0.11294982E+04</totfact>
</mgrwt>
</event>
<event>
 8    1  0.8504141E-006  0.1317038E+03  0.7546771E-02  0.1237913E+00
         -2   -1    0    0    0  501 -0.00000000000E+00  0.00000000000E+00  0.15874412860E+03  0.15874412860E+03  0.00000000000E+00 0.  1.
          2   -1    0    0  501    0  0.00000000000E+00 -0.00000000000E+00 -0.10524837913E+03  0.10524837913E+03  0.00000000000E+00 0. -1.
         23    2    1    2    0    0 -0.15257677570E+02  0.38574949291E+02  0.86875405161E+02  0.15777588950E+03  0.12500028740E+03 0.  0.
         23    2    1    2    0    0  0.15257677570E+02 -0.38574949291E+02 -0.33379655685E+02  0.10621661823E+03  0.91907263787E+02 0.  0.
          5    1    3    3  502    0 -0.21844391920E+02 -0.34372214206E+02 -0.37388547622E+01  0.41166680735E+02  0.47000000000E+01 0. -1.
         -5    1    3    3    0  502  0.65867143502E+01  0.72947163497E+02  0.90614259923E+02  0.11660920877E+03  0.47000000000E+01 0. -1.
        -11    1    4    4    0    0 -0.31574038453E+02 -0.14397480359E+02  0.11948498382E+02  0.36701143831E+02  0.00000000000E+00 0.  1.
         11    1    4    4    0    0  0.46831716023E+02 -0.24177468932E+02 -0.45328154067E+02  0.69515474398E+02  0.00000000000E+00 0. -1.
<mgrwt>
<rscale>  0 0.12319752E+03</rscale>
<asrwt>0</asrwt>
<pdfrwt beam="2">  1        2 0.16192058E-01 0.13170382E+03</pdfrwt>
<pdfrwt beam="1">  1       -2 0.24422174E-01 0.13170382E+03</pdfrwt>
<totfact> 0.50132466E+03</totfact>
</mgrwt>
</event>
<event>
 8    1  0.8504141E-006  0.1357191E+03  0.7546771E-02  0.1230257E+00
         -2   -1    0    0    0  501 -0.00000000000E+00  0.00000000000E+00  0.14921793514E+03  0.14921793514E+03  0.00000000000E+00 0.  1.
          2   -1    0    0  501    0  0.00000000000E+00 -0.00000000000E+00 -0.13461598742E+03  0.13461598742E+03  0.00000000000E+00 0. -1.
         23    2    1    2    0    0 -0.51460533699E+02  0.12173755572E+02  0.80186188848E+02  0.15763725197E+03  0.12499316570E+03 0.  0.
         23    2    1    2    0    0  0.51460533699E+02 -0.12173755572E+02 -0.65584241132E+02  0.12619667060E+03  0.93957012148E+02 0.  0.
          5    1    3    3  502    0 -0.87893202884E+02  0.32317797655E+02  0.57566722949E+02  0.11002578220E+03  0.47000000000E+01 0. -1.
         -5    1    3    3    0  502  0.36432669185E+02 -0.20144042084E+02  0.22619465899E+02  0.47611469762E+02  0.47000000000E+01 0. -1.
        -11    1    4    4    0    0  0.15677069229E+02 -0.17419234171E+02 -0.82864438064E+02  0.86114547635E+02  0.00000000000E+00 0. -1.
         11    1    4    4    0    0  0.35783464470E+02  0.52454785993E+01  0.17280196932E+02  0.40082122963E+02  0.00000000000E+00 0.  1.
<mgrwt>
<rscale>  0 0.12813024E+03</rscale>
<asrwt>0</asrwt>
<pdfrwt beam="2">  1        2 0.20710152E-01 0.13571912E+03</pdfrwt>
<pdfrwt beam="1">  1       -2 0.22956605E-01 0.13571912E+03</pdfrwt>
<totfact> 0.42206660E+03</totfact>
</mgrwt>
</event>
<event>
 8    1  0.1161783E-005  0.4136491E+03  0.7546771E-02  0.1039864E+00
         -1   -1    0    0    0  501 -0.00000000000E+00  0.00000000000E+00  0.21860630637E+03  0.21860630637E+03  0.00000000000E+00 0.  1.
          1   -1    0    0  501    0  0.00000000000E+00 -0.00000000000E+00 -0.80133313692E+03  0.80133313692E+03  0.00000000000E+00 0. -1.
         23    2    1    2    0    0 -0.14429501430E+03  0.36695810871E+03 -0.40016428343E+03  0.57553193337E+03  0.12500499148E+03 0.  0.
         23    2    1    2    0    0  0.14429501430E+03 -0.36695810871E+03 -0.18256254711E+03  0.44440750992E+03  0.93218273785E+02 0.  0.
          5    1    3    3  502    0 -0.11908141733E+03  0.32269264052E+03 -0.39548732849E+03  0.52415955700E+03  0.47000000000E+01 0.  1.
         -5    1    3    3    0  502 -0.25213596967E+02  0.44265468192E+02 -0.46769549413E+01  0.51372376369E+02  0.47000000000E+01 0.  1.
        -11    1    4    4    0    0  0.98867243217E+02 -0.16395735817E+03 -0.50504133375E+02  0.19800862246E+03  0.00000000000E+00 0.  1.
         11    1    4    4    0    0  0.45427771080E+02 -0.20300075054E+03 -0.13205841373E+03  0.24639888746E+03  0.00000000000E+00 0. -1.
<mgrwt>
<rscale>  0 0.41151476E+03</rscale>
<asrwt>0</asrwt>
<pdfrwt beam="2">  1        1 0.12328202E+00 0.41364907E+03</pdfrwt>
<pdfrwt beam="1">  1       -1 0.33631739E-01 0.41364907E+03</pdfrwt>
<totfact> 0.19124317E+02</totfact>
</mgrwt>
</event>
<event>
 8    1  0.8504141E-006  0.1408504E+03  0.7546771E-02  0.1224788E+00
         -1   -1    0    0    0  501 -0.00000000000E+00  0.00000000000E+00  0.45629981082E+02  0.45629981082E+02  0.00000000000E+00 0.  1.
          1   -1    0    0  501    0  0.00000000000E+00 -0.00000000000E+00 -0.38079192945E+03  0.38079192945E+03  0.00000000000E+00 0. -1.
         23    2    1    2    0    0 -0.62730146438E+02  0.16693591858E+02 -0.11751636897E+03  0.18343641977E+03  0.12500030336E+03 0.  0.
         23    2    1    2    0    0  0.62730146438E+02 -0.16693591858E+02 -0.21764557940E+03  0.24298549076E+03  0.86363205171E+02 0.  0.
          5    1    3    3  502    0 -0.33273761672E+02  0.24556822100E+02  0.17346351214E+02  0.45090649007E+02  0.47000000000E+01 0. -1.
         -5    1    3    3    0  502 -0.29456384766E+02 -0.78632302421E+01 -0.13486272018E+03  0.13834577076E+03  0.47000000000E+01 0. -1.
        -11    1    4    4    0    0  0.19299765062E+00  0.29599145028E+02 -0.48806705226E+02  0.57081004804E+02  0.00000000000E+00 0.  1.
         11    1    4    4    0    0  0.62537148787E+02 -0.46292736886E+02 -0.16883887417E+03  0.18590448596E+03  0.00000000000E+00 0. -1.
<mgrwt>
<rscale>  0 0.13181452E+03</rscale>
<asrwt>0</asrwt>
<pdfrwt beam="2">  1        1 0.58583377E-01 0.14085036E+03</pdfrwt>
<pdfrwt beam="1">  1       -1 0.70199967E-02 0.14085036E+03</pdfrwt>
<totfact> 0.65098966E+03</totfact>
</mgrwt>
</event>
<event>
 8    1  0.8504141E-006  0.1421758E+03  0.7546771E-02  0.1220719E+00
         -2   -1    0    0    0  501 -0.00000000000E+00  0.00000000000E+00  0.14109244578E+03  0.14109244578E+03  0.00000000000E+00 0.  1.
          2   -1    0    0  501    0  0.00000000000E+00 -0.00000000000E+00 -0.14006703220E+03  0.14006703220E+03  0.00000000000E+00 0. -1.
         23    2    1    2    0    0 -0.55872331911E+02  0.38263934793E+02  0.57796849155E+02  0.15347455894E+03  0.12501247254E+03 0.  0.
         23    2    1    2    0    0  0.55872331911E+02 -0.38263934793E+02 -0.56771435574E+02  0.12768491904E+03  0.92166135184E+02 0.  0.
          5    1    3    3  502    0  0.27550548158E+02 -0.23748708805E+02  0.57271240486E+01  0.37120396328E+02  0.47000000000E+01 0. -1.
         -5    1    3    3    0  502 -0.83422880068E+02  0.62012643598E+02  0.52069725106E+02  0.11635416261E+03  0.47000000000E+01 0. -1.
        -11    1    4    4    0    0  0.31232707434E+01 -0.10860609093E+02 -0.66498468728E+02  0.67451864268E+02  0.00000000000E+00 0. -1.
         11    1    4    4    0    0  0.52749061167E+02 -0.27403325700E+02  0.97270331543E+01  0.60233054774E+02  0.00000000000E+00 0.  1.
<mgrwt>
<rscale>  0 0.13464713E+03</rscale>
<asrwt>0</asrwt>
<pdfrwt beam="2">  1        2 0.21548774E-01 0.14217582E+03</pdfrwt>
<pdfrwt beam="1">  1       -2 0.21706530E-01 0.14217582E+03</pdfrwt>
<totfact> 0.44564386E+03</totfact>
</mgrwt>
</event>
<event>
 8    1  0.8504141E-006  0.1337508E+03  0.7546771E-02  0.1234318E+00
          1   -1    0    0  501    0  0.00000000000E+00  0.00000000000E+00  0.25043186278E+03  0.25043186278E+03  0.00000000000E+00 0. -1.
         -1   -1    0    0    0  501 -0.00000000000E+00 -0.00000000000E+00 -0.56564926689E+02  0.56564926689E+02  0.00000000000E+00 0.  1.
         23    2    1    2    0    0  0.10019002154E+02  0.46524822501E+02  0.97753538717E+02  0.16566540890E+03  0.12499733541E+03 0.  0.
         23    2    1    2    0    0 -0.10019002154E+02 -0.46524822501E+02  0.96113397377E+02  0.14133138058E+03  0.92042568778E+02 0.  0.
          5    1    3    3  502    0  0.41251240186E+02  0.94497852527E+01  0.10782750169E+03  0.11593025222E+03  0.47000000000E+01 0. -1.
         -5    1    3    3    0  502 -0.31232238032E+02  0.37075037249E+02 -0.10073962977E+02  0.49735156676E+02  0.47000000000E+01 0. -1.
        -11    1    4    4    0    0 -0.31706752888E+02 -0.49071233671E+02  0.19384052537E+02  0.61555224355E+02  0.00000000000E+00 0.  1.
         11    1    4    4    0    0  0.21687750734E+02  0.25464111697E+01  0.76729344840E+02  0.79776156221E+02  0.00000000000E+00 0. -1.
<mgrwt>
<rscale>  0 0.12548202E+03</rscale>
<asrwt>0</asrwt>
<pdfrwt beam="1">  1        1 0.38527978E-01 0.13375079E+03</pdfrwt>
<pdfrwt beam="2">  1       -1 0.87022965E-02 0.13375079E+03</pdfrwt>
<totfact> 0.78971675E+03</totfact>
</mgrwt>
</event>
<event>
 8    1  0.8504141E-006  0.1343945E+03  0.7546771E-02  0.1233501E+00
          1   -1    0    0  501    0  0.00000000000E+00  0.00000000000E+00  0.79742247422E+02  0.79742247422E+02  0.00000000000E+00 0. -1.
         -1   -1    0    0    0  501 -0.00000000000E+00 -0.00000000000E+00 -0.26171171078E+03  0.26171171078E+03  0.00000000000E+00 0.  1.
         23    2    1    2    0    0 -0.21286043380E+02 -0.44539306138E+02 -0.19494642354E+03  0.23678255793E+03  0.12500010502E+03 0.  0.
         23    2    1    2    0    0  0.21286043380E+02  0.44539306138E+02  0.12976960179E+02  0.10467140028E+03  0.91383013226E+02 0.  0.
          5    1    3    3  502    0 -0.28644684094E+02  0.11053597669E+02 -0.17397729476E+03  0.17672829156E+03  0.47000000000E+01 0.  1.
         -5    1    3    3    0  502  0.73586407145E+01 -0.55592903807E+02 -0.20969128784E+02  0.60054266366E+02  0.47000000000E+01 0.  1.
        -11    1    4    4    0    0  0.39792189270E+02  0.29184790982E+02 -0.28310621893E+02  0.56891666028E+02  0.00000000000E+00 0.  1.
         11    1    4    4    0    0 -0.18506145890E+02  0.15354515156E+02  0.41287582072E+02  0.47779734248E+02  0.00000000000E+00 0. -1.
<mgrwt>
<rscale>  0 0.12600917E+03</rscale>
<asrwt>0</asrwt>
<pdfrwt beam="1">  1        1 0.12268038E-01 0.13439446E+03</pdfrwt>
<pdfrwt beam="2">  1       -1 0.40263340E-01 0.13439446E+03</pdfrwt>
<totfact> 0.28683402E+03</totfact>
</mgrwt>
</event>
<event>
 8    1  0.8504141E-006  0.1282617E+03  0.7546771E-02  0.1244415E+00
          2   -1    0    0  501    0  0.00000000000E+00  0.00000000000E+00  0.40042971782E+03  0.40042971782E+03  0.00000000000E+00 0. -1.
         -2   -1    0    0    0  501 -0.00000000000E+00 -0.00000000000E+00 -0.31714801941E+02  0.31714801941E+02  0.00000000000E+00 0.  1.
         23    2    1    2    0    0  0.28622994043E+02  0.23112244206E+01  0.18679086208E+03  0.22658747294E+03  0.12500575662E+03 0.  0.
         23    2    1    2    0    0 -0.28622994043E+02 -0.23112244206E+01  0.18192405380E+03  0.20555704682E+03  0.91283736789E+02 0.  0.
          5    1    3    3  502    0 -0.40951376625E+02 -0.29022518643E+02  0.90989354293E+02  0.10402150946E+03  0.47000000000E+01 0. -1.
         -5    1    3    3    0  502  0.69574370668E+02  0.31333743064E+02  0.95801507786E+02  0.12256596347E+03  0.47000000000E+01 0. -1.
        -11    1    4    4    0    0 -0.47883396346E+02 -0.26555469753E+02  0.15547533879E+03  0.16483504965E+03  0.00000000000E+00 0. -1.
         11    1    4    4    0    0  0.19260402302E+02  0.24244245332E+02  0.26448715004E+02  0.40721997175E+02  0.00000000000E+00 0.  1.
<mgrwt>
<rscale>  0 0.11920482E+03</rscale>
<asrwt>0</asrwt>
<pdfrwt beam="1">  1        2 0.61604568E-01 0.12826167E+03</pdfrwt>
<pdfrwt beam="2">  1       -2 0.48792006E-02 0.12826167E+03</pdfrwt>
<totfact> 0.15199359E+04</totfact>
</mgrwt>
</event>
<event>
 8    1  0.8504141E-006  0.1587692E+03  0.7546771E-02  0.1197982E+00
         -1   -1    0    0    0  501 -0.00000000000E+00  0.00000000000E+00  0.11337489551E+03  0.11337489551E+03  0.00000000000E+00 0.  1.
          1   -1    0    0  501    0  0.00000000000E+00 -0.00000000000E+00 -0.19693851713E+03  0.19693851713E+03  0.00000000000E+00 0. -1.
         23    2    1    2    0    0 -0.94365125919E+02 -0.26032198905E+02 -0.13051933507E+02  0.15930481286E+03  0.12500087224E+03 0.  0.
         23    2    1    2    0    0  0.94365125919E+02  0.26032198905E+02 -0.70511688108E+02  0.15100859978E+03  0.90825363635E+02 0.  0.
          5    1    3    3  502    0 -0.41958389456E+02  0.50478350720E+02 -0.82620417070E+01  0.66324367093E+02  0.47000000000E+01 0. -1.
         -5    1    3    3    0  502 -0.52406736463E+02 -0.76510549625E+02 -0.47898918000E+01  0.92980445762E+02  0.47000000000E+01 0. -1.
        -11    1    4    4    0    0  0.73743534425E+02  0.46479179567E+02 -0.82097017270E+02  0.11974282128E+03  0.00000000000E+00 0. -1.
         11    1    4    4    0    0  0.20621591494E+02 -0.20446980662E+02  0.11585329161E+02  0.31265778508E+02  0.00000000000E+00 0.  1.
<mgrwt>
<rscale>  0 0.15204560E+03</rscale>
<asrwt>0</asrwt>
<pdfrwt beam="2">  1        1 0.30298233E-01 0.15876924E+03</pdfrwt>
<pdfrwt beam="1">  1       -1 0.17442292E-01 0.15876924E+03</pdfrwt>
<totfact> 0.36601833E+03</totfact>
</mgrwt>
</event>
<event>
 8    1  0.8504141E-006  0.1995711E+03  0.7546771E-02  0.1154739E+00
          1   -1    0    0  501    0  0.00000000000E+00  0.00000000000E+00  0.25763587792E+03  0.25763587792E+03  0.00000000000E+00 0. -1.
         -1   -1    0    0    0  501 -0.00000000000E+00 -0.00000000000E+00 -0.19710593226E+03  0.19710593226E+03  0.00000000000E+00 0.  1.
         23    2    1    2    0    0 -0.55599362003E+02  0.14530212783E+03 -0.91905328252E+02  0.21971624782E+03  0.12499857114E+03 0.  0.
         23    2    1    2    0    0  0.55599362003E+02 -0.14530212783E+03  0.15243527392E+03  0.23502556236E+03  0.88297818892E+02 0.  0.
          5    1    3    3  502    0 -0.38803001774E+02 -0.12292119517E+02 -0.20678482136E+02  0.45896173831E+02  0.47000000000E+01 0. -1.
         -5    1    3    3    0  502 -0.16796360229E+02  0.15759424735E+03 -0.71226846116E+02  0.17382007399E+03  0.47000000000E+01 0. -1.
        -11    1    4    4    0    0  0.30477052474E+02 -0.23351349195E+01  0.45151500150E+02  0.54524870916E+02  0.00000000000E+00 0.  1.
         11    1    4    4    0    0  0.25122309528E+02 -0.14296699291E+03  0.10728377377E+03  0.18050069144E+03  0.00000000000E+00 0. -1.
<mgrwt>
<rscale>  0 0.19418599E+03</rscale>
<asrwt>0</asrwt>
<pdfrwt beam="1">  1        1 0.39636289E-01 0.19957114E+03</pdfrwt>
<pdfrwt beam="2">  1       -1 0.30323990E-01 0.19957114E+03</pdfrwt>
<totfact> 0.10633832E+03</totfact>
</mgrwt>
</event>
<event>
 8    1  0.8504141E-006  0.1885685E+03  0.7546771E-02  0.1164997E+00
          2   -1    0    0  501    0  0.00000000000E+00  0.00000000000E+00  0.85729936350E+03  0.85729936350E+03  0.00000000000E+00 0. -1.
         -2   -1    0    0    0  501 -0.00000000000E+00 -0.00000000000E+00 -0.36891187815E+02  0.36891187815E+02  0.00000000000E+00 0.  1.
         23    2    1    2    0    0  0.13915857609E+03 -0.23853685255E+02  0.44584818561E+03  0.48408540357E+03  0.12499586286E+03 0.  0.
         23    2    1    2    0    0 -0.13915857609E+03  0.23853685255E+02  0.37455999007E+03  0.41010514775E+03  0.89201672889E+02 0.  0.
          5    1    3    3  502    0  0.39963121817E+02  0.20700892537E+02  0.29282551000E+03  0.29630127803E+03  0.47000000000E+01 0.  1.
         -5    1    3    3    0  502  0.99195454276E+02 -0.44554577792E+02  0.15302267562E+03  0.18778412554E+03  0.47000000000E+01 0.  1.
        -11    1    4    4    0    0 -0.78141204917E+02  0.10037585054E+02  0.93974539917E+02  0.12262958522E+03  0.00000000000E+00 0.  1.
         11    1    4    4    0    0 -0.61017371176E+02  0.13816100201E+02  0.28058545015E+03  0.28747556252E+03  0.00000000000E+00 0. -1.
<mgrwt>
<rscale>  0 0.18293000E+03</rscale>
<asrwt>0</asrwt>
<pdfrwt beam="1">  1        2 0.13189219E+00 0.18856848E+03</pdfrwt>
<pdfrwt beam="2">  1       -2 0.56755680E-02 0.18856848E+03</pdfrwt>
<totfact> 0.51495973E+03</totfact>
</mgrwt>
</event>
<event>
 8    1  0.8823069E-006  0.3062599E+03  0.7546771E-02  0.1083508E+00
          2   -1    0    0  501    0  0.00000000000E+00  0.00000000000E+00  0.20134565712E+04  0.20134565712E+04  0.00000000000E+00 0. -1.
         -2   -1    0    0    0  501 -0.00000000000E+00 -0.00000000000E+00 -0.45118019574E+02  0.45118019574E+02  0.00000000000E+00 0.  1.
         23    2    1    2    0    0  0.26045134810E+03  0.10165925014E+03  0.93694680021E+03  0.98573041002E+03  0.12500250777E+03 0.  0.
         23    2    1    2    0    0 -0.26045134810E+03 -0.10165925014E+03  0.10313917515E+04  0.10728441808E+04  0.95163981794E+02 0.  0.
          5    1    3    3  502    0  0.20655016732E+03  0.23915551965E+02  0.70932177772E+03  0.73918495628E+03  0.47000000000E+01 0. -1.
         -5    1    3    3    0  502  0.53901180772E+02  0.77743698171E+02  0.22762502249E+03  0.24654545373E+03  0.47000000000E+01 0. -1.
        -11    1    4    4    0    0 -0.11484641109E+03 -0.20174472756E+02  0.28306755678E+03  0.30614367410E+03  0.00000000000E+00 0. -1.
         11    1    4    4    0    0 -0.14560493701E+03 -0.81484777380E+02  0.74832419468E+03  0.76670050670E+03  0.00000000000E+00 0.  1.
<mgrwt>
<rscale>  0 0.30349264E+03</rscale>
<asrwt>0</asrwt>
<pdfrwt beam="1">  1        2 0.30976248E+00 0.30625991E+03</pdfrwt>
<pdfrwt beam="2">  1       -2 0.69412353E-02 0.30625991E+03</pdfrwt>
<totfact> 0.85962754E+02</totfact>
</mgrwt>
</event>
<event>
 8    1  0.8504141E-006  0.1414538E+03  0.7546771E-02  0.1222570E+00
         -2   -1    0    0    0  501 -0.00000000000E+00  0.00000000000E+00  0.24308700422E+03  0.24308700422E+03  0.00000000000E+00 0. -1.
          2   -1    0    0  501    0  0.00000000000E+00 -0.00000000000E+00 -0.77523301685E+02  0.77523301685E+02  0.00000000000E+00 0.  1.
         23    2    1    2    0    0 -0.48652932828E+02  0.45103245053E+02  0.15271035290E+03  0.20815767671E+03  0.12493100458E+03 0.  0.
         23    2    1    2    0    0  0.48652932828E+02 -0.45103245053E+02  0.12853349637E+02  0.11245262920E+03  0.89883116484E+02 0.  0.
          5    1    3    3  502    0  0.29358638405E+02 -0.22055369365E+02  0.53935695701E+02  0.65418026855E+02  0.47000000000E+01 0.  1.
         -5    1    3    3    0  502 -0.78011571233E+02  0.67158614418E+02  0.98774657201E+02  0.14273964986E+03  0.47000000000E+01 0. -1.
        -11    1    4    4    0    0  0.63848736829E+02 -0.50545100794E+02 -0.12509804716E+02  0.82389098933E+02  0.00000000000E+00 0.  1.
         11    1    4    4    0    0 -0.15195804000E+02  0.54418557411E+01  0.25363154353E+02  0.30063530263E+02  0.00000000000E+00 0. -1.
<mgrwt>
<rscale>  0 0.13334888E+03</rscale>
<asrwt>0</asrwt>
<pdfrwt beam="2">  1        2 0.11926662E-01 0.14145376E+03</pdfrwt>
<pdfrwt beam="1">  1       -2 0.37398000E-01 0.14145376E+03</pdfrwt>
<totfact> 0.33534136E+03</totfact>
</mgrwt>
</event>
<event>
 8    1  0.8504141E-006  0.1463669E+03  0.7546771E-02  0.1214444E+00
          2   -1    0    0  501    0  0.00000000000E+00  0.00000000000E+00  0.45308309993E+03  0.45308309993E+03  0.00000000000E+00 0. -1.
         -2   -1    0    0    0  501 -0.00000000000E+00 -0.00000000000E+00 -0.39113871316E+02  0.39113871316E+02  0.00000000000E+00 0.  1.
         23    2    1    2    0    0 -0.67702885094E+02  0.34841436025E+02  0.23790742451E+03  0.27932633936E+03  0.12500261961E+03 0.  0.
         23    2    1    2    0    0  0.67702885094E+02 -0.34841436025E+02  0.17606180411E+03  0.21287063189E+03  0.92295941085E+02 0.  0.
          5    1    3    3  502    0 -0.44293289450E+02  0.81979071201E+02  0.15928456275E+03  0.18459719807E+03  0.47000000000E+01 0. -1.
         -5    1    3    3    0  502 -0.23409595644E+02 -0.47137635176E+02  0.78622861755E+02  0.94729141285E+02  0.47000000000E+01 0. -1.
        -11    1    4    4    0    0 -0.10991846591E+01 -0.49108226939E+02  0.79461865038E+02  0.93418489366E+02  0.00000000000E+00 0.  1.
         11    1    4    4    0    0  0.68802069753E+02  0.14266790914E+02  0.96599939075E+02  0.11945214253E+03  0.00000000000E+00 0. -1.
<mgrwt>
<rscale>  0 0.13917472E+03</rscale>
<asrwt>0</asrwt>
<pdfrwt beam="1">  1        2 0.69705089E-01 0.14636687E+03</pdfrwt>
<pdfrwt beam="2">  1       -2 0.60175190E-02 0.14636687E+03</pdfrwt>
<totfact> 0.97972291E+03</totfact>
</mgrwt>
</event>
<event>
 8    1  0.8504141E-006  0.1710641E+03  0.7546771E-02  0.1183459E+00
          2   -1    0    0  501    0  0.00000000000E+00  0.00000000000E+00  0.87829186835E+03  0.87829186835E+03  0.00000000000E+00 0. -1.
         -2   -1    0    0    0  501 -0.00000000000E+00 -0.00000000000E+00 -0.28813790492E+02  0.28813790492E+02  0.00000000000E+00 0.  1.
         23    2    1    2    0    0  0.84915143232E+02 -0.80174358719E+02  0.45508653497E+03  0.48617555200E+03  0.12499761478E+03 0.  0.
         23    2    1    2    0    0 -0.84915143232E+02  0.80174358719E+02  0.39439154289E+03  0.42093010685E+03  0.89436885026E+02 0.  0.
          5    1    3    3  502    0  0.10923368180E+03 -0.78352742015E+02  0.29558148446E+03  0.32474860026E+03  0.47000000000E+01 0.  1.
         -5    1    3    3    0  502 -0.24318538565E+02 -0.18216167041E+01  0.15950505051E+03  0.16142695173E+03  0.47000000000E+01 0.  1.
        -11    1    4    4    0    0 -0.37303254936E+02 -0.13714171336E+02  0.79007045440E+02  0.88440514208E+02  0.00000000000E+00 0. -1.
         11    1    4    4    0    0 -0.47611888296E+02  0.93888530056E+02  0.31538449745E+03  0.33248959264E+03  0.00000000000E+00 0.  1.
<mgrwt>
<rscale>  0 0.16472893E+03</rscale>
<asrwt>0</asrwt>
<pdfrwt beam="1">  1        2 0.13512181E+00 0.17106406E+03</pdfrwt>
<pdfrwt beam="2">  1       -2 0.44328915E-02 0.17106406E+03</pdfrwt>
<totfact> 0.72224113E+03</totfact>
</mgrwt>
</event>
<event>
 8    1  0.8504141E-006  0.1732590E+03  0.7546771E-02  0.1180610E+00
          2   -1    0    0  501    0  0.00000000000E+00  0.00000000000E+00  0.49058781425E+03  0.49058781425E+03  0.00000000000E+00 0. -1.
         -2   -1    0    0    0  501 -0.00000000000E+00 -0.00000000000E+00 -0.81056055575E+02  0.81056055575E+02  0.00000000000E+00 0.  1.
         23    2    1    2    0    0  0.95899706655E+02  0.72096395350E+02  0.47854011451E+02  0.17974619194E+03  0.12499617252E+03 0.  0.
         23    2    1    2    0    0 -0.95899706655E+02 -0.72096395350E+02  0.36167774722E+03  0.39189767789E+03  0.91533344414E+02 0.  0.
          5    1    3    3  502    0  0.20147089848E+02 -0.34948624536E+02  0.17146314881E+01  0.40649004261E+02  0.47000000000E+01 0.  1.
         -5    1    3    3    0  502  0.75752616807E+02  0.10704501989E+03  0.46139379963E+02  0.13909718767E+03  0.47000000000E+01 0.  1.
        -11    1    4    4    0    0 -0.59814920433E+02 -0.89263498507E+02  0.29734684339E+03  0.31616600410E+03  0.00000000000E+00 0.  1.
         11    1    4    4    0    0 -0.36084786222E+02  0.17167103157E+02  0.64330903830E+02  0.75731673790E+02  0.00000000000E+00 0. -1.
<mgrwt>
<rscale>  0 0.16737840E+03</rscale>
<asrwt>0</asrwt>
<pdfrwt beam="1">  1        2 0.75475046E-01 0.17325902E+03</pdfrwt>
<pdfrwt beam="2">  1       -2 0.12470163E-01 0.17325902E+03</pdfrwt>
<totfact> 0.29031178E+03</totfact>
</mgrwt>
</event>
<event>
 8    1  0.8504141E-006  0.1496186E+03  0.7546771E-02  0.1209252E+00
          4   -1    0    0  501    0  0.00000000000E+00  0.00000000000E+00  0.19039988017E+03  0.19039988017E+03  0.00000000000E+00 0.  1.
         -4   -1    0    0    0  501 -0.00000000000E+00 -0.00000000000E+00 -0.11922291444E+03  0.11922291444E+03  0.00000000000E+00 0. -1.
         23    2    1    2    0    0  0.83197926083E+01 -0.81819471908E+02 -0.25163947366E+02  0.15172001057E+03  0.12498836917E+03 0.  0.
         23    2    1    2    0    0 -0.83197926083E+01  0.81819471908E+02  0.96340913091E+02  0.15790278404E+03  0.94276575774E+02 0.  0.
          5    1    3    3  502    0  0.63598321919E+02 -0.41177380792E+02  0.61403160100E+01  0.76158497363E+02  0.47000000000E+01 0.  1.
         -5    1    3    3    0  502 -0.55278529311E+02 -0.40642091116E+02 -0.31304263376E+02  0.75561513210E+02  0.47000000000E+01 0.  1.
        -11    1    4    4    0    0  0.23172015383E+02  0.13880705083E+02 -0.91649493389E+01  0.28523894666E+02  0.00000000000E+00 0. -1.
         11    1    4    4    0    0 -0.31491807992E+02  0.67938766825E+02  0.10550586243E+03  0.12937888937E+03  0.00000000000E+00 0.  1.
<mgrwt>
<rscale>  0 0.14307361E+03</rscale>
<asrwt>0</asrwt>
<pdfrwt beam="1">  1        4 0.29292289E-01 0.14961864E+03</pdfrwt>
<pdfrwt beam="2">  1       -4 0.18341987E-01 0.14961864E+03</pdfrwt>
<totfact> 0.49587041E+02</totfact>
</mgrwt>
</event>
<event>
 8    1  0.9440582E-006  0.1280396E+03  0.7546771E-02  0.1244605E+00
          2   -1    0    0  501    0  0.00000000000E+00  0.00000000000E+00  0.76261509515E+02  0.76261509515E+02  0.00000000000E+00 0. -1.
         -2   -1    0    0    0  501 -0.00000000000E+00 -0.00000000000E+00 -0.16578782087E+03  0.16578782087E+03  0.00000000000E+00 0.  1.
         23    2    1    2    0    0 -0.25302247910E+02  0.11360932234E+02 -0.62543117412E+02  0.14249836916E+03  0.12499947659E+03 0.  0.
         23    2    1    2    0    0  0.25302247910E+02 -0.11360932234E+02 -0.26983193947E+02  0.99550961228E+02  0.91722552272E+02 0.  0.
          5    1    3    3  502    0 -0.32986072075E+02  0.16206275101E+02 -0.98435189127E+02  0.10517747269E+03  0.47000000000E+01 0. -1.
         -5    1    3    3    0  502  0.76838241647E+01 -0.48453428672E+01  0.35892071714E+02  0.37320896469E+02  0.47000000000E+01 0. -1.
        -11    1    4    4    0    0 -0.13172142340E+02 -0.35420051674E+02 -0.37210743691E+02  0.53035128363E+02  0.00000000000E+00 0.  1.
         11    1    4    4    0    0  0.38474390250E+02  0.24059119440E+02  0.10227549745E+02  0.46515832865E+02  0.00000000000E+00 0. -1.
<mgrwt>
<rscale>  0 0.11909053E+03</rscale>
<asrwt>0</asrwt>
<pdfrwt beam="1">  1        2 0.11732540E-01 0.12803962E+03</pdfrwt>
<pdfrwt beam="2">  1       -2 0.25505818E-01 0.12803962E+03</pdfrwt>
<totfact> 0.67853643E+03</totfact>
</mgrwt>
</event>
<event>
 8    1  0.8504141E-006  0.1374789E+03  0.7546771E-02  0.1228034E+00
          1   -1    0    0  501    0  0.00000000000E+00  0.00000000000E+00  0.42754965385E+03  0.42754965385E+03  0.00000000000E+00 0. -1.
         -1   -1    0    0    0  501 -0.00000000000E+00 -0.00000000000E+00 -0.75498810711E+02  0.75498810711E+02  0.00000000000E+00 0.  1.
         23    2    1    2    0    0  0.50077972697E+02  0.27728218654E+02  0.30218285308E+01  0.13751210901E+03  0.12499516477E+03 0.  0.
         23    2    1    2    0    0 -0.50077972697E+02 -0.27728218654E+02  0.34902901461E+03  0.36553635555E+03  0.92297977956E+02 0.  0.
          5    1    3    3  502    0  0.59486743517E+02  0.29492868472E+02 -0.50112722096E+02  0.83317926407E+02  0.47000000000E+01 0.  1.
         -5    1    3    3    0  502 -0.94087708204E+01 -0.17646498182E+01  0.53134550627E+02  0.54194182599E+02  0.47000000000E+01 0.  1.
        -11    1    4    4    0    0 -0.69285137793E+02 -0.45333283601E+01  0.30054231841E+03  0.30845853294E+03  0.00000000000E+00 0. -1.
         11    1    4    4    0    0  0.19207165096E+02 -0.23194890294E+02  0.48486696193E+02  0.57077822615E+02  0.00000000000E+00 0.  1.
<mgrwt>
<rscale>  0 0.12961102E+03</rscale>
<asrwt>0</asrwt>
<pdfrwt beam="1">  1        1 0.65776869E-01 0.13747890E+03</pdfrwt>
<pdfrwt beam="2">  1       -1 0.11615202E-01 0.13747890E+03</pdfrwt>
<totfact> 0.26137424E+03</totfact>
</mgrwt>
</event>
<event>
 8    1  0.8504141E-006  0.1475683E+03  0.7546771E-02  0.1213099E+00
         -2   -1    0    0    0  501 -0.00000000000E+00  0.00000000000E+00  0.68579992280E+02  0.68579992280E+02  0.00000000000E+00 0.  1.
          2   -1    0    0  501    0  0.00000000000E+00 -0.00000000000E+00 -0.33895419945E+03  0.33895419945E+03  0.00000000000E+00 0. -1.
         23    2    1    2    0    0 -0.77943316555E+02  0.87433753396E+01 -0.48690128177E+02  0.15539343920E+03  0.12499914062E+03 0.  0.
         23    2    1    2    0    0  0.77943316555E+02 -0.87433753396E+01 -0.22168407899E+03  0.25214075252E+03  0.90991873256E+02 0.  0.
          5    1    3    3  502    0  0.46393244502E+01 -0.12625648476E+02 -0.66597673691E+02  0.68104849107E+02  0.47000000000E+01 0.  1.
         -5    1    3    3    0  502 -0.82582641005E+02  0.21369023815E+02  0.17907545515E+02  0.87288590094E+02  0.47000000000E+01 0.  1.
        -11    1    4    4    0    0  0.23739567140E+02  0.25131290969E+02 -0.15863836388E+03  0.16236156974E+03  0.00000000000E+00 0.  1.
         11    1    4    4    0    0  0.54203749414E+02 -0.33874666309E+02 -0.63045715112E+02  0.89779182788E+02  0.00000000000E+00 0. -1.
<mgrwt>
<rscale>  0 0.14017071E+03</rscale>
<asrwt>0</asrwt>
<pdfrwt beam="2">  1        2 0.52146801E-01 0.14756826E+03</pdfrwt>
<pdfrwt beam="1">  1       -2 0.10550768E-01 0.14756826E+03</pdfrwt>
<totfact> 0.56092191E+03</totfact>
</mgrwt>
</event>
<event>
 7    1  0.8504141E-006  0.1266066E+03  0.7546771E-02  0.1310245E+00
         -2   -1    0    0    0  501 -0.00000000000E+00  0.00000000000E+00  0.45784494844E+02  0.45784494844E+02  0.00000000000E+00 0.  1.
          2   -1    0    0  501    0  0.00000000000E+00 -0.00000000000E+00 -0.16632994550E+03  0.16632994550E+03  0.00000000000E+00 0. -1.
         23    2    1    2    0    0  0.99972180250E+01  0.22035369658E+00 -0.49998367865E+02  0.13612148736E+03  0.12621105184E+03 0.  0.
          5    1    3    3  502    0 -0.13552826936E+02  0.36966502628E+02 -0.75554104116E+02  0.85327100521E+02  0.47000000000E+01 0. -1.
         -5    1    3    3    0  502  0.23550044961E+02 -0.36746148931E+02  0.25555736251E+02  0.50794386838E+02  0.47000000000E+01 0.  1.
        -11    1    1    2    0    0 -0.10895712060E+02 -0.11545997902E+02 -0.50662219512E+02  0.53091309032E+02  0.00000000000E+00 0.  1.
         11    1    1    2    0    0  0.89849403547E+00  0.11325644205E+02 -0.19884863280E+02  0.22901643955E+02  0.00000000000E+00 0. -1.
<mgrwt>
<rscale>  0 0.87015199E+02</rscale>
<asrwt>0</asrwt>
<pdfrwt beam="2">  1        2 0.25589222E-01 0.12660657E+03</pdfrwt>
<pdfrwt beam="1">  1       -2 0.70437685E-02 0.12660657E+03</pdfrwt>
<totfact> 0.22274987E+04</totfact>
</mgrwt>
</event>
<event>
 8    1  0.8504141E-006  0.2872755E+03  0.7546771E-02  0.1093312E+00
          3   -1    0    0  501    0  0.00000000000E+00  0.00000000000E+00  0.90772991703E+02  0.90772991703E+02  0.00000000000E+00 0. -1.
         -3   -1    0    0    0  501 -0.00000000000E+00 -0.00000000000E+00 -0.87539334485E+03  0.87539334485E+03  0.00000000000E+00 0.  1.
         23    2    1    2    0    0 -0.12952072722E+03  0.22388928921E+03 -0.42199241512E+03  0.51049466263E+03  0.12500067819E+03 0.  0.
         23    2    1    2    0    0  0.12952072722E+03 -0.22388928921E+03 -0.36262793803E+03  0.45567167393E+03  0.96102135157E+02 0.  0.
          5    1    3    3  502    0  0.81870071613E+01  0.80852558297E+01 -0.91922698709E+02  0.92759209710E+02  0.47000000000E+01 0.  1.
         -5    1    3    3    0  502 -0.13770773438E+03  0.21580403338E+03 -0.33006971641E+03  0.41773545292E+03  0.47000000000E+01 0.  1.
        -11    1    4    4    0    0  0.69994335965E+02 -0.10399162803E+03 -0.98004307726E+02  0.15911728410E+03  0.00000000000E+00 0. -1.
         11    1    4    4    0    0  0.59526391253E+02 -0.11989766118E+03 -0.26462363030E+03  0.29655438983E+03  0.00000000000E+00 0.  1.
<mgrwt>
<rscale>  0 0.28439624E+03</rscale>
<asrwt>0</asrwt>
<pdfrwt beam="1">  1        3 0.13965076E-01 0.28727548E+03</pdfrwt>
<pdfrwt beam="2">  1       -3 0.13467590E+00 0.28727548E+03</pdfrwt>
<totfact> 0.46967073E+01</totfact>
</mgrwt>
</event>
<event>
 8    1  0.8504141E-006  0.1542302E+03  0.7546771E-02  0.1203928E+00
         -2   -1    0    0    0  501 -0.00000000000E+00  0.00000000000E+00  0.59292909696E+02  0.59292909696E+02  0.00000000000E+00 0. -1.
          2   -1    0    0  501    0  0.00000000000E+00 -0.00000000000E+00 -0.35058482933E+03  0.35058482933E+03  0.00000000000E+00 0.  1.
         23    2    1    2    0    0 -0.88657511620E+02  0.17348130316E+02 -0.11692682110E+03  0.19354288795E+03  0.12500342392E+03 0.  0.
         23    2    1    2    0    0  0.88657511620E+02 -0.17348130316E+02 -0.17436509854E+03  0.21633485108E+03  0.90754989997E+02 0.  0.
          5    1    3    3  502    0 -0.14947490268E+02  0.25489954588E+01  0.26870778389E+02  0.31209831374E+02  0.47000000000E+01 0.  1.
         -5    1    3    3    0  502 -0.73710021352E+02  0.14799134857E+02 -0.14379759948E+03  0.16233305658E+03  0.47000000000E+01 0.  1.
        -11    1    4    4    0    0  0.28908247327E+02 -0.50452040715E+02 -0.63365765650E+02  0.86001833889E+02  0.00000000000E+00 0. -1.
         11    1    4    4    0    0  0.59749264293E+02  0.33103910399E+02 -0.11099933289E+03  0.13033301719E+03  0.00000000000E+00 0.  1.
<mgrwt>
<rscale>  0 0.14722265E+03</rscale>
<asrwt>0</asrwt>
<pdfrwt beam="2">  1        2 0.53936128E-01 0.15423024E+03</pdfrwt>
<pdfrwt beam="1">  1       -2 0.91219860E-02 0.15423024E+03</pdfrwt>
<totfact> 0.68206886E+03</totfact>
</mgrwt>
</event>
<event>
 8    1  0.8504141E-006  0.1371337E+03  0.7546771E-02  0.1228730E+00
          1   -1    0    0  501    0  0.00000000000E+00  0.00000000000E+00  0.59494258970E+02  0.59494258970E+02  0.00000000000E+00 0. -1.
         -1   -1    0    0    0  501 -0.00000000000E+00 -0.00000000000E+00 -0.25994426684E+03  0.25994426684E+03  0.00000000000E+00 0.  1.
         23    2    1    2    0    0  0.36542155060E+02  0.42940644927E+02 -0.13917150942E+03  0.19538260193E+03  0.12500569595E+03 0.  0.
         23    2    1    2    0    0 -0.36542155060E+02 -0.42940644927E+02 -0.61278498445E+02  0.12405592388E+03  0.91954281000E+02 0.  0.
          5    1    3    3  502    0  0.45909124237E+01 -0.70142981587E+01 -0.13544009873E+03  0.13578065842E+03  0.47000000000E+01 0.  1.
         -5    1    3    3    0  502  0.31951242636E+02  0.49954943085E+02 -0.37314106888E+01  0.59601943512E+02  0.47000000000E+01 0.  1.
        -11    1    4    4    0    0  0.30453339644E+02 -0.21116063684E+02 -0.16460405500E+02  0.40549216888E+02  0.00000000000E+00 0. -1.
         11    1    4    4    0    0 -0.66995494704E+02 -0.21824581243E+02 -0.44818092944E+02  0.83506706989E+02  0.00000000000E+00 0.  1.
<mgrwt>
<rscale>  0 0.12914515E+03</rscale>
<asrwt>0</asrwt>
<pdfrwt beam="1">  1        1 0.91529630E-02 0.13713370E+03</pdfrwt>
<pdfrwt beam="2">  1       -1 0.39991425E-01 0.13713370E+03</pdfrwt>
<totfact> 0.42793804E+03</totfact>
</mgrwt>
</event>
<event>
 7    1  0.8504141E-006  0.2125872E+03  0.7546771E-02  0.1172372E+00
         -2   -1    0    0    0  501 -0.00000000000E+00  0.00000000000E+00  0.23016184236E+03  0.23016184236E+03  0.00000000000E+00 0.  1.
          2   -1    0    0  501    0  0.00000000000E+00 -0.00000000000E+00 -0.10921962534E+03  0.10921962534E+03  0.00000000000E+00 0. -1.
         23    2    1    2    0    0  0.34023577188E+02 -0.13349734660E+02  0.82377549233E+01  0.98766396769E+02  0.91384469711E+02 0.  0.
          5    1    1    2  502    0  0.58260660817E+02  0.58462563770E+02 -0.68139440166E+01  0.82949959581E+02  0.47000000000E+01 0. -1.
         -5    1    1    2    0  502 -0.92284238005E+02 -0.45112829110E+02  0.11951840612E+03  0.15766511134E+03  0.47000000000E+01 0.  1.
        -11    1    3    3    0    0 -0.12953611424E+02 -0.23479144255E+02  0.34740619810E+02  0.43885953660E+02  0.00000000000E+00 0.  1.
         11    1    3    3    0    0  0.46977188612E+02  0.10129409595E+02 -0.26502864887E+02  0.54880443109E+02  0.00000000000E+00 0. -1.
<mgrwt>
<rscale>  0 0.17535823E+03</rscale>
<asrwt>0</asrwt>
<pdfrwt beam="2">  1        2 0.16803019E-01 0.21258720E+03</pdfrwt>
<pdfrwt beam="1">  1       -2 0.35409514E-01 0.21258720E+03</pdfrwt>
<totfact> 0.25236357E+03</totfact>
</mgrwt>
</event>
<event>
 8    1  0.8504141E-006  0.1128124E+03  0.7546771E-02  0.1264868E+00
         -1   -1    0    0    0  501 -0.00000000000E+00  0.00000000000E+00  0.74072593561E+03  0.74072593561E+03  0.00000000000E+00 0.  1.
          1   -1    0    0  501    0  0.00000000000E+00 -0.00000000000E+00 -0.24098727552E+03  0.24098727552E+03  0.00000000000E+00 0. -1.
         23    2    1    2    0    0 -0.78478865716E+01 -0.22150135574E+02  0.72709052818E+03  0.73579023080E+03  0.11033770770E+03 0.  0.
         23    2    1    2    0    0  0.78478865716E+01  0.22150135574E+02 -0.22735186809E+03  0.24592298033E+03  0.90758043723E+02 0.  0.
          5    1    3    3  502    0  0.26393718828E+01 -0.40175092319E+02  0.94352875237E+02  0.10269157411E+03  0.47000000000E+01 0. -1.
         -5    1    3    3    0  502 -0.10487258454E+02  0.18024956745E+02  0.63273765294E+03  0.63309865670E+03  0.47000000000E+01 0.  1.
        -11    1    4    4    0    0 -0.10330052733E+02  0.53249000528E+02 -0.16753782403E+03  0.17609965510E+03  0.00000000000E+00 0. -1.
         11    1    4    4    0    0  0.18177939305E+02 -0.31098864955E+02 -0.59814044061E+02  0.69823325227E+02  0.00000000000E+00 0.  1.
<mgrwt>
<rscale>  0 0.10771134E+03</rscale>
<asrwt>0</asrwt>
<pdfrwt beam="2">  1        1 0.37074966E-01 0.11281236E+03</pdfrwt>
<pdfrwt beam="1">  1       -1 0.11395784E+00 0.11281236E+03</pdfrwt>
<totfact> 0.90595219E+01</totfact>
</mgrwt>
</event>
<event>
 8    1  0.8504141E-006  0.1276909E+03  0.7546771E-02  0.1247986E+00
          2   -1    0    0  501    0  0.00000000000E+00  0.00000000000E+00  0.16949714284E+03  0.16949714284E+03  0.00000000000E+00 0. -1.
         -2   -1    0    0    0  501 -0.00000000000E+00 -0.00000000000E+00 -0.70370100181E+02  0.70370100181E+02  0.00000000000E+00 0.  1.
         23    2    1    2    0    0 -0.27511052319E+01  0.25920936380E+02  0.50283179879E+02  0.13723468749E+03  0.12500199098E+03 0.  0.
         23    2    1    2    0    0  0.27511052319E+01 -0.25920936380E+02  0.48843862784E+02  0.10263255553E+03  0.86419066185E+02 0.  0.
          5    1    3    3  502    0 -0.35234763314E+02  0.65904753916E+02  0.20899258011E+02  0.77741842787E+02  0.47000000000E+01 0. -1.
         -5    1    3    3    0  502  0.32483658082E+02 -0.39983817535E+02  0.29383921868E+02  0.59492844708E+02  0.47000000000E+01 0. -1.
        -11    1    4    4    0    0 -0.21791587885E+02  0.25206056835E+02  0.21662058994E+02  0.39742463482E+02  0.00000000000E+00 0.  1.
         11    1    4    4    0    0  0.24542693117E+02 -0.51126993215E+02  0.27181803790E+02  0.62890092049E+02  0.00000000000E+00 0. -1.
<mgrwt>
<rscale>  0 0.11708450E+03</rscale>
<asrwt>0</asrwt>
<pdfrwt beam="1">  1        2 0.26076483E-01 0.12769088E+03</pdfrwt>
<pdfrwt beam="2">  1       -2 0.10826169E-01 0.12769088E+03</pdfrwt>
<totfact> 0.11203847E+04</totfact>
</mgrwt>
</event>
<event>
 8    1  0.8504141E-006  0.1355286E+03  0.7546771E-02  0.1230162E+00
         -4   -1    0    0    0  501 -0.00000000000E+00  0.00000000000E+00  0.12264104602E+03  0.12264104602E+03  0.00000000000E+00 0.  1.
          4   -1    0    0  501    0  0.00000000000E+00 -0.00000000000E+00 -0.12496998329E+03  0.12496998329E+03  0.00000000000E+00 0. -1.
         23    2    1    2    0    0 -0.35077461982E+02  0.38921399243E+02  0.19584135285E+02  0.13693624554E+03  0.12499077298E+03 0.  0.
         23    2    1    2    0    0  0.35077461982E+02 -0.38921399243E+02 -0.21913072554E+02  0.11067478376E+03  0.94991690975E+02 0.  0.
          5    1    3    3  502    0 -0.65413369497E+02 -0.95783941341E+01 -0.17563788062E+02  0.68565524822E+02  0.47000000000E+01 0. -1.
         -5    1    3    3    0  502  0.30335907515E+02  0.48499793377E+02  0.37147923347E+02  0.68370720717E+02  0.47000000000E+01 0. -1.
        -11    1    4    4    0    0  0.64590672935E+00  0.12714026226E+02 -0.43220632614E+02  0.45056483906E+02  0.00000000000E+00 0. -1.
         11    1    4    4    0    0  0.34431555253E+02 -0.51635425470E+02  0.21307560060E+02  0.65618299858E+02  0.00000000000E+00 0.  1.
<mgrwt>
<rscale>  0 0.12819301E+03</rscale>
<asrwt>0</asrwt>
<pdfrwt beam="2">  1        4 0.19226151E-01 0.13552858E+03</pdfrwt>
<pdfrwt beam="1">  1       -4 0.18867853E-01 0.13552858E+03</pdfrwt>
<totfact> 0.10022621E+03</totfact>
</mgrwt>
</event>
<event>
 8    1  0.8504141E-006  0.1270771E+03  0.7546771E-02  0.1246635E+00
          1   -1    0    0  501    0  0.00000000000E+00  0.00000000000E+00  0.29295090052E+03  0.29295090052E+03  0.00000000000E+00 0. -1.
         -1   -1    0    0    0  501 -0.00000000000E+00 -0.00000000000E+00 -0.42308949689E+02  0.42308949689E+02  0.00000000000E+00 0.  1.
         23    2    1    2    0    0 -0.10884236934E+02 -0.20133274550E+02  0.12462140571E+03  0.17798619353E+03  0.12499909988E+03 0.  0.
         23    2    1    2    0    0  0.10884236934E+02  0.20133274550E+02  0.12602054512E+03  0.15727365667E+03  0.91268888088E+02 0.  0.
          5    1    3    3  502    0  0.46691869904E+02 -0.36934617994E+02  0.91629187870E+02  0.10937227615E+03  0.47000000000E+01 0.  1.
         -5    1    3    3    0  502 -0.57576106838E+02  0.16801343444E+02  0.32992217838E+02  0.68613917379E+02  0.47000000000E+01 0.  1.
        -11    1    4    4    0    0  0.78270495682E+00  0.54456290909E+02  0.53176745400E+02  0.76117451993E+02  0.00000000000E+00 0.  1.
         11    1    4    4    0    0  0.10101531977E+02 -0.34323016359E+02  0.72843799719E+02  0.81156204678E+02  0.00000000000E+00 0. -1.
<mgrwt>
<rscale>  0 0.11788047E+03</rscale>
<asrwt>0</asrwt>
<pdfrwt beam="1">  1        1 0.45069368E-01 0.12707710E+03</pdfrwt>
<pdfrwt beam="2">  1       -1 0.65090694E-02 0.12707710E+03</pdfrwt>
<totfact> 0.10029235E+04</totfact>
</mgrwt>
</event>
<event>
 8    1  0.8504141E-006  0.1266390E+03  0.7546771E-02  0.1253697E+00
          2   -1    0    0  501    0  0.00000000000E+00  0.00000000000E+00  0.10726640740E+03  0.10726640740E+03  0.00000000000E+00 0. -1.
         -2   -1    0    0    0  501 -0.00000000000E+00 -0.00000000000E+00 -0.10217757726E+03  0.10217757726E+03  0.00000000000E+00 0.  1.
         23    2    1    2    0    0 -0.17597832526E+02 -0.10227057213E+02 -0.11102138591E+01  0.12664388972E+03  0.12499266306E+03 0.  0.
         23    2    1    2    0    0  0.17597832526E+02  0.10227057213E+02  0.61990439926E+01  0.82800094939E+02  0.80019692367E+02 0.  0.
          5    1    3    3  502    0  0.26949716105E+02  0.38716129837E+02  0.27035448690E+02  0.54573174670E+02  0.47000000000E+01 0. -1.
         -5    1    3    3    0  502 -0.44547548631E+02 -0.48943187049E+02 -0.28145662549E+02  0.72070715050E+02  0.47000000000E+01 0. -1.
        -11    1    4    4    0    0  0.50321984027E+01  0.43361516193E+02  0.15225288272E+02  0.46231520744E+02  0.00000000000E+00 0.  1.
         11    1    4    4    0    0  0.12565634123E+02 -0.33134458981E+02 -0.90262442792E+01  0.36568574195E+02  0.00000000000E+00 0. -1.
<mgrwt>
<rscale>  0 0.11379632E+03</rscale>
<asrwt>0</asrwt>
<pdfrwt beam="1">  1        2 0.16502524E-01 0.12663902E+03</pdfrwt>
<pdfrwt beam="2">  1       -2 0.15719627E-01 0.12663902E+03</pdfrwt>
<totfact> 0.10280466E+04</totfact>
</mgrwt>
</event>
<event>
 7    1  0.8504141E-006  0.1438067E+03  0.7546771E-02  0.1222511E+00
         -4   -1    0    0    0  501 -0.00000000000E+00  0.00000000000E+00  0.31505950305E+03  0.31505950305E+03  0.00000000000E+00 0.  1.
          4   -1    0    0  501    0  0.00000000000E+00 -0.00000000000E+00 -0.69182660084E+02  0.69182660084E+02  0.00000000000E+00 0. -1.
         23    2    1    2    0    0 -0.40479365729E+02  0.33174951505E+02  0.86128686931E+01  0.10679924960E+03  0.92697042843E+02 0.  0.
          5    1    1    2  502    0 -0.13213817757E+02 -0.23452671370E+02 -0.60945770665E+01  0.27997618537E+02  0.47000000000E+01 0. -1.
         -5    1    1    2    0  502  0.53693183487E+02 -0.97222801346E+01  0.24335855134E+03  0.24944529499E+03  0.47000000000E+01 0.  1.
        -11    1    3    3    0    0  0.13995011254E+02  0.26365911121E+02  0.34906466548E+02  0.45929108592E+02  0.00000000000E+00 0.  1.
         11    1    3    3    0    0 -0.54474376984E+02  0.68090403838E+01 -0.26293597855E+02  0.60870141012E+02  0.00000000000E+00 0. -1.
<mgrwt>
<rscale>  0 0.13338969E+03</rscale>
<asrwt>0</asrwt>
<pdfrwt beam="2">  1        4 0.10643486E-01 0.14380673E+03</pdfrwt>
<pdfrwt beam="1">  1       -4 0.48470692E-01 0.14380673E+03</pdfrwt>
<totfact> 0.47345511E+02</totfact>
</mgrwt>
</event>
<event>
 8    1  0.8504141E-006  0.1350082E+03  0.7546771E-02  0.1232652E+00
          3   -1    0    0  501    0  0.00000000000E+00  0.00000000000E+00  0.14723392500E+03  0.14723392500E+03  0.00000000000E+00 0. -1.
         -3   -1    0    0    0  501 -0.00000000000E+00 -0.00000000000E+00 -0.10139729584E+03  0.10139729584E+03  0.00000000000E+00 0.  1.
         23    2    1    2    0    0 -0.44074164630E+02  0.25669946060E+02  0.66133205015E+00  0.13500986821E+03  0.12500299611E+03 0.  0.
         23    2    1    2    0    0  0.44074164630E+02 -0.25669946060E+02  0.45175297109E+02  0.11362135263E+03  0.90925937921E+02 0.  0.
          5    1    3    3  502    0  0.14245171937E+02  0.54520671692E+02 -0.28768132805E+02  0.63443865190E+02  0.47000000000E+01 0.  1.
         -5    1    3    3    0  502 -0.58319336567E+02 -0.28850725631E+02  0.29429464855E+02  0.71566003023E+02  0.47000000000E+01 0.  1.
        -11    1    4    4    0    0  0.20739475760E+01  0.20194617634E+02  0.47218901564E+02  0.51397942613E+02  0.00000000000E+00 0. -1.
         11    1    4    4    0    0  0.42000217054E+02 -0.45864563694E+02 -0.20436044547E+01  0.62223410021E+02  0.00000000000E+00 0.  1.
<mgrwt>
<rscale>  0 0.12655927E+03</rscale>
<asrwt>0</asrwt>
<pdfrwt beam="1">  1        3 0.22651373E-01 0.13500825E+03</pdfrwt>
<pdfrwt beam="2">  1       -3 0.15599584E-01 0.13500825E+03</pdfrwt>
<totfact> 0.14312963E+03</totfact>
</mgrwt>
</event>
<event>
 8    1  0.8504141E-006  0.1368108E+03  0.7546771E-02  0.1227487E+00
          2   -1    0    0  501    0  0.00000000000E+00  0.00000000000E+00  0.18998775477E+03  0.18998775477E+03  0.00000000000E+00 0.  1.
         -2   -1    0    0    0  501 -0.00000000000E+00 -0.00000000000E+00 -0.82712927540E+02  0.82712927540E+02  0.00000000000E+00 0. -1.
         23    2    1    2    0    0  0.87161235603E+00 -0.55603232390E+02  0.77893608325E+02  0.15743126235E+03  0.12499883594E+03 0.  0.
         23    2    1    2    0    0 -0.87161235603E+00  0.55603232390E+02  0.29381218904E+02  0.11526941996E+03  0.96598674903E+02 0.  0.
          5    1    3    3  502    0  0.42605600896E+02 -0.70320375424E+02  0.20612792083E+02  0.84895050650E+02  0.47000000000E+01 0.  1.
         -5    1    3    3    0  502 -0.41733988540E+02  0.14717143034E+02  0.57280816241E+02  0.72536211700E+02  0.47000000000E+01 0.  1.
        -11    1    4    4    0    0  0.40774151790E+02 -0.14798479737E+01  0.10983547771E+02  0.42253517319E+02  0.00000000000E+00 0.  1.
         11    1    4    4    0    0 -0.41645764146E+02  0.57083080363E+02  0.18397671133E+02  0.73015902639E+02  0.00000000000E+00 0. -1.
<mgrwt>
<rscale>  0 0.12997863E+03</rscale>
<asrwt>0</asrwt>
<pdfrwt beam="1">  1        2 0.29228885E-01 0.13681077E+03</pdfrwt>
<pdfrwt beam="2">  1       -2 0.12725066E-01 0.13681077E+03</pdfrwt>
<totfact> 0.76888556E+03</totfact>
</mgrwt>
</event>
<event>
 8    1  0.8504141E-006  0.1752736E+03  0.7546771E-02  0.1177246E+00
          2   -1    0    0  501    0  0.00000000000E+00  0.00000000000E+00  0.70556981786E+02  0.70556981786E+02  0.00000000000E+00 0. -1.
         -2   -1    0    0    0  501 -0.00000000000E+00 -0.00000000000E+00 -0.41906970648E+03  0.41906970648E+03  0.00000000000E+00 0.  1.
         23    2    1    2    0    0  0.12273473864E+03  0.59605977278E+01 -0.24552055705E+03  0.30166400718E+03  0.12498593721E+03 0.  0.
         23    2    1    2    0    0 -0.12273473864E+03 -0.59605977278E+01 -0.10299216764E+03  0.18796268109E+03  0.98098104415E+02 0.  0.
          5    1    3    3  502    0  0.78637408250E+01 -0.43276785602E+02 -0.10270989032E+03  0.11183081043E+03  0.47000000000E+01 0. -1.
         -5    1    3    3    0  502  0.11487099782E+03  0.49237383330E+02 -0.14281066673E+03  0.18983319675E+03  0.47000000000E+01 0. -1.
        -11    1    4    4    0    0 -0.20270936551E+02 -0.42115385029E+02 -0.18281768487E+02  0.50188042239E+02  0.00000000000E+00 0. -1.
         11    1    4    4    0    0 -0.10246380209E+03  0.36154787301E+02 -0.84710399156E+02  0.13777463885E+03  0.00000000000E+00 0.  1.
<mgrwt>
<rscale>  0 0.17057842E+03</rscale>
<asrwt>0</asrwt>
<pdfrwt beam="1">  1        2 0.10854920E-01 0.17527358E+03</pdfrwt>
<pdfrwt beam="2">  1       -2 0.64472264E-01 0.17527358E+03</pdfrwt>
<totfact> 0.12935543E+03</totfact>
</mgrwt>
</event>
<event>
 8    1  0.8504141E-006  0.1310052E+03  0.7546771E-02  0.1238670E+00
         -2   -1    0    0    0  501 -0.00000000000E+00  0.00000000000E+00  0.15705120255E+02  0.15705120255E+02  0.00000000000E+00 0.  1.
          2   -1    0    0  501    0  0.00000000000E+00 -0.00000000000E+00 -0.86662525121E+03  0.86662525121E+03  0.00000000000E+00 0. -1.
         23    2    1    2    0    0 -0.39203511848E+02 -0.16012070183E+00 -0.52842475989E+03  0.54442178624E+03  0.12500165397E+03 0.  0.
         23    2    1    2    0    0  0.39203511848E+02  0.16012070183E+00 -0.32249537107E+03  0.33790858522E+03  0.92962393609E+02 0.  0.
          5    1    3    3  502    0 -0.56974155098E+02  0.20565150076E+02 -0.11492831610E+03  0.12999841379E+03  0.47000000000E+01 0. -1.
         -5    1    3    3    0  502  0.17770643250E+02 -0.20725270778E+02 -0.41349644379E+03  0.41442337245E+03  0.47000000000E+01 0. -1.
        -11    1    4    4    0    0 -0.35356032605E+01  0.32239872088E+02 -0.45925992193E+02  0.56223719208E+02  0.00000000000E+00 0.  1.
         11    1    4    4    0    0  0.42739115109E+02 -0.32079751386E+02 -0.27656937888E+03  0.28168486601E+03  0.00000000000E+00 0. -1.
<mgrwt>
<rscale>  0 0.12272391E+03</rscale>
<asrwt>0</asrwt>
<pdfrwt beam="2">  1        2 0.13332700E+00 0.13100517E+03</pdfrwt>
<pdfrwt beam="1">  1       -2 0.24161717E-02 0.13100517E+03</pdfrwt>
<totfact> 0.17741768E+04</totfact>
</mgrwt>
</event>
<event>
 8    1  0.8504141E-006  0.1270359E+03  0.7546771E-02  0.1247189E+00
         -1   -1    0    0    0  501 -0.00000000000E+00  0.00000000000E+00  0.51897125163E+02  0.51897125163E+02  0.00000000000E+00 0.  1.
          1   -1    0    0  501    0  0.00000000000E+00 -0.00000000000E+00 -0.23449838136E+03  0.23449838136E+03  0.00000000000E+00 0. -1.
         23    2    1    2    0    0 -0.12654052923E+02  0.18784102624E+02 -0.11436787435E+03  0.17093314415E+03  0.12500064607E+03 0.  0.
         23    2    1    2    0    0  0.12654052923E+02 -0.18784102624E+02 -0.68233381844E+02  0.11546236238E+03  0.90348188478E+02 0.  0.
          5    1    3    3  502    0 -0.49059354046E+02  0.50530497984E+02 -0.95746284328E+02  0.11895205929E+03  0.47000000000E+01 0.  1.
         -5    1    3    3    0  502  0.36405301122E+02 -0.31746395360E+02 -0.18621590026E+02  0.51981084860E+02  0.47000000000E+01 0.  1.
        -11    1    4    4    0    0  0.37098964494E+01 -0.37757372028E+02 -0.82014440384E+02  0.90364544516E+02  0.00000000000E+00 0. -1.
         11    1    4    4    0    0  0.89441564739E+01  0.18973269404E+02  0.13781058540E+02  0.25097817861E+02  0.00000000000E+00 0.  1.
<mgrwt>
<rscale>  0 0.11755291E+03</rscale>
<asrwt>0</asrwt>
<pdfrwt beam="2">  1        1 0.36076674E-01 0.12703594E+03</pdfrwt>
<pdfrwt beam="1">  1       -1 0.79841730E-02 0.12703594E+03</pdfrwt>
<totfact> 0.97171288E+03</totfact>
</mgrwt>
</event>
<event>
 8    1  0.8504141E-006  0.1394528E+03  0.7546771E-02  0.1225458E+00
          1   -1    0    0  501    0  0.00000000000E+00  0.00000000000E+00  0.12750363846E+03  0.12750363846E+03  0.00000000000E+00 0. -1.
         -1   -1    0    0    0  501 -0.00000000000E+00 -0.00000000000E+00 -0.12552358417E+03  0.12552358417E+03  0.00000000000E+00 0.  1.
         23    2    1    2    0    0 -0.43000188128E+02 -0.44415782296E+02 -0.20558536842E+02  0.14096003782E+03  0.12500120371E+03 0.  0.
         23    2    1    2    0    0  0.43000188128E+02  0.44415782296E+02  0.22538591130E+02  0.11206718482E+03  0.90715422763E+02 0.  0.
          5    1    3    3  502    0 -0.14277678918E+00 -0.49622242308E+02 -0.62935195476E+02  0.80282726327E+02  0.47000000000E+01 0.  1.
         -5    1    3    3    0  502 -0.42857411339E+02  0.52064600124E+01  0.42376658634E+02  0.60677311489E+02  0.47000000000E+01 0.  1.
        -11    1    4    4    0    0  0.31802645427E+01  0.34043122535E+02  0.51451523940E+02  0.61776270446E+02  0.00000000000E+00 0. -1.
         11    1    4    4    0    0  0.39819923585E+02  0.10372659761E+02 -0.28912932809E+02  0.50290914373E+02  0.00000000000E+00 0.  1.
<mgrwt>
<rscale>  0 0.13135559E+03</rscale>
<asrwt>0</asrwt>
<pdfrwt beam="1">  1        1 0.19615944E-01 0.13945278E+03</pdfrwt>
<pdfrwt beam="2">  1       -1 0.19311321E-01 0.13945278E+03</pdfrwt>
<totfact> 0.53421082E+03</totfact>
</mgrwt>
</event>
<event>
 8    1  0.8504141E-006  0.1312799E+03  0.7546771E-02  0.1238811E+00
         -1   -1    0    0    0  501 -0.00000000000E+00  0.00000000000E+00  0.17974047182E+03  0.17974047182E+03  0.00000000000E+00 0.  1.
          1   -1    0    0  501    0  0.00000000000E+00 -0.00000000000E+00 -0.74865437392E+02  0.74865437392E+02  0.00000000000E+00 0. -1.
         23    2    1    2    0    0  0.31472328616E+02 -0.24883874550E+02  0.69634013271E+02  0.14860456066E+03  0.12499881985E+03 0.  0.
         23    2    1    2    0    0 -0.31472328616E+02  0.24883874550E+02  0.35241021162E+02  0.10600134855E+03  0.91567688850E+02 0.  0.
          5    1    3    3  502    0 -0.21286928934E+02  0.35501177113E+02  0.51532760878E+02  0.66265997039E+02  0.47000000000E+01 0.  1.
         -5    1    3    3    0  502  0.52759257550E+02 -0.60385051663E+02  0.18101252393E+02  0.82338563625E+02  0.47000000000E+01 0.  1.
        -11    1    4    4    0    0 -0.25835902731E+02  0.43339850153E+02 -0.14623769771E+02  0.52532762382E+02  0.00000000000E+00 0. -1.
         11    1    4    4    0    0 -0.56364258850E+01 -0.18455975603E+02  0.49864790933E+02  0.53468586170E+02  0.00000000000E+00 0.  1.
<mgrwt>
<rscale>  0 0.12263604E+03</rscale>
<asrwt>0</asrwt>
<pdfrwt beam="2">  1        1 0.11517760E-01 0.13127993E+03</pdfrwt>
<pdfrwt beam="1">  1       -1 0.27652380E-01 0.13127993E+03</pdfrwt>
<totfact> 0.59039339E+03</totfact>
</mgrwt>
</event>
<event>
 8    1  0.8504141E-006  0.1290202E+03  0.7546771E-02  0.1236454E+00
         -1   -1    0    0    0  501 -0.00000000000E+00  0.00000000000E+00  0.56722768506E+03  0.56722768506E+03  0.00000000000E+00 0.  1.
          1   -1    0    0  501    0  0.00000000000E+00 -0.00000000000E+00 -0.29342360893E+02  0.29342360893E+02  0.00000000000E+00 0. -1.
         23    2    1    2    0    0 -0.31914350956E+02  0.16737734631E+01  0.39748556496E+03  0.41790068866E+03  0.12499953567E+03 0.  0.
         23    2    1    2    0    0  0.31914350956E+02 -0.16737734631E+01  0.14039975920E+03  0.17866935729E+03  0.10577957995E+03 0.  0.
          5    1    3    3  502    0  0.70040763963E+01 -0.46813703810E+02  0.28802891634E+03  0.29193034546E+03  0.47000000000E+01 0. -1.
         -5    1    3    3    0  502 -0.38918427352E+02  0.48487477273E+02  0.10945664862E+03  0.12597034320E+03  0.47000000000E+01 0. -1.
        -11    1    4    4    0    0 -0.30835380757E+02 -0.12871787016E+02  0.12334184512E+02  0.35617912839E+02  0.00000000000E+00 0.  1.
         11    1    4    4    0    0  0.62749731714E+02  0.11198013553E+02  0.12806557469E+03  0.14305144445E+03  0.00000000000E+00 0. -1.
<mgrwt>
<rscale>  0 0.12411824E+03</rscale>
<asrwt>0</asrwt>
<pdfrwt beam="2">  1        1 0.45142098E-02 0.12902020E+03</pdfrwt>
<pdfrwt beam="1">  1       -1 0.87265790E-01 0.12902020E+03</pdfrwt>
<totfact> 0.25132670E+03</totfact>
</mgrwt>
</event>
<event>
 8    1  0.8504141E-006  0.1269503E+03  0.7546771E-02  0.1266170E+00
          2   -1    0    0  501    0  0.00000000000E+00  0.00000000000E+00  0.86250319565E+02  0.86250319565E+02  0.00000000000E+00 0. -1.
         -2   -1    0    0    0  501 -0.00000000000E+00 -0.00000000000E+00 -0.10958559880E+03  0.10958559880E+03  0.00000000000E+00 0.  1.
         23    2    1    2    0    0  0.74899103167E+01  0.20872757306E+02 -0.32500580505E+02  0.13104449716E+03  0.12499840699E+03 0.  0.
         23    2    1    2    0    0 -0.74899103167E+01 -0.20872757306E+02  0.91653012695E+01  0.64791421205E+02  0.60184339826E+02 0.  0.
          5    1    3    3  502    0  0.64000051173E+02 -0.20938337623E+01 -0.26883593940E+02  0.69607530578E+02  0.47000000000E+01 0. -1.
         -5    1    3    3    0  502 -0.56510140856E+02  0.22966591069E+02 -0.56169865645E+01  0.61436966583E+02  0.47000000000E+01 0. -1.
        -11    1    4    4    0    0 -0.11583324980E+02  0.85992167196E+01 -0.18975738697E+02  0.23836916850E+02  0.00000000000E+00 0.  1.
         11    1    4    4    0    0  0.40934146638E+01 -0.29471974026E+02  0.28141039967E+02  0.40954504355E+02  0.00000000000E+00 0. -1.
<mgrwt>
<rscale>  0 0.10703043E+03</rscale>
<asrwt>0</asrwt>
<pdfrwt beam="1">  1        2 0.13269280E-01 0.12695028E+03</pdfrwt>
<pdfrwt beam="2">  1       -2 0.16859323E-01 0.12695028E+03</pdfrwt>
<totfact> 0.11827201E+04</totfact>
</mgrwt>
</event>
<event>
 8    1  0.8504141E-006  0.1289717E+03  0.7546771E-02  0.1242777E+00
          1   -1    0    0  501    0  0.00000000000E+00  0.00000000000E+00  0.20601626318E+03  0.20601626318E+03  0.00000000000E+00 0. -1.
         -1   -1    0    0    0  501 -0.00000000000E+00 -0.00000000000E+00 -0.81554242146E+02  0.81554242146E+02  0.00000000000E+00 0.  1.
         23    2    1    2    0    0  0.16430888174E+02  0.27140619574E+02 -0.79107731517E+00  0.12897413156E+03  0.12500845368E+03 0.  0.
         23    2    1    2    0    0 -0.16430888174E+02 -0.27140619574E+02  0.12525309835E+03  0.15859637376E+03  0.91966753820E+02 0.  0.
          5    1    3    3  502    0  0.29881569155E+01 -0.47840564833E+02  0.16142113626E+02  0.50796717981E+02  0.47000000000E+01 0. -1.
         -5    1    3    3    0  502  0.13442731258E+02  0.74981184407E+02 -0.16933190941E+02  0.78177413581E+02  0.47000000000E+01 0. -1.
        -11    1    4    4    0    0  0.24737280518E+02 -0.39201299015E+02  0.96200557744E+02  0.10678587080E+03  0.00000000000E+00 0. -1.
         11    1    4    4    0    0 -0.41168168691E+02  0.12060679441E+02  0.29052540605E+02  0.51810502966E+02  0.00000000000E+00 0.  1.
<mgrwt>
<rscale>  0 0.12019402E+03</rscale>
<asrwt>0</asrwt>
<pdfrwt beam="1">  1        1 0.31694809E-01 0.12897171E+03</pdfrwt>
<pdfrwt beam="2">  1       -1 0.12546807E-01 0.12897171E+03</pdfrwt>
<totfact> 0.57323679E+03</totfact>
</mgrwt>
</event>
<event>
 8    1  0.8504141E-006  0.1295243E+03  0.7546771E-02  0.1242147E+00
          1   -1    0    0  501    0  0.00000000000E+00  0.00000000000E+00  0.74884352191E+03  0.74884352191E+03  0.00000000000E+00 0. -1.
         -1   -1    0    0    0  501 -0.00000000000E+00 -0.00000000000E+00 -0.17779828607E+02  0.17779828607E+02  0.00000000000E+00 0.  1.
         23    2    1    2    0    0  0.13401526037E+01 -0.33909666655E+02  0.34559977061E+03  0.36907418474E+03  0.12499956357E+03 0.  0.
         23    2    1    2    0    0 -0.13401526037E+01  0.33909666655E+02  0.38546392269E+03  0.39754916578E+03  0.91166013470E+02 0.  0.
          5    1    3    3  502    0 -0.39498388500E+02  0.30678899747E+02  0.17531780880E+03  0.18237253540E+03  0.47000000000E+01 0.  1.
         -5    1    3    3    0  502  0.40838541104E+02 -0.64588566402E+02  0.17028196181E+03  0.18670164934E+03  0.47000000000E+01 0.  1.
        -11    1    4    4    0    0  0.29915735307E+02  0.52185645480E+02  0.26613529320E+03  0.27284846912E+03  0.00000000000E+00 0.  1.
         11    1    4    4    0    0 -0.31255887911E+02 -0.18275978825E+02  0.11932862949E+03  0.12470069666E+03  0.00000000000E+00 0. -1.
<mgrwt>
<rscale>  0 0.12057758E+03</rscale>
<asrwt>0</asrwt>
<pdfrwt beam="1">  1        1 0.11520667E+00 0.12952433E+03</pdfrwt>
<pdfrwt beam="2">  1       -1 0.27353588E-02 0.12952433E+03</pdfrwt>
<totfact> 0.10531777E+04</totfact>
</mgrwt>
</event>
<event>
 8    1  0.8504141E-006  0.1350909E+03  0.7546771E-02  0.1233203E+00
         -2   -1    0    0    0  501 -0.00000000000E+00  0.00000000000E+00  0.13843221535E+03  0.13843221535E+03  0.00000000000E+00 0.  1.
          2   -1    0    0  501    0  0.00000000000E+00 -0.00000000000E+00 -0.12853495459E+03  0.12853495459E+03  0.00000000000E+00 0. -1.
         23    2    1    2    0    0  0.50872546739E+02  0.58977121540E+01  0.65368099217E+02  0.15007508796E+03  0.12500697825E+03 0.  0.
         23    2    1    2    0    0 -0.50872546739E+02 -0.58977121540E+01 -0.55470838455E+02  0.11689208198E+03  0.89240942903E+02 0.  0.
          5    1    3    3  502    0  0.91890488395E+02  0.70739972626E+01  0.34534605940E+02  0.98532392147E+02  0.47000000000E+01 0.  1.
         -5    1    3    3    0  502 -0.41017941656E+02 -0.11762851085E+01  0.30833493277E+02  0.51542695816E+02  0.47000000000E+01 0.  1.
        -11    1    4    4    0    0 -0.75574721164E+02  0.49443073307E+01 -0.43889295966E+02  0.87534307299E+02  0.00000000000E+00 0. -1.
         11    1    4    4    0    0  0.24702174424E+02 -0.10842019485E+02 -0.11581542489E+02  0.29357774681E+02  0.00000000000E+00 0.  1.
<mgrwt>
<rscale>  0 0.12620158E+03</rscale>
<asrwt>0</asrwt>
<pdfrwt beam="2">  1        2 0.19774608E-01 0.13509087E+03</pdfrwt>
<pdfrwt beam="1">  1       -2 0.21297264E-01 0.13509087E+03</pdfrwt>
<totfact> 0.50561080E+03</totfact>
</mgrwt>
</event>
<event>
 8    1  0.8504141E-006  0.1447199E+03  0.7546771E-02  0.1216731E+00
         -1   -1    0    0    0  501 -0.00000000000E+00  0.00000000000E+00  0.15709562867E+04  0.15709562867E+04  0.00000000000E+00 0.  1.
          1   -1    0    0  501    0  0.00000000000E+00 -0.00000000000E+00 -0.12675392659E+02  0.12675392659E+02  0.00000000000E+00 0. -1.
         23    2    1    2    0    0 -0.72928582867E+02  0.16090723051E+00  0.11363591379E+04  0.11455373995E+04  0.12500095735E+03 0.  0.
         23    2    1    2    0    0  0.72928582867E+02 -0.16090723051E+00  0.42192175612E+03  0.43809427981E+03  0.92682391126E+02 0.  0.
          5    1    3    3  502    0 -0.97705146751E+02 -0.15489508525E+01  0.10710328978E+04  0.10754916332E+04  0.47000000000E+01 0.  1.
         -5    1    3    3    0  502  0.24776563884E+02  0.17098580830E+01  0.65326240107E+02  0.70045766318E+02  0.47000000000E+01 0.  1.
        -11    1    4    4    0    0  0.22050838258E+02 -0.43125699116E+02  0.22703847976E+03  0.23214766138E+03  0.00000000000E+00 0.  1.
         11    1    4    4    0    0  0.50877744609E+02  0.42964791885E+02  0.19488327636E+03  0.20594661843E+03  0.00000000000E+00 0. -1.
<mgrwt>
<rscale>  0 0.13750126E+03</rscale>
<asrwt>0</asrwt>
<pdfrwt beam="2">  1        1 0.19500616E-02 0.14471988E+03</pdfrwt>
<pdfrwt beam="1">  1       -1 0.24168543E+00 0.14471988E+03</pdfrwt>
<totfact> 0.55710850E+02</totfact>
</mgrwt>
</event>
<event>
 7    1  0.8504141E-006  0.4984857E+03  0.7546771E-02  0.1015045E+00
         -2   -1    0    0    0  501 -0.00000000000E+00  0.00000000000E+00  0.21274224768E+03  0.21274224768E+03  0.00000000000E+00 0.  1.
          2   -1    0    0  501    0  0.00000000000E+00 -0.00000000000E+00 -0.13346562836E+04  0.13346562836E+04  0.00000000000E+00 0. -1.
         23    2    1    2    0    0  0.14215893973E+01 -0.47693778533E+03 -0.85190651668E+03  0.98048401138E+03  0.90180438068E+02 0.  0.
          5    1    1    2  502    0  0.47338988790E+02  0.24588392414E+03 -0.20019178350E+03  0.32062240126E+03  0.47000000000E+01 0. -1.
         -5    1    1    2    0  502 -0.48760578188E+02  0.23105386119E+03 -0.69815735762E+02  0.24629211867E+03  0.47000000000E+01 0.  1.
        -11    1    3    3    0    0  0.99675029068E+01 -0.46681086419E+02 -0.43077994290E+02  0.64297655754E+02  0.00000000000E+00 0.  1.
         11    1    3    3    0    0 -0.85459135095E+01 -0.43025669891E+03 -0.80882852239E+03  0.91618635562E+03  0.00000000000E+00 0. -1.
<mgrwt>
<rscale>  0 0.49517922E+03</rscale>
<asrwt>0</asrwt>
<pdfrwt beam="2">  1        2 0.20533173E+00 0.49848572E+03</pdfrwt>
<pdfrwt beam="1">  1       -2 0.32729577E-01 0.49848572E+03</pdfrwt>
<totfact> 0.14271630E+02</totfact>
</mgrwt>
</event>
<event>
 8    1  0.8504141E-006  0.1359086E+03  0.7546771E-02  0.1230572E+00
          2   -1    0    0  501    0  0.00000000000E+00  0.00000000000E+00  0.40577985880E+02  0.40577985880E+02  0.00000000000E+00 0. -1.
         -2   -1    0    0    0  501 -0.00000000000E+00 -0.00000000000E+00 -0.41592822218E+03  0.41592822218E+03  0.00000000000E+00 0.  1.
         23    2    1    2    0    0 -0.13017658414E+02 -0.51735115350E+02 -0.28864865438E+03  0.31904418924E+03  0.12500066968E+03 0.  0.
         23    2    1    2    0    0  0.13017658414E+02  0.51735115350E+02 -0.86701581922E+02  0.13746201882E+03  0.92372402373E+02 0.  0.
          5    1    3    3  502    0  0.42087103579E+02 -0.51447930214E+02 -0.22531359369E+03  0.23496067609E+03  0.47000000000E+01 0.  1.
         -5    1    3    3    0  502 -0.55104761993E+02 -0.28718513635E+00 -0.63335060693E+02  0.84083513144E+02  0.47000000000E+01 0.  1.
        -11    1    4    4    0    0 -0.36658298803E+01  0.49835434700E+02 -0.10273634747E+03  0.11424432569E+03  0.00000000000E+00 0.  1.
         11    1    4    4    0    0  0.16683488294E+02  0.18996806504E+01  0.16034765549E+02  0.23217693134E+02  0.00000000000E+00 0. -1.
<mgrwt>
<rscale>  0 0.12792238E+03</rscale>
<asrwt>0</asrwt>
<pdfrwt beam="1">  1        2 0.62427669E-02 0.13590861E+03</pdfrwt>
<pdfrwt beam="2">  1       -2 0.63988959E-01 0.13590861E+03</pdfrwt>
<totfact> 0.25985849E+03</totfact>
</mgrwt>
</event>
<event>
 8    1  0.8504141E-006  0.1336191E+03  0.7546771E-02  0.1234130E+00
         -1   -1    0    0    0  501 -0.00000000000E+00  0.00000000000E+00  0.81039592546E+02  0.81039592546E+02  0.00000000000E+00 0.  1.
          1   -1    0    0  501    0  0.00000000000E+00 -0.00000000000E+00 -0.18820750650E+03  0.18820750650E+03  0.00000000000E+00 0. -1.
         23    2    1    2    0    0  0.49486629280E+01  0.46950623946E+02 -0.95568693923E+02  0.16427851266E+03  0.12500081643E+03 0.  0.
         23    2    1    2    0    0 -0.49486629280E+01 -0.46950623946E+02 -0.11599220026E+02  0.10496858638E+03  0.93032316260E+02 0.  0.
          5    1    3    3  502    0  0.44687701614E+02  0.72412897776E+02 -0.51737548431E+02  0.99696952599E+02  0.47000000000E+01 0.  1.
         -5    1    3    3    0  502 -0.39739038686E+02 -0.25462273831E+02 -0.43831145491E+02  0.64581560057E+02  0.47000000000E+01 0.  1.
        -11    1    4    4    0    0  0.22710698443E+02 -0.34518271266E+02  0.31719391322E+02  0.52090370135E+02  0.00000000000E+00 0.  1.
         11    1    4    4    0    0 -0.27659361371E+02 -0.12432352680E+02 -0.43318611349E+02  0.52878216250E+02  0.00000000000E+00 0. -1.
<mgrwt>
<rscale>  0 0.12560277E+03</rscale>
<asrwt>0</asrwt>
<pdfrwt beam="2">  1        1 0.28955001E-01 0.13361906E+03</pdfrwt>
<pdfrwt beam="1">  1       -1 0.12467630E-01 0.13361906E+03</pdfrwt>
<totfact> 0.64921207E+03</totfact>
</mgrwt>
</event>
<event>
 8    1  0.8504141E-006  0.1297276E+03  0.7546771E-02  0.1246117E+00
          4   -1    0    0  501    0  0.00000000000E+00  0.00000000000E+00  0.94356296984E+02  0.94356296984E+02  0.00000000000E+00 0. -1.
         -4   -1    0    0    0  501 -0.00000000000E+00 -0.00000000000E+00 -0.13334519976E+03  0.13334519976E+03  0.00000000000E+00 0.  1.
         23    2    1    2    0    0  0.22811054080E+02 -0.26232597253E+02 -0.46985021055E+02  0.13797402461E+03  0.12498298251E+03 0.  0.
         23    2    1    2    0    0 -0.22811054080E+02  0.26232597253E+02  0.79961182823E+01  0.89727472129E+02  0.82332180830E+02 0.  0.
          5    1    3    3  502    0  0.31974040303E+02 -0.23459814639E+02 -0.87444878459E+02  0.96132195049E+02  0.47000000000E+01 0.  1.
         -5    1    3    3    0  502 -0.91629862227E+01 -0.27727826136E+01  0.40459857404E+02  0.41841829562E+02  0.47000000000E+01 0.  1.
        -11    1    4    4    0    0 -0.53023414325E+02  0.77356564863E+01  0.86369178496E+00  0.53591686029E+02  0.00000000000E+00 0.  1.
         11    1    4    4    0    0  0.30212360245E+02  0.18496940767E+02  0.71324264973E+01  0.36135786100E+02  0.00000000000E+00 0. -1.
<mgrwt>
<rscale>  0 0.11818781E+03</rscale>
<asrwt>0</asrwt>
<pdfrwt beam="1">  1        4 0.14516353E-01 0.12972756E+03</pdfrwt>
<pdfrwt beam="2">  1       -4 0.20514646E-01 0.12972756E+03</pdfrwt>
<totfact> 0.14026653E+03</totfact>
</mgrwt>
</event>
<event>
 8    1  0.8504141E-006  0.1259903E+03  0.7546771E-02  0.1248834E+00
          2   -1    0    0  501    0  0.00000000000E+00  0.00000000000E+00  0.11182130116E+03  0.11182130116E+03  0.00000000000E+00 0.  1.
         -2   -1    0    0    0  501 -0.00000000000E+00 -0.00000000000E+00 -0.14562262030E+03  0.14562262030E+03  0.00000000000E+00 0. -1.
         23    2    1    2    0    0  0.53791590135E+01  0.14882964189E+02 -0.84844236527E+02  0.15189502496E+03  0.12499246442E+03 0.  0.
         23    2    1    2    0    0 -0.53791590135E+01 -0.14882964189E+02  0.51042917384E+02  0.10554889649E+03  0.91020613932E+02 0.  0.
          5    1    3    3  502    0  0.82145655546E+01 -0.11517052081E+02  0.30229050950E+02  0.33704704378E+02  0.47000000000E+01 0.  1.
         -5    1    3    3    0  502 -0.28354065411E+01  0.26400016270E+02 -0.11507328748E+03  0.11819032059E+03  0.47000000000E+01 0.  1.
        -11    1    4    4    0    0  0.14613230126E+02  0.18604916751E+02  0.60889035178E+02  0.65323533485E+02  0.00000000000E+00 0.  1.
         11    1    4    4    0    0 -0.19992389139E+02 -0.33487880940E+02 -0.98461177939E+01  0.40225363006E+02  0.00000000000E+00 0. -1.
<mgrwt>
<rscale>  0 0.11658816E+03</rscale>
<asrwt>0</asrwt>
<pdfrwt beam="1">  1        2 0.17203277E-01 0.12599029E+03</pdfrwt>
<pdfrwt beam="2">  1       -2 0.22403480E-01 0.12599029E+03</pdfrwt>
<totfact> 0.54092783E+03</totfact>
</mgrwt>
</event>
<event>
 8    1  0.8504141E-006  0.1280966E+03  0.7546771E-02  0.1243719E+00
          2   -1    0    0  501    0  0.00000000000E+00  0.00000000000E+00  0.23225557641E+03  0.23225557641E+03  0.00000000000E+00 0. -1.
         -2   -1    0    0    0  501 -0.00000000000E+00 -0.00000000000E+00 -0.54965987139E+02  0.54965987139E+02  0.00000000000E+00 0.  1.
         23    2    1    2    0    0  0.46906311808E+01 -0.27595311513E+02  0.10969411054E+03  0.16864621007E+03  0.12500097218E+03 0.  0.
         23    2    1    2    0    0 -0.46906311808E+01  0.27595311513E+02  0.67595478730E+02  0.11857535348E+03  0.93313784990E+02 0.  0.
          5    1    3    3  502    0  0.57299373855E+02 -0.16787642409E+02  0.95784398525E+02  0.11296806709E+03  0.47000000000E+01 0. -1.
         -5    1    3    3    0  502 -0.52608742674E+02 -0.10807669104E+02  0.13909712017E+02  0.55678142979E+02  0.47000000000E+01 0. -1.
        -11    1    4    4    0    0 -0.13280506610E+02  0.39685815034E+02  0.85579994434E+02  0.95264217932E+02  0.00000000000E+00 0. -1.
         11    1    4    4    0    0  0.85898754291E+01 -0.12090503521E+02 -0.17984515705E+02  0.23311135545E+02  0.00000000000E+00 0.  1.
<mgrwt>
<rscale>  0 0.11962366E+03</rscale>
<asrwt>0</asrwt>
<pdfrwt beam="1">  1        2 0.35731627E-01 0.12809663E+03</pdfrwt>
<pdfrwt beam="2">  1       -2 0.84563058E-02 0.12809663E+03</pdfrwt>
<totfact> 0.11733781E+04</totfact>
</mgrwt>
</event>
<event>
 8    1  0.8504141E-006  0.1951430E+03  0.7546771E-02  0.1158580E+00
         -3   -1    0    0    0  501 -0.00000000000E+00  0.00000000000E+00  0.10888482874E+04  0.10888482874E+04  0.00000000000E+00 0.  1.
          3   -1    0    0  501    0  0.00000000000E+00 -0.00000000000E+00 -0.36283909938E+02  0.36283909938E+02  0.00000000000E+00 0. -1.
         23    2    1    2    0    0  0.80695460978E+02 -0.12627145609E+03  0.75659461301E+03  0.78135534770E+03  0.12499813155E+03 0.  0.
         23    2    1    2    0    0 -0.80695460978E+02  0.12627145609E+03  0.29596976442E+03  0.34377684961E+03  0.90156435325E+02 0.  0.
          5    1    3    3  502    0  0.27134824096E+01 -0.57012797652E+02  0.51490262301E+03  0.51807781584E+03  0.47000000000E+01 0.  1.
         -5    1    3    3    0  502  0.77981978568E+02 -0.69258658441E+02  0.24169199000E+03  0.26327753186E+03  0.47000000000E+01 0.  1.
        -11    1    4    4    0    0 -0.43311366795E+02  0.80038053108E+00  0.86877085709E+02  0.97078025958E+02  0.00000000000E+00 0.  1.
         11    1    4    4    0    0 -0.37384094183E+02  0.12547107556E+03  0.20909267871E+03  0.24669882365E+03  0.00000000000E+00 0. -1.
<mgrwt>
<rscale>  0 0.18986818E+03</rscale>
<asrwt>0</asrwt>
<pdfrwt beam="2">  1        3 0.55821408E-02 0.19514295E+03</pdfrwt>
<pdfrwt beam="1">  1       -3 0.16751510E+00 0.19514295E+03</pdfrwt>
<totfact> 0.12030345E+02</totfact>
</mgrwt>
</event>
<event>
 8    1  0.8504141E-006  0.1778288E+03  0.7546771E-02  0.1175747E+00
         -1   -1    0    0    0  501 -0.00000000000E+00  0.00000000000E+00  0.98294288802E+02  0.98294288802E+02  0.00000000000E+00 0.  1.
          1   -1    0    0  501    0  0.00000000000E+00 -0.00000000000E+00 -0.28426166368E+03  0.28426166368E+03  0.00000000000E+00 0. -1.
         23    2    1    2    0    0  0.76705882131E+02  0.10057064122E+03 -0.86431685399E+02  0.19772085373E+03  0.12499941413E+03 0.  0.
         23    2    1    2    0    0 -0.76705882131E+02 -0.10057064122E+03 -0.99535689477E+02  0.18483509875E+03  0.90875816481E+02 0.  0.
          5    1    3    3  502    0  0.49914267431E+02  0.12487961904E+03 -0.88698436023E+02  0.16117026989E+03  0.47000000000E+01 0. -1.
         -5    1    3    3    0  502  0.26791614700E+02 -0.24308977819E+02  0.22667506243E+01  0.36550583842E+02  0.47000000000E+01 0. -1.
        -11    1    4    4    0    0 -0.62224336619E+02 -0.52113266235E+02 -0.97005890818E+01  0.81742045569E+02  0.00000000000E+00 0.  1.
         11    1    4    4    0    0 -0.14481545512E+02 -0.48457374981E+02 -0.89835100396E+02  0.10309305318E+03  0.00000000000E+00 0. -1.
<mgrwt>
<rscale>  0 0.17203053E+03</rscale>
<asrwt>0</asrwt>
<pdfrwt beam="2">  1        1 0.43732564E-01 0.17782885E+03</pdfrwt>
<pdfrwt beam="1">  1       -1 0.15122198E-01 0.17782885E+03</pdfrwt>
<totfact> 0.29193160E+03</totfact>
</mgrwt>
</event>
<event>
 8    1  0.8504141E-006  0.1888025E+03  0.7546771E-02  0.1164916E+00
         -1   -1    0    0    0  501 -0.00000000000E+00  0.00000000000E+00  0.24520565785E+02  0.24520565785E+02  0.00000000000E+00 0.  1.
          1   -1    0    0  501    0  0.00000000000E+00 -0.00000000000E+00 -0.13484255493E+04  0.13484255493E+04  0.00000000000E+00 0. -1.
         23    2    1    2    0    0 -0.23158977581E+02  0.13959245198E+03 -0.84570718353E+03  0.86652583011E+03  0.12499593224E+03 0.  0.
         23    2    1    2    0    0  0.23158977581E+02 -0.13959245198E+03 -0.47819780001E+03  0.50642028501E+03  0.88124787858E+02 0.  0.
          5    1    3    3  502    0  0.35432540855E+01  0.76988775544E+02 -0.16239860826E+03  0.17981997713E+03  0.47000000000E+01 0.  1.
         -5    1    3    3    0  502 -0.26702231667E+02  0.62603676439E+02 -0.68330857527E+03  0.68670585298E+03  0.47000000000E+01 0.  1.
        -11    1    4    4    0    0  0.72364609694E+01 -0.25432579620E+02 -0.17951645643E+02  0.31960038404E+02  0.00000000000E+00 0.  1.
         11    1    4    4    0    0  0.15922516612E+02 -0.11415987236E+03 -0.46024615437E+03  0.47446024660E+03  0.00000000000E+00 0. -1.
<mgrwt>
<rscale>  0 0.18301582E+03</rscale>
<asrwt>0</asrwt>
<pdfrwt beam="2">  1        1 0.20745014E+00 0.18880247E+03</pdfrwt>
<pdfrwt beam="1">  1       -1 0.37723937E-02 0.18880247E+03</pdfrwt>
<totfact> 0.24215660E+03</totfact>
</mgrwt>
</event>
<event>
 8    1  0.8504141E-006  0.1303240E+03  0.7546771E-02  0.1240608E+00
          3   -1    0    0  501    0  0.00000000000E+00  0.00000000000E+00  0.77932101021E+02  0.77932101021E+02  0.00000000000E+00 0. -1.
         -3   -1    0    0    0  501 -0.00000000000E+00 -0.00000000000E+00 -0.17059852828E+03  0.17059852828E+03  0.00000000000E+00 0.  1.
         23    2    1    2    0    0 -0.35972366036E+02  0.80887396216E+01 -0.67854666056E+02  0.14693055406E+03  0.12499957273E+03 0.  0.
         23    2    1    2    0    0  0.35972366036E+02 -0.80887396216E+01 -0.24811761202E+02  0.10160007524E+03  0.91364724965E+02 0.  0.
          5    1    3    3  502    0 -0.24600363660E+02 -0.19933334317E+02  0.30323884144E+02  0.44092444464E+02  0.47000000000E+01 0.  1.
         -5    1    3    3    0  502 -0.11372002377E+02  0.28022073938E+02 -0.98178550200E+02  0.10283810960E+03  0.47000000000E+01 0.  1.
        -11    1    4    4    0    0  0.48867025332E+02 -0.11790214883E+02 -0.51352490897E+02  0.71861489360E+02  0.00000000000E+00 0.  1.
         11    1    4    4    0    0 -0.12894659295E+02  0.37014752613E+01  0.26540729695E+02  0.29738585880E+02  0.00000000000E+00 0. -1.
<mgrwt>
<rscale>  0 0.12152162E+03</rscale>
<asrwt>0</asrwt>
<pdfrwt beam="1">  1        3 0.11989554E-01 0.13032395E+03</pdfrwt>
<pdfrwt beam="2">  1       -3 0.26245927E-01 0.13032395E+03</pdfrwt>
<totfact> 0.17049985E+03</totfact>
</mgrwt>
</event>
<event>
 8    1  0.8504141E-006  0.1357163E+03  0.7546771E-02  0.1231277E+00
          3   -1    0    0  501    0  0.00000000000E+00  0.00000000000E+00  0.68296784585E+03  0.68296784585E+03  0.00000000000E+00 0. -1.
         -3   -1    0    0    0  501 -0.00000000000E+00 -0.00000000000E+00 -0.21580514794E+02  0.21580514794E+02  0.00000000000E+00 0.  1.
         23    2    1    2    0    0 -0.31444032563E+02  0.42493834574E+02  0.33251692378E+03  0.35914679778E+03  0.12499785836E+03 0.  0.
         23    2    1    2    0    0  0.31444032563E+02 -0.42493834574E+02  0.32887040728E+03  0.34540156287E+03  0.91389505349E+02 0.  0.
          5    1    3    3  502    0 -0.19529516716E+02  0.74235313495E+02  0.30691379071E+03  0.31640235258E+03  0.47000000000E+01 0. -1.
         -5    1    3    3    0  502 -0.11914515847E+02 -0.31741478921E+02  0.25603133071E+02  0.42744445195E+02  0.47000000000E+01 0. -1.
        -11    1    4    4    0    0  0.91542548944E+01  0.28004238458E+02  0.12823353336E+03  0.13157460558E+03  0.00000000000E+00 0.  1.
         11    1    4    4    0    0  0.22289777668E+02 -0.70498073031E+02  0.20063687392E+03  0.21382695729E+03  0.00000000000E+00 0. -1.
<mgrwt>
<rscale>  0 0.12745777E+03</rscale>
<asrwt>0</asrwt>
<pdfrwt beam="1">  1        3 0.10507196E+00 0.13571631E+03</pdfrwt>
<pdfrwt beam="2">  1       -3 0.33200797E-02 0.13571631E+03</pdfrwt>
<totfact> 0.81405585E+02</totfact>
</mgrwt>
</event>
<event>
 7    1  0.8504141E-006  0.2945978E+03  0.7546771E-02  0.1087973E+00
          1   -1    0    0  501    0  0.00000000000E+00  0.00000000000E+00  0.27263319718E+02  0.27263319718E+02  0.00000000000E+00 0. -1.
         -1   -1    0    0    0  501 -0.00000000000E+00 -0.00000000000E+00 -0.79582993467E+03  0.79582993467E+03  0.00000000000E+00 0.  1.
         23    2    1    2    0    0 -0.33344626742E+02 -0.14911615861E+02 -0.20941180544E+03  0.23165260093E+03  0.92061951089E+02 0.  0.
          5    1    1    2  502    0 -0.77593666309E+02 -0.10910739345E+02 -0.21366120986E+03  0.22762474357E+03  0.47000000000E+01 0. -1.
         -5    1    1    2    0  502  0.11093829305E+03  0.25822355206E+02 -0.34549359965E+03  0.36381590989E+03  0.47000000000E+01 0.  1.
        -11    1    3    3    0    0 -0.60292219493E+02 -0.30858678860E+02 -0.14287022282E+03  0.15811170216E+03  0.00000000000E+00 0.  1.
         11    1    3    3    0    0  0.26947592750E+02  0.15947062999E+02 -0.66541582628E+02  0.73540898771E+02  0.00000000000E+00 0. -1.
<mgrwt>
<rscale>  0 0.29459780E+03</rscale>
<asrwt>0</asrwt>
<pdfrwt beam="1">  1        1 0.41943564E-02 0.29459780E+03</pdfrwt>
<pdfrwt beam="2">  1       -1 0.12243539E+00 0.29459780E+03</pdfrwt>
<totfact> 0.13422347E+03</totfact>
</mgrwt>
</event>
<event>
 8    1  0.8504141E-006  0.1603047E+03  0.7546771E-02  0.1195225E+00
          2   -1    0    0  501    0  0.00000000000E+00  0.00000000000E+00  0.28480228108E+03  0.28480228108E+03  0.00000000000E+00 0. -1.
         -2   -1    0    0    0  501 -0.00000000000E+00 -0.00000000000E+00 -0.78011280419E+02  0.78011280419E+02  0.00000000000E+00 0.  1.
         23    2    1    2    0    0 -0.40665131471E+02  0.91747634891E+02  0.10916414117E+03  0.19394436570E+03  0.12500530326E+03 0.  0.
         23    2    1    2    0    0  0.40665131471E+02 -0.91747634891E+02  0.97626859486E+02  0.16886919580E+03  0.94416736706E+02 0.  0.
          5    1    3    3  502    0 -0.81326905020E+02  0.73783615816E+02  0.99396822529E+02  0.14818875049E+03  0.47000000000E+01 0.  1.
         -5    1    3    3    0  502  0.40661773550E+02  0.17964019074E+02  0.97673186411E+01  0.45755615207E+02  0.47000000000E+01 0.  1.
        -11    1    4    4    0    0  0.44630828070E+01 -0.13089818410E+02 -0.19069716227E+02  0.23556666384E+02  0.00000000000E+00 0.  1.
         11    1    4    4    0    0  0.36202048664E+02 -0.78657816481E+02  0.11669657571E+03  0.14531252941E+03  0.00000000000E+00 0. -1.
<mgrwt>
<rscale>  0 0.15435240E+03</rscale>
<asrwt>0</asrwt>
<pdfrwt beam="1">  1        2 0.43815735E-01 0.16030473E+03</pdfrwt>
<pdfrwt beam="2">  1       -2 0.12001736E-01 0.16030473E+03</pdfrwt>
<totfact> 0.55250849E+03</totfact>
</mgrwt>
</event>
<event>
 8    1  0.8504141E-006  0.1375824E+03  0.7546771E-02  0.1228250E+00
          2   -1    0    0  501    0  0.00000000000E+00  0.00000000000E+00  0.12726049104E+03  0.12726049104E+03  0.00000000000E+00 0. -1.
         -2   -1    0    0    0  501 -0.00000000000E+00 -0.00000000000E+00 -0.25593756166E+03  0.25593756166E+03  0.00000000000E+00 0.  1.
         23    2    1    2    0    0 -0.52059409226E+01  0.57234183153E+02 -0.20793733478E+03  0.24933280215E+03  0.12500422989E+03 0.  0.
         23    2    1    2    0    0  0.52059409226E+01 -0.57234183153E+02  0.79260264163E+02  0.13386525055E+03  0.91295466963E+02 0.  0.
          5    1    3    3  502    0 -0.86828614737E+01  0.82462385150E+02 -0.68918819451E+02  0.10792279983E+03  0.47000000000E+01 0. -1.
         -5    1    3    3    0  502  0.34769205511E+01 -0.25228201998E+02 -0.13901851533E+03  0.14141000232E+03  0.47000000000E+01 0. -1.
        -11    1    4    4    0    0 -0.16145775033E+02 -0.68237160405E+02  0.24859403607E+02  0.74397486915E+02  0.00000000000E+00 0.  1.
         11    1    4    4    0    0  0.21351715955E+02  0.11002977253E+02  0.54400860556E+02  0.59467763636E+02  0.00000000000E+00 0. -1.
<mgrwt>
<rscale>  0 0.12946596E+03</rscale>
<asrwt>0</asrwt>
<pdfrwt beam="1">  1        2 0.19578538E-01 0.13758238E+03</pdfrwt>
<pdfrwt beam="2">  1       -2 0.39375009E-01 0.13758238E+03</pdfrwt>
<totfact> 0.17029842E+03</totfact>
</mgrwt>
</event>
<event>
 8    1  0.8504141E-006  0.1347981E+03  0.7546771E-02  0.1234578E+00
         -2   -1    0    0    0  501 -0.00000000000E+00  0.00000000000E+00  0.11701213907E+03  0.11701213907E+03  0.00000000000E+00 0.  1.
          2   -1    0    0  501    0  0.00000000000E+00 -0.00000000000E+00 -0.11891281391E+03  0.11891281391E+03  0.00000000000E+00 0. -1.
         23    2    1    2    0    0 -0.37249000142E+02 -0.34023433035E+02  0.59958041784E+01  0.13493139420E+03  0.12500179785E+03 0.  0.
         23    2    1    2    0    0  0.37249000142E+02  0.34023433035E+02 -0.78964790252E+01  0.10099355878E+03  0.87133590122E+02 0.  0.
          5    1    3    3  502    0 -0.36446258448E+02 -0.15773158859E+02 -0.56742680064E+02  0.69418614479E+02  0.47000000000E+01 0. -1.
         -5    1    3    3    0  502 -0.80274169360E+00 -0.18250274176E+02  0.62738484243E+02  0.65512779721E+02  0.47000000000E+01 0. -1.
        -11    1    4    4    0    0  0.96281829093E+00  0.53981007257E+02 -0.20430417069E+02  0.57725887652E+02  0.00000000000E+00 0.  1.
         11    1    4    4    0    0  0.36286181851E+02 -0.19957574223E+02  0.12533938044E+02  0.43267671130E+02  0.00000000000E+00 0. -1.
<mgrwt>
<rscale>  0 0.12531509E+03</rscale>
<asrwt>0</asrwt>
<pdfrwt beam="2">  1        2 0.18294279E-01 0.13479811E+03</pdfrwt>
<pdfrwt beam="1">  1       -2 0.18001868E-01 0.13479811E+03</pdfrwt>
<totfact> 0.73344760E+03</totfact>
</mgrwt>
</event>
<event>
 8    1  0.8504141E-006  0.1328187E+03  0.7546771E-02  0.1236092E+00
          2   -1    0    0  501    0  0.00000000000E+00  0.00000000000E+00  0.79247355141E+02  0.79247355141E+02  0.00000000000E+00 0. -1.
         -2   -1    0    0    0  501 -0.00000000000E+00 -0.00000000000E+00 -0.17493890473E+03  0.17493890473E+03  0.00000000000E+00 0.  1.
         23    2    1    2    0    0 -0.12687290932E+02  0.43028735045E+02 -0.63265795549E+02  0.14711681844E+03  0.12501343124E+03 0.  0.
         23    2    1    2    0    0  0.12687290932E+02 -0.43028735045E+02 -0.32425754039E+02  0.10706944143E+03  0.91651494113E+02 0.  0.
          5    1    3    3  502    0  0.16385214643E+02  0.69921607419E+02 -0.76561612539E+02  0.10507748073E+03  0.47000000000E+01 0. -1.
         -5    1    3    3    0  502 -0.29072505575E+02 -0.26892872375E+02  0.13295816990E+02  0.42039337702E+02  0.47000000000E+01 0. -1.
        -11    1    4    4    0    0 -0.33432147623E+02 -0.19997224945E+02 -0.38973560613E+02  0.55104772271E+02  0.00000000000E+00 0.  1.
         11    1    4    4    0    0  0.46119438556E+02 -0.23031510100E+02  0.65478065745E+01  0.51964669162E+02  0.00000000000E+00 0. -1.
<mgrwt>
<rscale>  0 0.12434788E+03</rscale>
<asrwt>0</asrwt>
<pdfrwt beam="1">  1        2 0.12191901E-01 0.13281866E+03</pdfrwt>
<pdfrwt beam="2">  1       -2 0.26913678E-01 0.13281866E+03</pdfrwt>
<totfact> 0.59122279E+03</totfact>
</mgrwt>
</event>
<event>
 8    1  0.8504141E-006  0.2067582E+03  0.7546771E-02  0.1148302E+00
         -3   -1    0    0    0  501 -0.00000000000E+00  0.00000000000E+00  0.65264666351E+02  0.65264666351E+02  0.00000000000E+00 0.  1.
          3   -1    0    0  501    0  0.00000000000E+00 -0.00000000000E+00 -0.59779780431E+03  0.59779780431E+03  0.00000000000E+00 0. -1.
         23    2    1    2    0    0 -0.13984831988E+03  0.86760532215E+02 -0.25601070613E+03  0.32907510594E+03  0.12515590745E+03 0.  0.
         23    2    1    2    0    0  0.13984831988E+03 -0.86760532215E+02 -0.27652243183E+03  0.33398736472E+03  0.89431325426E+02 0.  0.
          5    1    3    3  502    0 -0.11415417818E+03 -0.12712679724E+01 -0.12864254195E+03  0.17205750817E+03  0.47000000000E+01 0. -1.
         -5    1    3    3    0  502 -0.25694141702E+02  0.88031800188E+02 -0.12736816418E+03  0.15701759777E+03  0.47000000000E+01 0. -1.
        -11    1    4    4    0    0 -0.55187359186E+01 -0.31119232466E+02 -0.43898284866E+02  0.54091796879E+02  0.00000000000E+00 0. -1.
         11    1    4    4    0    0  0.14536705580E+03 -0.55641299750E+02 -0.23262414696E+03  0.27989556784E+03  0.00000000000E+00 0.  1.
<mgrwt>
<rscale>  0 0.20171303E+03</rscale>
<asrwt>0</asrwt>
<pdfrwt beam="2">  1        3 0.91968889E-01 0.20675818E+03</pdfrwt>
<pdfrwt beam="1">  1       -3 0.10040718E-01 0.20675818E+03</pdfrwt>
<totfact> 0.19685087E+02</totfact>
</mgrwt>
</event>
<event>
 8    1  0.8504141E-006  0.1450515E+03  0.7546771E-02  0.1213492E+00
          3   -1    0    0  501    0  0.00000000000E+00  0.00000000000E+00  0.17044472048E+03  0.17044472048E+03  0.00000000000E+00 0. -1.
         -3   -1    0    0    0  501 -0.00000000000E+00 -0.00000000000E+00 -0.13927490572E+03  0.13927490572E+03  0.00000000000E+00 0.  1.
         23    2    1    2    0    0  0.72758135653E+02 -0.10857431938E+02 -0.57575219748E+02  0.15606037844E+03  0.12501322193E+03 0.  0.
         23    2    1    2    0    0 -0.72758135653E+02  0.10857431938E+02  0.88745034506E+02  0.15365924776E+03  0.10160636368E+03 0.  0.
          5    1    3    3  502    0  0.29155291107E+02 -0.52792416893E+02 -0.71650846186E+02  0.93771019191E+02  0.47000000000E+01 0. -1.
         -5    1    3    3    0  502  0.43602844546E+02  0.41934984955E+02  0.14075626438E+02  0.62289359246E+02  0.47000000000E+01 0. -1.
        -11    1    4    4    0    0 -0.78315307301E+02 -0.29879888268E+02  0.52944710971E+02  0.99142511066E+02  0.00000000000E+00 0. -1.
         11    1    4    4    0    0  0.55571716482E+01  0.40737320206E+02  0.35800323535E+02  0.54516736691E+02  0.00000000000E+00 0.  1.
<mgrwt>
<rscale>  0 0.13987872E+03</rscale>
<asrwt>0</asrwt>
<pdfrwt beam="1">  1        3 0.26222265E-01 0.14505149E+03</pdfrwt>
<pdfrwt beam="2">  1       -3 0.21426908E-01 0.14505149E+03</pdfrwt>
<totfact> 0.63871354E+02</totfact>
</mgrwt>
</event>
<event>
 8    1  0.8504141E-006  0.1827369E+03  0.7546771E-02  0.1166273E+00
          2   -1    0    0  501    0  0.00000000000E+00  0.00000000000E+00  0.16675054005E+03  0.16675054005E+03  0.00000000000E+00 0. -1.
         -2   -1    0    0    0  501 -0.00000000000E+00 -0.00000000000E+00 -0.19536213460E+03  0.19536213460E+03  0.00000000000E+00 0.  1.
         23    2    1    2    0    0 -0.12976764105E+03 -0.30472568638E+02 -0.17477170989E+02  0.18357078054E+03  0.12499824743E+03 0.  0.
         23    2    1    2    0    0  0.12976764105E+03  0.30472568638E+02 -0.11134423552E+02  0.17854189411E+03  0.11825825325E+03 0.  0.
          5    1    3    3  502    0 -0.76378025463E+02 -0.50899810485E+02 -0.62084505468E+02  0.11090973492E+03  0.47000000000E+01 0.  1.
         -5    1    3    3    0  502 -0.53389615584E+02  0.20427241847E+02  0.44607334480E+02  0.72661045623E+02  0.47000000000E+01 0.  1.
        -11    1    4    4    0    0  0.24911772338E+02  0.27342995386E+02  0.46049303588E+02  0.59065845957E+02  0.00000000000E+00 0. -1.
         11    1    4    4    0    0  0.10485586871E+03  0.31295732525E+01 -0.57183727140E+02  0.11947604815E+03  0.00000000000E+00 0.  1.
<mgrwt>
<rscale>  0 0.18159054E+03</rscale>
<asrwt>0</asrwt>
<pdfrwt beam="1">  1        2 0.25653929E-01 0.18273691E+03</pdfrwt>
<pdfrwt beam="2">  1       -2 0.30055713E-01 0.18273691E+03</pdfrwt>
<totfact> 0.20945118E+03</totfact>
</mgrwt>
</event>
<event>
 8    1  0.8504141E-006  0.1603189E+03  0.7546771E-02  0.1195686E+00
          1   -1    0    0  501    0  0.00000000000E+00  0.00000000000E+00  0.60013223424E+03  0.60013223424E+03  0.00000000000E+00 0. -1.
         -1   -1    0    0    0  501 -0.00000000000E+00 -0.00000000000E+00 -0.37242149870E+02  0.37242149870E+02  0.00000000000E+00 0.  1.
         23    2    1    2    0    0 -0.86951205356E+02 -0.50166293855E+02  0.26438882203E+03  0.30919831284E+03  0.12499991319E+03 0.  0.
         23    2    1    2    0    0  0.86951205356E+02  0.50166293855E+02  0.29850126233E+03  0.32817607127E+03  0.92300384529E+02 0.  0.
          5    1    3    3  502    0 -0.11222680304E+03 -0.45580836509E+02  0.15520231080E+03  0.19693226057E+03  0.47000000000E+01 0.  1.
         -5    1    3    3    0  502  0.25275597679E+02 -0.45854573458E+01  0.10918651123E+03  0.11226605227E+03  0.47000000000E+01 0.  1.
        -11    1    4    4    0    0  0.22630493802E+02  0.64692405327E+02  0.12481845445E+03  0.14239695618E+03  0.00000000000E+00 0. -1.
         11    1    4    4    0    0  0.64320711554E+02 -0.14526111471E+02  0.17368280788E+03  0.18577911509E+03  0.00000000000E+00 0.  1.
<mgrwt>
<rscale>  0 0.15396341E+03</rscale>
<asrwt>0</asrwt>
<pdfrwt beam="1">  1        1 0.92328028E-01 0.16031889E+03</pdfrwt>
<pdfrwt beam="2">  1       -1 0.57295620E-02 0.16031889E+03</pdfrwt>
<totfact> 0.49121197E+03</totfact>
</mgrwt>
</event>
<event>
 8    1  0.8504141E-006  0.2677676E+03  0.7546771E-02  0.1104645E+00
          2   -1    0    0  501    0  0.00000000000E+00  0.00000000000E+00  0.12319031763E+04  0.12319031763E+04  0.00000000000E+00 0. -1.
         -2   -1    0    0    0  501 -0.00000000000E+00 -0.00000000000E+00 -0.61078672399E+02  0.61078672399E+02  0.00000000000E+00 0.  1.
         23    2    1    2    0    0 -0.22745494175E+03  0.65868459088E+02  0.39914626596E+03  0.48064252553E+03  0.12500036515E+03 0.  0.
         23    2    1    2    0    0  0.22745494175E+03 -0.65868459088E+02  0.77167823790E+03  0.81233932313E+03  0.91287833891E+02 0.  0.
          5    1    3    3  502    0 -0.12571701139E+03 -0.28341646139E+02  0.18672365364E+03  0.22692692367E+03  0.47000000000E+01 0.  1.
         -5    1    3    3    0  502 -0.10173793036E+03  0.94210105227E+02  0.21242261232E+03  0.25371560186E+03  0.47000000000E+01 0.  1.
        -11    1    4    4    0    0  0.15397290793E+02 -0.33898077662E+02  0.15597399661E+03  0.16035599100E+03  0.00000000000E+00 0.  1.
         11    1    4    4    0    0  0.21205765096E+03 -0.31970381426E+02  0.61570424130E+03  0.65198333213E+03  0.00000000000E+00 0. -1.
<mgrwt>
<rscale>  0 0.26420188E+03</rscale>
<asrwt>0</asrwt>
<pdfrwt beam="1">  1        2 0.18952355E+00 0.26776762E+03</pdfrwt>
<pdfrwt beam="2">  1       -2 0.93967197E-02 0.26776762E+03</pdfrwt>
<totfact> 0.14056523E+03</totfact>
</mgrwt>
</event>
<event>
 8    1  0.8504141E-006  0.2179629E+03  0.7546771E-02  0.1138814E+00
         -2   -1    0    0    0  501 -0.00000000000E+00  0.00000000000E+00  0.42171552664E+02  0.42171552664E+02  0.00000000000E+00 0.  1.
          2   -1    0    0  501    0  0.00000000000E+00 -0.00000000000E+00 -0.11729617302E+04  0.11729617302E+04  0.00000000000E+00 0. -1.
         23    2    1    2    0    0  0.16818735630E+03 -0.59917128885E+02 -0.38093450307E+03  0.43888370938E+03  0.12502306019E+03 0.  0.
         23    2    1    2    0    0 -0.16818735630E+03  0.59917128885E+02 -0.74985567450E+03  0.77624957352E+03  0.91666889642E+02 0.  0.
          5    1    3    3  502    0  0.18605162906E+03 -0.62142485926E+02 -0.32189560912E+03  0.37698245370E+03  0.47000000000E+01 0. -1.
         -5    1    3    3    0  502 -0.17864272760E+02  0.22253570412E+01 -0.59038893955E+02  0.61901255679E+02  0.47000000000E+01 0. -1.
        -11    1    4    4    0    0 -0.15237485450E+03  0.21222324579E+02 -0.65076518870E+03  0.66870308371E+03  0.00000000000E+00 0. -1.
         11    1    4    4    0    0 -0.15812501792E+02  0.38694804306E+02 -0.99090485805E+02  0.10754648981E+03  0.00000000000E+00 0.  1.
<mgrwt>
<rscale>  0 0.21351230E+03</rscale>
<asrwt>0</asrwt>
<pdfrwt beam="2">  1        2 0.18045564E+00 0.21796287E+03</pdfrwt>
<pdfrwt beam="1">  1       -2 0.64879314E-02 0.21796287E+03</pdfrwt>
<totfact> 0.27082216E+03</totfact>
</mgrwt>
</event>
<event>
 8    1  0.8504141E-006  0.1268652E+03  0.7546771E-02  0.1247221E+00
          1   -1    0    0  501    0  0.00000000000E+00  0.00000000000E+00  0.13971047530E+02  0.13971047530E+02  0.00000000000E+00 0. -1.
         -1   -1    0    0    0  501 -0.00000000000E+00 -0.00000000000E+00 -0.12504340491E+04  0.12504340491E+04  0.00000000000E+00 0.  1.
         23    2    1    2    0    0 -0.20828581192E+01  0.21615843298E+02 -0.10298745809E+04  0.10376591119E+04  0.12499278771E+03 0.  0.
         23    2    1    2    0    0  0.20828581192E+01 -0.21615843298E+02 -0.20658842062E+03  0.22674598476E+03  0.90903152260E+02 0.  0.
          5    1    3    3  502    0 -0.51471898028E+02  0.10653319252E+02 -0.82097593584E+03  0.82267030257E+03  0.47000000000E+01 0.  1.
         -5    1    3    3    0  502  0.49389039909E+02  0.10962524046E+02 -0.20889864510E+03  0.21498880929E+03  0.47000000000E+01 0.  1.
        -11    1    4    4    0    0  0.26394165464E+02 -0.29942024752E+02 -0.19412405384E+03  0.19818507788E+03  0.00000000000E+00 0.  1.
         11    1    4    4    0    0 -0.24311307345E+02  0.83261814542E+01 -0.12464366784E+02  0.28560906879E+02  0.00000000000E+00 0. -1.
<mgrwt>
<rscale>  0 0.11753428E+03</rscale>
<asrwt>0</asrwt>
<pdfrwt beam="1">  1        1 0.21493914E-02 0.12686520E+03</pdfrwt>
<pdfrwt beam="2">  1       -1 0.19237452E+00 0.12686520E+03</pdfrwt>
<totfact> 0.10046721E+03</totfact>
</mgrwt>
</event>
<event>
 8    1  0.8504141E-006  0.1291648E+03  0.7546771E-02  0.1240010E+00
         -2   -1    0    0    0  501 -0.00000000000E+00  0.00000000000E+00  0.21145175661E+03  0.21145175661E+03  0.00000000000E+00 0.  1.
          2   -1    0    0  501    0  0.00000000000E+00 -0.00000000000E+00 -0.65407123410E+02  0.65407123410E+02  0.00000000000E+00 0. -1.
         23    2    1    2    0    0  0.29011351462E+02 -0.14756045854E+02  0.10517858851E+03  0.16657151281E+03  0.12499653594E+03 0.  0.
         23    2    1    2    0    0 -0.29011351462E+02  0.14756045854E+02  0.40866044698E+02  0.11028736721E+03  0.97128113102E+02 0.  0.
          5    1    3    3  502    0 -0.22663950225E+02 -0.55151045598E+02  0.69727407584E+02  0.91865629257E+02  0.47000000000E+01 0.  1.
         -5    1    3    3    0  502  0.51675301687E+02  0.40394999744E+02  0.35451180923E+02  0.74705883554E+02  0.47000000000E+01 0.  1.
        -11    1    4    4    0    0  0.11184162760E+02  0.27945747912E+02  0.57442585505E+02  0.64851375872E+02  0.00000000000E+00 0.  1.
         11    1    4    4    0    0 -0.40195514223E+02 -0.13189702058E+02 -0.16576540807E+02  0.45435991341E+02  0.00000000000E+00 0. -1.
<mgrwt>
<rscale>  0 0.12189106E+03</rscale>
<asrwt>0</asrwt>
<pdfrwt beam="2">  1        2 0.10062635E-01 0.12916475E+03</pdfrwt>
<pdfrwt beam="1">  1       -2 0.32531039E-01 0.12916475E+03</pdfrwt>
<totfact> 0.52998389E+03</totfact>
</mgrwt>
</event>
<event>
 8    1  0.8504141E-006  0.1297321E+03  0.7546771E-02  0.1241872E+00
          2   -1    0    0  501    0  0.00000000000E+00  0.00000000000E+00  0.12698537159E+03  0.12698537159E+03  0.00000000000E+00 0. -1.
         -2   -1    0    0    0  501 -0.00000000000E+00 -0.00000000000E+00 -0.10226231541E+03  0.10226231541E+03  0.00000000000E+00 0.  1.
         23    2    1    2    0    0 -0.16297868188E+02  0.30663281155E+02  0.44566209856E+01  0.12980861468E+03  0.12499823061E+03 0.  0.
         23    2    1    2    0    0  0.16297868188E+02 -0.30663281155E+02  0.20266435200E+02  0.99439072323E+02  0.90948025762E+02 0.  0.
          5    1    3    3  502    0  0.19427616382E+01 -0.17626479949E+02 -0.50820782177E+02  0.54030630380E+02  0.47000000000E+01 0.  1.
         -5    1    3    3    0  502 -0.18240629827E+02  0.48289761104E+02  0.55277403162E+02  0.75777984299E+02  0.47000000000E+01 0.  1.
        -11    1    4    4    0    0 -0.59262635461E+01 -0.26055604103E+02 -0.32454936303E+02  0.42039719257E+02  0.00000000000E+00 0.  1.
         11    1    4    4    0    0  0.22224131735E+02 -0.46076770524E+01  0.52721371503E+02  0.57399353065E+02  0.00000000000E+00 0. -1.
<mgrwt>
<rscale>  0 0.12074571E+03</rscale>
<asrwt>0</asrwt>
<pdfrwt beam="1">  1        2 0.19536211E-01 0.12973209E+03</pdfrwt>
<pdfrwt beam="2">  1       -2 0.15732664E-01 0.12973209E+03</pdfrwt>
<totfact> 0.84813878E+03</totfact>
</mgrwt>
</event>
<event>
 8    1  0.8504141E-006  0.1723794E+03  0.7546771E-02  0.1181943E+00
         -3   -1    0    0    0  501 -0.00000000000E+00  0.00000000000E+00  0.13150551058E+03  0.13150551058E+03  0.00000000000E+00 0.  1.
          3   -1    0    0  501    0  0.00000000000E+00 -0.00000000000E+00 -0.20686115781E+03  0.20686115781E+03  0.00000000000E+00 0. -1.
         23    2    1    2    0    0 -0.10738949807E+03 -0.50567482894E+02 -0.16455048438E+01  0.17238728592E+03  0.12500037616E+03 0.  0.
         23    2    1    2    0    0  0.10738949807E+03  0.50567482894E+02 -0.73710142378E+02  0.16597938247E+03  0.89590153989E+02 0.  0.
          5    1    3    3  502    0 -0.16305327215E+02 -0.35827683488E+02  0.52127349589E+02  0.65489214187E+02  0.47000000000E+01 0. -1.
         -5    1    3    3    0  502 -0.91084170857E+02 -0.14739799406E+02 -0.53772854433E+02  0.10689807174E+03  0.47000000000E+01 0. -1.
        -11    1    4    4    0    0  0.57492096045E+02  0.73241807256E+02 -0.38013586322E+02  0.10057204474E+03  0.00000000000E+00 0.  1.
         11    1    4    4    0    0  0.49897402027E+02 -0.22674324361E+02 -0.35696556057E+02  0.65407337727E+02  0.00000000000E+00 0. -1.
<mgrwt>
<rscale>  0 0.16613163E+03</rscale>
<asrwt>0</asrwt>
<pdfrwt beam="2">  1        3 0.31824793E-01 0.17237943E+03</pdfrwt>
<pdfrwt beam="1">  1       -3 0.20231617E-01 0.17237943E+03</pdfrwt>
<totfact> 0.50646470E+02</totfact>
</mgrwt>
</event>
<event>
 8    1  0.8504141E-006  0.1325273E+03  0.7546771E-02  0.1236854E+00
         -2   -1    0    0    0  501 -0.00000000000E+00  0.00000000000E+00  0.22882161606E+02  0.22882161606E+02  0.00000000000E+00 0.  1.
          2   -1    0    0  501    0  0.00000000000E+00 -0.00000000000E+00 -0.60133085358E+03  0.60133085358E+03  0.00000000000E+00 0. -1.
         23    2    1    2    0    0  0.20785673707E+02 -0.38870201788E+02 -0.29999455984E+03  0.32796376990E+03  0.12498224518E+03 0.  0.
         23    2    1    2    0    0 -0.20785673707E+02  0.38870201788E+02 -0.27845413213E+03  0.29624924529E+03  0.91016343677E+02 0.  0.
          5    1    3    3  502    0  0.17391505189E+02 -0.69089162134E+02 -0.86034649888E+02  0.11180262858E+03  0.47000000000E+01 0. -1.
         -5    1    3    3    0  502  0.33941685179E+01  0.30218960346E+02 -0.21395990996E+03  0.21616114131E+03  0.47000000000E+01 0. -1.
        -11    1    4    4    0    0 -0.45419742880E+02  0.39515828996E+02 -0.25575560308E+03  0.26274585114E+03  0.00000000000E+00 0. -1.
         11    1    4    4    0    0  0.24634069173E+02 -0.64562720754E+00 -0.22698529049E+02  0.33503394149E+02  0.00000000000E+00 0.  1.
<mgrwt>
<rscale>  0 0.12386460E+03</rscale>
<asrwt>0</asrwt>
<pdfrwt beam="2">  1        2 0.92512445E-01 0.13252735E+03</pdfrwt>
<pdfrwt beam="1">  1       -2 0.35203323E-02 0.13252735E+03</pdfrwt>
<totfact> 0.15858789E+04</totfact>
</mgrwt>
</event>
<event>
 8    1  0.8504141E-006  0.1278343E+03  0.7546771E-02  0.1245807E+00
          2   -1    0    0  501    0  0.00000000000E+00  0.00000000000E+00  0.14673501775E+03  0.14673501775E+03  0.00000000000E+00 0. -1.
         -2   -1    0    0    0  501 -0.00000000000E+00 -0.00000000000E+00 -0.84587437134E+02  0.84587437134E+02  0.00000000000E+00 0.  1.
         23    2    1    2    0    0 -0.24242197328E+02  0.11495110525E+02  0.24954276420E+02  0.13024715939E+03  0.12498713902E+03 0.  0.
         23    2    1    2    0    0  0.24242197328E+02 -0.11495110525E+02  0.37193304195E+02  0.10107529549E+03  0.90072480730E+02 0.  0.
          5    1    3    3  502    0 -0.66186879945E+01  0.60621661996E+02  0.43064690151E+02  0.74802743745E+02  0.47000000000E+01 0. -1.
         -5    1    3    3    0  502 -0.17623509333E+02 -0.49126551472E+02 -0.18110413731E+02  0.55444415645E+02  0.47000000000E+01 0. -1.
        -11    1    4    4    0    0  0.17028812563E+02 -0.51029696543E+02  0.21218646181E+02  0.57829415805E+02  0.00000000000E+00 0.  1.
         11    1    4    4    0    0  0.72133847650E+01  0.39534586018E+02  0.15974658014E+02  0.43245879689E+02  0.00000000000E+00 0. -1.
<mgrwt>
<rscale>  0 0.11837181E+03</rscale>
<asrwt>0</asrwt>
<pdfrwt beam="1">  1        2 0.22574618E-01 0.12783429E+03</pdfrwt>
<pdfrwt beam="2">  1       -2 0.13013452E-01 0.12783429E+03</pdfrwt>
<totfact> 0.98015169E+03</totfact>
</mgrwt>
</event>
<event>
 8    1  0.8504141E-006  0.1404802E+03  0.7546771E-02  0.1223320E+00
         -4   -1    0    0    0  501 -0.00000000000E+00  0.00000000000E+00  0.23308902083E+03  0.23308902083E+03  0.00000000000E+00 0.  1.
          4   -1    0    0  501    0  0.00000000000E+00 -0.00000000000E+00 -0.80585224765E+02  0.80585224765E+02  0.00000000000E+00 0. -1.
         23    2    1    2    0    0  0.58176921737E+02  0.26933745052E+02  0.14384180657E+03  0.20106007529E+03  0.12499883085E+03 0.  0.
         23    2    1    2    0    0 -0.58176921737E+02 -0.26933745052E+02  0.86619894934E+01  0.11261417030E+03  0.92178850314E+02 0.  0.
          5    1    3    3  502    0  0.86264919889E+01  0.27214715149E+02 -0.16405396509E+02  0.33260849648E+02  0.47000000000E+01 0.  1.
         -5    1    3    3    0  502  0.49550429748E+02 -0.28097009657E+00  0.16024720308E+03  0.16779922564E+03  0.47000000000E+01 0.  1.
        -11    1    4    4    0    0 -0.68364571904E+02 -0.33719638591E+02  0.34766591203E+02  0.83782125672E+02  0.00000000000E+00 0.  1.
         11    1    4    4    0    0  0.10187650167E+02  0.67858935383E+01 -0.26104601709E+02  0.28832044628E+02  0.00000000000E+00 0. -1.
<mgrwt>
<rscale>  0 0.13282734E+03</rscale>
<asrwt>0</asrwt>
<pdfrwt beam="2">  1        4 0.12397727E-01 0.14048021E+03</pdfrwt>
<pdfrwt beam="1">  1       -4 0.35859849E-01 0.14048021E+03</pdfrwt>
<totfact> 0.66031925E+02</totfact>
</mgrwt>
</event>
<event>
 8    1  0.8504141E-006  0.1354163E+03  0.7546771E-02  0.1229871E+00
         -1   -1    0    0    0  501 -0.00000000000E+00  0.00000000000E+00  0.89264420164E+02  0.89264420164E+02  0.00000000000E+00 0.  1.
          1   -1    0    0  501    0  0.00000000000E+00 -0.00000000000E+00 -0.16811464978E+03  0.16811464978E+03  0.00000000000E+00 0. -1.
         23    2    1    2    0    0  0.30235900633E+02  0.42413277147E+02 -0.38723823189E+02  0.14084423376E+03  0.12499787173E+03 0.  0.
         23    2    1    2    0    0 -0.30235900633E+02 -0.42413277147E+02 -0.40126406428E+02  0.11653483618E+03  0.96214051916E+02 0.  0.
          5    1    3    3  502    0  0.78201399125E+02  0.35416479989E+02 -0.31729527121E+02  0.91644087486E+02  0.47000000000E+01 0. -1.
         -5    1    3    3    0  502 -0.47965498492E+02  0.69967971571E+01 -0.69942960680E+01  0.49200146275E+02  0.47000000000E+01 0. -1.
        -11    1    4    4    0    0 -0.54561783988E+02 -0.76654473843E+01  0.41071907221E+01  0.55250487520E+02  0.00000000000E+00 0.  1.
         11    1    4    4    0    0  0.24325883356E+02 -0.34747829762E+02 -0.44233597150E+02  0.61284348663E+02  0.00000000000E+00 0. -1.
<mgrwt>
<rscale>  0 0.12838550E+03</rscale>
<asrwt>0</asrwt>
<pdfrwt beam="2">  1        1 0.25863792E-01 0.13541626E+03</pdfrwt>
<pdfrwt beam="1">  1       -1 0.13732988E-01 0.13541626E+03</pdfrwt>
<totfact> 0.64397155E+03</totfact>
</mgrwt>
</event>
<event>
 8    1  0.8504141E-006  0.1574751E+03  0.7546771E-02  0.1199529E+00
         -1   -1    0    0    0  501 -0.00000000000E+00  0.00000000000E+00  0.71073337678E+02  0.71073337678E+02  0.00000000000E+00 0.  1.
          1   -1    0    0  501    0  0.00000000000E+00 -0.00000000000E+00 -0.30486365307E+03  0.30486365307E+03  0.00000000000E+00 0. -1.
         23    2    1    2    0    0 -0.68418316929E+00 -0.95754245000E+02 -0.93740032046E+02  0.18326376069E+03  0.12501627426E+03 0.  0.
         23    2    1    2    0    0  0.68418316929E+00  0.95754245000E+02 -0.14005028335E+03  0.19267323006E+03  0.91321126665E+02 0.  0.
          5    1    3    3  502    0 -0.10813356212E+02 -0.89147608983E+02 -0.12235455397E+03  0.15184515711E+03  0.47000000000E+01 0.  1.
         -5    1    3    3    0  502  0.10129173042E+02 -0.66066360166E+01  0.28614521922E+02  0.31418603579E+02  0.47000000000E+01 0.  1.
        -11    1    4    4    0    0 -0.30232297751E+02  0.42177005921E+02 -0.16415782304E+02  0.54427654409E+02  0.00000000000E+00 0.  1.
         11    1    4    4    0    0  0.30916480921E+02  0.53577239079E+02 -0.12363450104E+03  0.13824557565E+03  0.00000000000E+00 0. -1.
<mgrwt>
<rscale>  0 0.15077047E+03</rscale>
<asrwt>0</asrwt>
<pdfrwt beam="2">  1        1 0.46902100E-01 0.15747512E+03</pdfrwt>
<pdfrwt beam="1">  1       -1 0.10934360E-01 0.15747512E+03</pdfrwt>
<totfact> 0.44112074E+03</totfact>
</mgrwt>
</event>
<event>
 7    1  0.8504141E-006  0.1486354E+04  0.7546771E-02  0.9497858E-01
          2   -1    0    0  501    0  0.00000000000E+00  0.00000000000E+00  0.68316075651E+03  0.68316075651E+03  0.00000000000E+00 0. -1.
         -2   -1    0    0    0  501 -0.00000000000E+00 -0.00000000000E+00 -0.10335238644E+04  0.10335238644E+04  0.00000000000E+00 0.  1.
         23    2    1    2    0    0  0.35608071557E+02 -0.12235216277E+03  0.73046542459E+02  0.17119982054E+03  0.87952229603E+02 0.  0.
          5    1    1    2  502    0  0.26759770225E+03  0.41809774304E+03  0.38806863754E+03  0.63010603110E+03  0.47000000000E+01 0. -1.
         -5    1    1    2    0  502 -0.30320577381E+03 -0.29574558027E+03 -0.81147828791E+03  0.91537876929E+03  0.47000000000E+01 0.  1.
        -11    1    3    3    0    0 -0.81318140796E+01 -0.71754015532E+02  0.74167474462E-01  0.72213368887E+02  0.00000000000E+00 0. -1.
         11    1    3    3    0    0  0.43739885637E+02 -0.50598147239E+02  0.72972374984E+02  0.98986451650E+02  0.00000000000E+00 0.  1.
<mgrwt>
<rscale>  0 0.84441951E+03</rscale>
<asrwt>0</asrwt>
<pdfrwt beam="1">  1        2 0.10510166E+00 0.14863538E+04</pdfrwt>
<pdfrwt beam="2">  1       -2 0.15900367E+00 0.14863538E+04</pdfrwt>
<totfact> 0.10410950E+01</totfact>
</mgrwt>
</event>
<event>
 8    1  0.8504141E-006  0.1456612E+03  0.7546771E-02  0.1216776E+00
         -4   -1    0    0    0  501 -0.00000000000E+00  0.00000000000E+00  0.95375144229E+02  0.95375144229E+02  0.00000000000E+00 0.  1.
          4   -1    0    0  501    0  0.00000000000E+00 -0.00000000000E+00 -0.18029957224E+03  0.18029957224E+03  0.00000000000E+00 0. -1.
         23    2    1    2    0    0 -0.69423356420E+02 -0.27816802154E+02 -0.35064830673E+02  0.14982232104E+03  0.12499523444E+03 0.  0.
         23    2    1    2    0    0  0.69423356420E+02  0.27816802154E+02 -0.49859597340E+02  0.12585239543E+03  0.88087848707E+02 0.  0.
          5    1    3    3  502    0  0.12996974368E+02  0.18547568902E+02  0.27804262523E+02  0.36167674370E+02  0.47000000000E+01 0.  1.
         -5    1    3    3    0  502 -0.82420330788E+02 -0.46364371055E+02 -0.62869093196E+02  0.11365464667E+03  0.47000000000E+01 0.  1.
        -11    1    4    4    0    0  0.46607578999E+02 -0.64737501500E+01  0.14678675138E+02  0.49291372115E+02  0.00000000000E+00 0.  1.
         11    1    4    4    0    0  0.22815777421E+02  0.34290552304E+02 -0.64538272478E+02  0.76561023316E+02  0.00000000000E+00 0. -1.
<mgrwt>
<rscale>  0 0.13746896E+03</rscale>
<asrwt>0</asrwt>
<pdfrwt beam="2">  1        4 0.27738396E-01 0.14566120E+03</pdfrwt>
<pdfrwt beam="1">  1       -4 0.14673099E-01 0.14566120E+03</pdfrwt>
<totfact> 0.81035510E+02</totfact>
</mgrwt>
</event>
<event>
 7    1  0.8504141E-006  0.1580778E+03  0.7546771E-02  0.1193031E+00
         -2   -1    0    0    0  501 -0.00000000000E+00  0.00000000000E+00  0.28576355283E+02  0.28576355283E+02  0.00000000000E+00 0.  1.
          2   -1    0    0  501    0  0.00000000000E+00 -0.00000000000E+00 -0.84150956622E+03  0.84150956622E+03  0.00000000000E+00 0. -1.
         23    2    1    2    0    0 -0.76255394753E+02  0.35966356337E+02 -0.35737099554E+03  0.38787692688E+03  0.12500407166E+03 0.  0.
          5    1    3    3  502    0  0.25016562748E+02  0.34169997020E+02 -0.59218621478E+02  0.72954453174E+02  0.47000000000E+01 0. -1.
         -5    1    3    3    0  502 -0.10127195750E+03  0.17963593166E+01 -0.29815237406E+03  0.31492247370E+03  0.47000000000E+01 0. -1.
        -11    1    1    2    0    0  0.89928450566E+02  0.14368580915E+02 -0.17969768523E+03  0.20145679540E+03  0.00000000000E+00 0.  1.
         11    1    1    2    0    0 -0.13673055813E+02 -0.50334937252E+02 -0.27586453017E+03  0.28075219923E+03  0.00000000000E+00 0. -1.
<mgrwt>
<rscale>  0 0.15622076E+03</rscale>
<asrwt>0</asrwt>
<pdfrwt beam="2">  1        2 0.12946304E+00 0.15807777E+03</pdfrwt>
<pdfrwt beam="1">  1       -2 0.43963614E-02 0.15807777E+03</pdfrwt>
<totfact> 0.76993713E+03</totfact>
</mgrwt>
</event>
<event>
 8    1  0.8504141E-006  0.1355468E+03  0.7546771E-02  0.1230363E+00
         -1   -1    0    0    0  501 -0.00000000000E+00  0.00000000000E+00  0.15631740882E+03  0.15631740882E+03  0.00000000000E+00 0.  1.
          1   -1    0    0  501    0  0.00000000000E+00 -0.00000000000E+00 -0.96287714603E+02  0.96287714603E+02  0.00000000000E+00 0. -1.
         23    2    1    2    0    0 -0.13030493071E+02 -0.50727884920E+02  0.48665165310E+02  0.14401819213E+03  0.12501931568E+03 0.  0.
         23    2    1    2    0    0  0.13030493071E+02  0.50727884920E+02  0.11364528905E+02  0.10858693129E+03  0.94439700714E+02 0.  0.
          5    1    3    3  502    0 -0.42789810578E+02 -0.24766183693E+02 -0.28462009456E+02  0.57240787262E+02  0.47000000000E+01 0.  1.
         -5    1    3    3    0  502  0.29759317507E+02 -0.25961701226E+02  0.77127174767E+02  0.86777404873E+02  0.47000000000E+01 0.  1.
        -11    1    4    4    0    0  0.50639315656E+02  0.97107518520E+01 -0.10380331359E+01  0.51572439388E+02  0.00000000000E+00 0. -1.
         11    1    4    4    0    0 -0.37608822585E+02  0.41017133068E+02  0.12402562041E+02  0.57014491899E+02  0.00000000000E+00 0.  1.
<mgrwt>
<rscale>  0 0.12806000E+03</rscale>
<asrwt>0</asrwt>
<pdfrwt beam="2">  1        1 0.14813495E-01 0.13554682E+03</pdfrwt>
<pdfrwt beam="1">  1       -1 0.24048832E-01 0.13554682E+03</pdfrwt>
<totfact> 0.53630400E+03</totfact>
</mgrwt>
</event>
<event>
 8    1  0.8504141E-006  0.1319520E+03  0.7546771E-02  0.1238188E+00
          2   -1    0    0  501    0  0.00000000000E+00  0.00000000000E+00  0.46716163698E+03  0.46716163698E+03  0.00000000000E+00 0. -1.
         -2   -1    0    0    0  501 -0.00000000000E+00 -0.00000000000E+00 -0.28730339983E+02  0.28730339983E+02  0.00000000000E+00 0.  1.
         23    2    1    2    0    0 -0.23558666846E+02 -0.35156017722E+02  0.24487722586E+03  0.27816577282E+03  0.12498153887E+03 0.  0.
         23    2    1    2    0    0  0.23558666846E+02  0.35156017722E+02  0.19355407114E+03  0.21772620415E+03  0.90280480460E+02 0.  0.
          5    1    3    3  502    0  0.47569856744E+02 -0.42799818824E+01  0.54902228773E+02  0.72921562242E+02  0.47000000000E+01 0.  1.
         -5    1    3    3    0  502 -0.71128523590E+02 -0.30876035840E+02  0.18997499708E+03  0.20524421058E+03  0.47000000000E+01 0.  1.
        -11    1    4    4    0    0  0.16620898713E+02  0.19100233217E+01 -0.40592763800E+01  0.17215695973E+02  0.00000000000E+00 0.  1.
         11    1    4    4    0    0  0.69377681336E+01  0.33245994401E+02  0.19761334752E+03  0.20051050818E+03  0.00000000000E+00 0. -1.
<mgrwt>
<rscale>  0 0.12302509E+03</rscale>
<asrwt>0</asrwt>
<pdfrwt beam="1">  1        2 0.71871015E-01 0.13195204E+03</pdfrwt>
<pdfrwt beam="2">  1       -2 0.44200526E-02 0.13195204E+03</pdfrwt>
<totfact> 0.14962698E+04</totfact>
</mgrwt>
</event>
<event>
 8    1  0.8504141E-006  0.1253630E+03  0.7546771E-02  0.1249440E+00
         -2   -1    0    0    0  501 -0.00000000000E+00  0.00000000000E+00  0.86006689606E+02  0.86006689606E+02  0.00000000000E+00 0.  1.
          2   -1    0    0  501    0  0.00000000000E+00 -0.00000000000E+00 -0.16552446382E+03  0.16552446382E+03  0.00000000000E+00 0. -1.
         23    2    1    2    0    0  0.93000688286E+01 -0.18509987098E+01  0.59183727779E+01  0.12550264240E+03  0.12500387449E+03 0.  0.
         23    2    1    2    0    0 -0.93000688286E+01  0.18509987098E+01 -0.85436146996E+02  0.12602851103E+03  0.92162535241E+02 0.  0.
          5    1    3    3  502    0 -0.48997113201E+01 -0.59397885940E+02  0.22332514466E+02  0.63819646094E+02  0.47000000000E+01 0. -1.
         -5    1    3    3    0  502  0.14199780149E+02  0.57546887231E+02 -0.16414141688E+02  0.61682996308E+02  0.47000000000E+01 0. -1.
        -11    1    4    4    0    0  0.66843837702E+01  0.17184117170E+02  0.14631757381E+02  0.23538546968E+02  0.00000000000E+00 0.  1.
         11    1    4    4    0    0 -0.15984452599E+02 -0.15333118460E+02 -0.10006790438E+03  0.10248996406E+03  0.00000000000E+00 0. -1.
<mgrwt>
<rscale>  0 0.11623511E+03</rscale>
<asrwt>0</asrwt>
<pdfrwt beam="2">  1        2 0.25465301E-01 0.12536302E+03</pdfrwt>
<pdfrwt beam="1">  1       -2 0.13231799E-01 0.12536302E+03</pdfrwt>
<totfact> 0.83393903E+03</totfact>
</mgrwt>
</event>
<event>
 8    1  0.8504141E-006  0.1338242E+03  0.7546771E-02  0.1234705E+00
          1   -1    0    0  501    0  0.00000000000E+00  0.00000000000E+00  0.86016626595E+03  0.86016626595E+03  0.00000000000E+00 0. -1.
         -1   -1    0    0    0  501 -0.00000000000E+00 -0.00000000000E+00 -0.17907873558E+02  0.17907873558E+02  0.00000000000E+00 0.  1.
         23    2    1    2    0    0  0.18663362455E+00 -0.47797216272E+02  0.33901660008E+03  0.36447382431E+03  0.12499721904E+03 0.  0.
         23    2    1    2    0    0 -0.18663362455E+00  0.47797216272E+02  0.50324179232E+03  0.51360031520E+03  0.90820556688E+02 0.  0.
          5    1    3    3  502    0  0.15049741498E+02  0.21103866775E+02  0.10353686699E+02  0.28304712333E+02  0.47000000000E+01 0. -1.
         -5    1    3    3    0  502 -0.14863107874E+02 -0.68901083047E+02  0.32866291338E+03  0.33616911198E+03  0.47000000000E+01 0. -1.
        -11    1    4    4    0    0 -0.74489072928E+01  0.72873470376E+02  0.42065145507E+03  0.42698205531E+03  0.00000000000E+00 0. -1.
         11    1    4    4    0    0  0.72622736682E+01 -0.25076254103E+02  0.82590337253E+02  0.86618259889E+02  0.00000000000E+00 0.  1.
<mgrwt>
<rscale>  0 0.12523332E+03</rscale>
<asrwt>0</asrwt>
<pdfrwt beam="1">  1        1 0.13233324E+00 0.13382419E+03</pdfrwt>
<pdfrwt beam="2">  1       -1 0.27550581E-02 0.13382419E+03</pdfrwt>
<totfact> 0.84740648E+03</totfact>
</mgrwt>
</event>
<event>
 8    1  0.8504141E-006  0.1315723E+03  0.7546771E-02  0.1242043E+00
          1   -1    0    0  501    0  0.00000000000E+00  0.00000000000E+00  0.69039201373E+03  0.69039201373E+03  0.00000000000E+00 0. -1.
         -1   -1    0    0    0  501 -0.00000000000E+00 -0.00000000000E+00 -0.18876594743E+02  0.18876594743E+02  0.00000000000E+00 0.  1.
         23    2    1    2    0    0 -0.40560163902E+02 -0.62985240770E+01  0.32850429876E+03  0.35387333639E+03  0.12500586229E+03 0.  0.
         23    2    1    2    0    0  0.40560163902E+02  0.62985240770E+01  0.34301112023E+03  0.35539527208E+03  0.83452816095E+02 0.  0.
          5    1    3    3  502    0  0.15227089304E+02 -0.18605576077E+02  0.45869004818E+01  0.24923109073E+02  0.47000000000E+01 0. -1.
         -5    1    3    3    0  502 -0.55787253206E+02  0.12307052000E+02  0.32391739827E+03  0.32895022732E+03  0.47000000000E+01 0. -1.
        -11    1    4    4    0    0  0.35393271261E+02 -0.32332345676E+02  0.12401177693E+03  0.13295482332E+03  0.00000000000E+00 0.  1.
         11    1    4    4    0    0  0.51668926414E+01  0.38630869753E+02  0.21899934330E+03  0.22244044876E+03  0.00000000000E+00 0. -1.
<mgrwt>
<rscale>  0 0.12064105E+03</rscale>
<asrwt>0</asrwt>
<pdfrwt beam="1">  1        1 0.10621414E+00 0.13157228E+03</pdfrwt>
<pdfrwt beam="2">  1       -1 0.29040920E-02 0.13157228E+03</pdfrwt>
<totfact> 0.10866196E+04</totfact>
</mgrwt>
</event>
<event>
 8    1  0.8504141E-006  0.1612657E+03  0.7546771E-02  0.1194415E+00
          2   -1    0    0  501    0  0.00000000000E+00  0.00000000000E+00  0.25091796597E+03  0.25091796597E+03  0.00000000000E+00 0.  1.
         -2   -1    0    0    0  501 -0.00000000000E+00 -0.00000000000E+00 -0.99769119566E+02  0.99769119566E+02  0.00000000000E+00 0. -1.
         23    2    1    2    0    0  0.90752795744E+02  0.46363414880E+02  0.23672495382E+02  0.16299392609E+03  0.12498398589E+03 0.  0.
         23    2    1    2    0    0 -0.90752795744E+02 -0.46363414880E+02  0.12747635102E+03  0.18769315944E+03  0.92697712259E+02 0.  0.
          5    1    3    3  502    0  0.45436918463E+02 -0.41681895187E+02  0.13882192128E+02  0.63377434502E+02  0.47000000000E+01 0.  1.
         -5    1    3    3    0  502  0.45315877281E+02  0.88045310066E+02  0.97903032542E+01  0.99616491588E+02  0.47000000000E+01 0.  1.
        -11    1    4    4    0    0 -0.85059693371E+02 -0.29545971695E+02  0.13965164878E+03  0.16616467400E+03  0.00000000000E+00 0.  1.
         11    1    4    4    0    0 -0.56931023731E+01 -0.16817443184E+02 -0.12175297759E+02  0.21528485442E+02  0.00000000000E+00 0. -1.
<mgrwt>
<rscale>  0 0.15503840E+03</rscale>
<asrwt>0</asrwt>
<pdfrwt beam="1">  1        2 0.38602764E-01 0.16126572E+03</pdfrwt>
<pdfrwt beam="2">  1       -2 0.15349095E-01 0.16126572E+03</pdfrwt>
<totfact> 0.42439616E+03</totfact>
</mgrwt>
</event>
<event>
 8    1  0.8504141E-006  0.1640044E+03  0.7546771E-02  0.1191230E+00
          2   -1    0    0  501    0  0.00000000000E+00  0.00000000000E+00  0.22528754952E+03  0.22528754952E+03  0.00000000000E+00 0. -1.
         -2   -1    0    0    0  501 -0.00000000000E+00 -0.00000000000E+00 -0.10344590765E+03  0.10344590765E+03  0.00000000000E+00 0.  1.
         23    2    1    2    0    0 -0.91823398395E+02 -0.53286996169E+02  0.53454494489E+02  0.17249583152E+03  0.12500555371E+03 0.  0.
         23    2    1    2    0    0  0.91823398395E+02  0.53286996169E+02  0.68387147379E+02  0.15623762565E+03  0.91991050052E+02 0.  0.
          5    1    3    3  502    0 -0.49711574226E+02  0.36279578855E+02  0.42517498519E+01  0.61867728508E+02  0.47000000000E+01 0. -1.
         -5    1    3    3    0  502 -0.42111824168E+02 -0.89566575024E+02  0.49202744637E+02  0.11062810301E+03  0.47000000000E+01 0. -1.
        -11    1    4    4    0    0 -0.29722661404E+01  0.38282512138E+02  0.41560283513E+02  0.56583056362E+02  0.00000000000E+00 0. -1.
         11    1    4    4    0    0  0.94795664535E+02  0.15004484031E+02  0.26826863866E+02  0.99654569291E+02  0.00000000000E+00 0.  1.
<mgrwt>
<rscale>  0 0.15777630E+03</rscale>
<asrwt>0</asrwt>
<pdfrwt beam="1">  1        2 0.34659623E-01 0.16400436E+03</pdfrwt>
<pdfrwt beam="2">  1       -2 0.15914755E-01 0.16400436E+03</pdfrwt>
<totfact> 0.44928643E+03</totfact>
</mgrwt>
</event>
<event>
 8    1  0.8504141E-006  0.1219351E+03  0.7546771E-02  0.1247560E+00
          1   -1    0    0  501    0  0.00000000000E+00  0.00000000000E+00  0.22040696410E+03  0.22040696410E+03  0.00000000000E+00 0. -1.
         -1   -1    0    0    0  501 -0.00000000000E+00 -0.00000000000E+00 -0.25914317870E+03  0.25914317870E+03  0.00000000000E+00 0.  1.
         23    2    1    2    0    0  0.46627674171E+02 -0.18462176123E+02 -0.23071185857E+03  0.26095233863E+03  0.11114481278E+03 0.  0.
         23    2    1    2    0    0 -0.46627674171E+02  0.18462176123E+02  0.19197564397E+03  0.21859780417E+03  0.91735272193E+02 0.  0.
          5    1    3    3  502    0  0.50751152914E+01  0.17915809934E+02  0.41423159789E+01  0.19646420094E+02  0.47000000000E+01 0. -1.
         -5    1    3    3    0  502  0.41552558880E+02 -0.36377986057E+02 -0.23485417455E+03  0.24130591854E+03  0.47000000000E+01 0.  1.
        -11    1    4    4    0    0 -0.71462483055E+02  0.18000545776E+02  0.10596008588E+03  0.12906760218E+03  0.00000000000E+00 0. -1.
         11    1    4    4    0    0  0.24834808884E+02  0.46163034724E+00  0.86015558090E+02  0.89530201990E+02  0.00000000000E+00 0.  1.
<mgrwt>
<rscale>  0 0.11733450E+03</rscale>
<asrwt>0</asrwt>
<pdfrwt beam="1">  1        1 0.33908764E-01 0.12193507E+03</pdfrwt>
<pdfrwt beam="2">  1       -1 0.39868181E-01 0.12193507E+03</pdfrwt>
<totfact> 0.80057716E+02</totfact>
</mgrwt>
</event>
<event>
 8    1  0.8504141E-006  0.1344347E+03  0.7546771E-02  0.1233604E+00
         -1   -1    0    0    0  501 -0.00000000000E+00  0.00000000000E+00  0.93067808196E+02  0.93067808196E+02  0.00000000000E+00 0.  1.
          1   -1    0    0  501    0  0.00000000000E+00 -0.00000000000E+00 -0.19108566244E+03  0.19108566244E+03  0.00000000000E+00 0. -1.
         23    2    1    2    0    0  0.16203815737E+02  0.46773689518E+02  0.96388481350E+01  0.13477980689E+03  0.12498938866E+03 0.  0.
         23    2    1    2    0    0 -0.16203815737E+02 -0.46773689518E+02 -0.10765670238E+03  0.14937366374E+03  0.90951548513E+02 0.  0.
          5    1    3    3  502    0  0.30990392830E+02  0.24221965604E+02 -0.53147250352E+02  0.66285958433E+02  0.47000000000E+01 0.  1.
         -5    1    3    3    0  502 -0.14786577093E+02  0.22551723914E+02  0.62786098487E+02  0.68493848460E+02  0.47000000000E+01 0.  1.
        -11    1    4    4    0    0 -0.37948119122E+02 -0.61862942403E+02 -0.57236177106E+02  0.92428693365E+02  0.00000000000E+00 0. -1.
         11    1    4    4    0    0  0.21744303385E+02  0.15089252885E+02 -0.50420525271E+02  0.56944970374E+02  0.00000000000E+00 0.  1.
<mgrwt>
<rscale>  0 0.12594203E+03</rscale>
<asrwt>0</asrwt>
<pdfrwt beam="2">  1        1 0.29397794E-01 0.13443470E+03</pdfrwt>
<pdfrwt beam="1">  1       -1 0.14318124E-01 0.13443470E+03</pdfrwt>
<totfact> 0.51401457E+03</totfact>
</mgrwt>
</event>
<event>
 8    1  0.8504141E-006  0.1436225E+03  0.7546771E-02  0.1219064E+00
          1   -1    0    0  501    0  0.00000000000E+00  0.00000000000E+00  0.50055506109E+03  0.50055506109E+03  0.00000000000E+00 0.  1.
         -1   -1    0    0    0  501 -0.00000000000E+00 -0.00000000000E+00 -0.33694790406E+02  0.33694790406E+02  0.00000000000E+00 0. -1.
         23    2    1    2    0    0 -0.10362941200E+02 -0.70003577251E+02  0.28509919857E+03  0.31923185546E+03  0.12497813062E+03 0.  0.
         23    2    1    2    0    0  0.10362941200E+02  0.70003577251E+02  0.18176107212E+03  0.21501799604E+03  0.90486241533E+02 0.  0.
          5    1    3    3  502    0  0.21966130832E+02 -0.88520853974E+01 -0.16685789768E+01  0.24202158487E+02  0.47000000000E+01 0.  1.
         -5    1    3    3    0  502 -0.32329072032E+02 -0.61151491854E+02  0.28676777755E+03  0.29502969697E+03  0.47000000000E+01 0.  1.
        -11    1    4    4    0    0 -0.30438865503E+02  0.18296827799E+02  0.20932926783E+02  0.41224820974E+02  0.00000000000E+00 0. -1.
         11    1    4    4    0    0  0.40801806703E+02  0.51706749452E+02  0.16082814533E+03  0.17379317507E+03  0.00000000000E+00 0.  1.
<mgrwt>
<rscale>  0 0.13582219E+03</rscale>
<asrwt>0</asrwt>
<pdfrwt beam="1">  1        1 0.77008465E-01 0.14362251E+03</pdfrwt>
<pdfrwt beam="2">  1       -1 0.51838143E-02 0.14362251E+03</pdfrwt>
<totfact> 0.72231153E+03</totfact>
</mgrwt>
</event>
<event>
 8    1  0.8504141E-006  0.1478066E+03  0.7546771E-02  0.1212503E+00
         -1   -1    0    0    0  501 -0.00000000000E+00  0.00000000000E+00  0.24550394371E+03  0.24550394371E+03  0.00000000000E+00 0.  1.
          1   -1    0    0  501    0  0.00000000000E+00 -0.00000000000E+00 -0.81318688171E+02  0.81318688171E+02  0.00000000000E+00 0. -1.
         23    2    1    2    0    0 -0.61260646936E+02  0.49756717398E+02  0.13953264544E+03  0.20326377822E+03  0.12497282346E+03 0.  0.
         23    2    1    2    0    0  0.61260646936E+02 -0.49756717398E+02  0.24652610104E+02  0.12355885367E+03  0.91817434864E+02 0.  0.
          5    1    3    3  502    0 -0.71778669276E+02  0.79622783915E+02  0.13248088809E+03  0.17048530960E+03  0.47000000000E+01 0.  1.
         -5    1    3    3    0  502  0.10518022339E+02 -0.29866066516E+02  0.70517573472E+01  0.32778468615E+02  0.47000000000E+01 0.  1.
        -11    1    4    4    0    0  0.39007804702E+02  0.22481203615E+02  0.39956413826E+01  0.45199319615E+02  0.00000000000E+00 0. -1.
         11    1    4    4    0    0  0.22252842235E+02 -0.72237921014E+02  0.20656968721E+02  0.78359534051E+02  0.00000000000E+00 0.  1.
<mgrwt>
<rscale>  0 0.14061565E+03</rscale>
<asrwt>0</asrwt>
<pdfrwt beam="2">  1        1 0.12510568E-01 0.14780665E+03</pdfrwt>
<pdfrwt beam="1">  1       -1 0.37769837E-01 0.14780665E+03</pdfrwt>
<totfact> 0.31409726E+03</totfact>
</mgrwt>
</event>
<event>
 8    1  0.8504141E-006  0.1547480E+03  0.7546771E-02  0.1201769E+00
          1   -1    0    0  501    0  0.00000000000E+00  0.00000000000E+00  0.29790690317E+02  0.29790690317E+02  0.00000000000E+00 0. -1.
         -1   -1    0    0    0  501 -0.00000000000E+00 -0.00000000000E+00 -0.75897920888E+03  0.75897920888E+03  0.00000000000E+00 0.  1.
         23    2    1    2    0    0  0.62516908129E+02  0.74447572563E+02 -0.50508695349E+03  0.52826107754E+03  0.12039987789E+03 0.  0.
         23    2    1    2    0    0 -0.62516908129E+02 -0.74447572563E+02 -0.22410156508E+03  0.26050882166E+03  0.90512594871E+02 0.  0.
          5    1    3    3  502    0  0.66304169956E+02  0.10430464626E+03 -0.42267578389E+03  0.44040051144E+03  0.47000000000E+01 0. -1.
         -5    1    3    3    0  502 -0.37872618272E+01 -0.29857073695E+02 -0.82411169595E+02  0.87860566102E+02  0.47000000000E+01 0.  1.
        -11    1    4    4    0    0 -0.59216464331E+02 -0.74721329193E+01 -0.67203755610E+02  0.89881962519E+02  0.00000000000E+00 0.  1.
         11    1    4    4    0    0 -0.33004437980E+01 -0.66975439644E+02 -0.15689780947E+03  0.17062685914E+03  0.00000000000E+00 0. -1.
<mgrwt>
<rscale>  0 0.14895028E+03</rscale>
<asrwt>0</asrwt>
<pdfrwt beam="1">  1        1 0.45831835E-02 0.15474797E+03</pdfrwt>
<pdfrwt beam="2">  1       -1 0.11676602E+00 0.15474797E+03</pdfrwt>
<totfact> 0.13037188E+03</totfact>
</mgrwt>
</event>
<event>
 8    1  0.8504141E-006  0.2035347E+03  0.7546771E-02  0.1150859E+00
         -2   -1    0    0    0  501 -0.00000000000E+00  0.00000000000E+00  0.12685119244E+03  0.12685119244E+03  0.00000000000E+00 0.  1.
          2   -1    0    0  501    0  0.00000000000E+00 -0.00000000000E+00 -0.48873593554E+03  0.48873593554E+03  0.00000000000E+00 0. -1.
         23    2    1    2    0    0  0.57410658650E+02  0.15003178838E+03  0.62984163898E+01  0.20363209593E+03  0.12498335566E+03 0.  0.
         23    2    1    2    0    0 -0.57410658650E+02 -0.15003178838E+03 -0.36818315949E+03  0.41195503206E+03  0.91337770138E+02 0.  0.
          5    1    3    3  502    0  0.96925905772E+02  0.10706368777E+03 -0.18146235864E+01  0.14450829495E+03  0.47000000000E+01 0.  1.
         -5    1    3    3    0  502 -0.39515247123E+02  0.42968100607E+02  0.81130399762E+01  0.59123800982E+02  0.47000000000E+01 0.  1.
        -11    1    4    4    0    0 -0.19317163680E+02 -0.96201402776E+02 -0.30588074796E+03  0.32123339596E+03  0.00000000000E+00 0.  1.
         11    1    4    4    0    0 -0.38093494970E+02 -0.53830385604E+02 -0.62302411531E+02  0.90721636096E+02  0.00000000000E+00 0. -1.
<mgrwt>
<rscale>  0 0.19867793E+03</rscale>
<asrwt>0</asrwt>
<pdfrwt beam="2">  1        2 0.75190144E-01 0.20353467E+03</pdfrwt>
<pdfrwt beam="1">  1       -2 0.19515568E-01 0.20353467E+03</pdfrwt>
<totfact> 0.13951227E+03</totfact>
</mgrwt>
</event>
<event>
 8    1  0.8504141E-006  0.1432480E+03  0.7546771E-02  0.1219194E+00
         -2   -1    0    0    0  501 -0.00000000000E+00  0.00000000000E+00  0.99625850767E+02  0.99625850767E+02  0.00000000000E+00 0.  1.
          2   -1    0    0  501    0  0.00000000000E+00 -0.00000000000E+00 -0.17205619608E+03  0.17205619608E+03  0.00000000000E+00 0. -1.
         23    2    1    2    0    0 -0.44735958052E+02 -0.53791428581E+02 -0.60877372788E+02  0.15564720502E+03  0.12500069673E+03 0.  0.
         23    2    1    2    0    0  0.44735958052E+02  0.53791428581E+02 -0.11552972529E+02  0.11603484183E+03  0.91846554710E+02 0.  0.
          5    1    3    3  502    0  0.91885942985E+00  0.95089852053E+01  0.32300760112E+02  0.34010207381E+02  0.47000000000E+01 0.  1.
         -5    1    3    3    0  502 -0.45654817482E+02 -0.63300413786E+02 -0.93178132900E+02  0.12163699764E+03  0.47000000000E+01 0.  1.
        -11    1    4    4    0    0  0.15926042091E+02 -0.15017004269E+02 -0.31923325481E+02  0.38707207903E+02  0.00000000000E+00 0. -1.
         11    1    4    4    0    0  0.28809915961E+02  0.68808432850E+02  0.20370352952E+02  0.77327633924E+02  0.00000000000E+00 0.  1.
<mgrwt>
<rscale>  0 0.13572903E+03</rscale>
<asrwt>0</asrwt>
<pdfrwt beam="2">  1        2 0.26470184E-01 0.14324803E+03</pdfrwt>
<pdfrwt beam="1">  1       -2 0.15327054E-01 0.14324803E+03</pdfrwt>
<totfact> 0.63548742E+03</totfact>
</mgrwt>
</event>
<event>
 8    1  0.8504141E-006  0.2139668E+03  0.7546771E-02  0.1143536E+00
         -1   -1    0    0    0  501 -0.00000000000E+00  0.00000000000E+00  0.66427378583E+02  0.66427378583E+02  0.00000000000E+00 0.  1.
          1   -1    0    0  501    0  0.00000000000E+00 -0.00000000000E+00 -0.61348001439E+03  0.61348001439E+03  0.00000000000E+00 0. -1.
         23    2    1    2    0    0  0.14905678073E+03 -0.89095788307E+02 -0.30553954301E+03  0.37300963876E+03  0.12500317951E+03 0.  0.
         23    2    1    2    0    0 -0.14905678073E+03  0.89095788307E+02 -0.24151309280E+03  0.30689775421E+03  0.75509431035E+02 0.  0.
          5    1    3    3  502    0  0.68083522265E+02 -0.11062356259E+03 -0.19024097789E+03  0.23040542154E+03  0.47000000000E+01 0. -1.
         -5    1    3    3    0  502  0.80973258462E+02  0.21527774279E+02 -0.11529856512E+03  0.14260421722E+03  0.47000000000E+01 0. -1.
        -11    1    4    4    0    0 -0.12201603187E+03  0.91417944908E+02 -0.23300761735E+03  0.27845592546E+03  0.00000000000E+00 0. -1.
         11    1    4    4    0    0 -0.27040748857E+02 -0.23221566012E+01 -0.85054754492E+01  0.28441828750E+02  0.00000000000E+00 0.  1.
<mgrwt>
<rscale>  0 0.20753076E+03</rscale>
<asrwt>0</asrwt>
<pdfrwt beam="2">  1        1 0.94381541E-01 0.21396677E+03</pdfrwt>
<pdfrwt beam="1">  1       -1 0.10219597E-01 0.21396677E+03</pdfrwt>
<totfact> 0.19979222E+03</totfact>
</mgrwt>
</event>
<event>
 8    1  0.8504141E-006  0.1222032E+03  0.7546771E-02  0.1249059E+00
         -1   -1    0    0    0  501 -0.00000000000E+00  0.00000000000E+00  0.24387243300E+03  0.24387243300E+03  0.00000000000E+00 0.  1.
          1   -1    0    0  501    0  0.00000000000E+00 -0.00000000000E+00 -0.54522890287E+02  0.54522890287E+02  0.00000000000E+00 0. -1.
         23    2    1    2    0    0  0.24325176448E+02  0.19953226351E+02  0.14106815927E+03  0.18663829008E+03  0.11808378513E+03 0.  0.
         23    2    1    2    0    0 -0.24325176448E+02 -0.19953226351E+02  0.48281383441E+02  0.11175703321E+03  0.95753313433E+02 0.  0.
          5    1    3    3  502    0  0.71669654342E+02  0.20230926194E+02  0.85186681665E+02  0.11324614987E+03  0.47000000000E+01 0. -1.
         -5    1    3    3    0  502 -0.47344477893E+02 -0.27769984357E+00  0.55881477607E+02  0.73392140204E+02  0.47000000000E+01 0.  1.
        -11    1    4    4    0    0  0.33558758016E+02  0.32363048801E+00 -0.22538966635E+00  0.33561075322E+02  0.00000000000E+00 0. -1.
         11    1    4    4    0    0 -0.57883934465E+02 -0.20276856839E+02  0.48506773107E+02  0.78195957886E+02  0.00000000000E+00 0.  1.
<mgrwt>
<rscale>  0 0.11645708E+03</rscale>
<asrwt>0</asrwt>
<pdfrwt beam="2">  1        1 0.83881371E-02 0.12220322E+03</pdfrwt>
<pdfrwt beam="1">  1       -1 0.37518835E-01 0.12220322E+03</pdfrwt>
<totfact> 0.53310940E+03</totfact>
</mgrwt>
</event>
<event>
 8    1  0.8504141E-006  0.1600682E+03  0.7546771E-02  0.1196199E+00
          2   -1    0    0  501    0  0.00000000000E+00  0.00000000000E+00  0.30013172856E+02  0.30013172856E+02  0.00000000000E+00 0. -1.
         -2   -1    0    0    0  501 -0.00000000000E+00 -0.00000000000E+00 -0.72966344987E+03  0.72966344987E+03  0.00000000000E+00 0.  1.
         23    2    1    2    0    0  0.55610691021E+02  0.83085321911E+02 -0.35865876893E+03  0.39275685491E+03  0.12500445943E+03 0.  0.
         23    2    1    2    0    0 -0.55610691021E+02 -0.83085321911E+02 -0.34099150809E+03  0.36691976782E+03  0.91428593742E+02 0.  0.
          5    1    3    3  502    0  0.24486741879E+02  0.31580896666E+02 -0.13622906717E+02  0.42480903350E+02  0.47000000000E+01 0.  1.
         -5    1    3    3    0  502  0.31123949142E+02  0.51504425245E+02 -0.34503586221E+03  0.35027595156E+03  0.47000000000E+01 0.  1.
        -11    1    4    4    0    0  0.36960511905E+01 -0.67421004757E+02 -0.23447269329E+03  0.24400142741E+03  0.00000000000E+00 0.  1.
         11    1    4    4    0    0 -0.59306742211E+02 -0.15664317154E+02 -0.10651881480E+03  0.12291834041E+03  0.00000000000E+00 0. -1.
<mgrwt>
<rscale>  0 0.15353163E+03</rscale>
<asrwt>0</asrwt>
<pdfrwt beam="1">  1        2 0.46174111E-02 0.16006822E+03</pdfrwt>
<pdfrwt beam="2">  1       -2 0.11225592E+00 0.16006822E+03</pdfrwt>
<totfact> 0.11137495E+03</totfact>
</mgrwt>
</event>
<event>
 8    1  0.8504141E-006  0.1324329E+03  0.7546771E-02  0.1236674E+00
          2   -1    0    0  501    0  0.00000000000E+00  0.00000000000E+00  0.42234982840E+03  0.42234982840E+03  0.00000000000E+00 0.  1.
         -2   -1    0    0    0  501 -0.00000000000E+00 -0.00000000000E+00 -0.32602556326E+02  0.32602556326E+02  0.00000000000E+00 0. -1.
         23    2    1    2    0    0  0.67381236971E+01 -0.43192928102E+02  0.20506568853E+03  0.24411145025E+03  0.12500972835E+03 0.  0.
         23    2    1    2    0    0 -0.67381236971E+01  0.43192928102E+02  0.18468158355E+03  0.21084093448E+03  0.91845419058E+02 0.  0.
          5    1    3    3  502    0  0.27502578822E+02 -0.94811817887E+01  0.20198264858E+03  0.20412095673E+03  0.47000000000E+01 0.  1.
         -5    1    3    3    0  502 -0.20764455125E+02 -0.33711746313E+02  0.30830399464E+01  0.39990493513E+02  0.47000000000E+01 0.  1.
        -11    1    4    4    0    0 -0.31526588131E+02 -0.87360536160E+01  0.11948667531E+03  0.12388426038E+03  0.00000000000E+00 0.  1.
         11    1    4    4    0    0  0.24788464434E+02  0.51928981718E+02  0.65194908232E+02  0.86956674100E+02  0.00000000000E+00 0. -1.
<mgrwt>
<rscale>  0 0.12397856E+03</rscale>
<asrwt>0</asrwt>
<pdfrwt beam="1">  1        2 0.64976893E-01 0.13243286E+03</pdfrwt>
<pdfrwt beam="2">  1       -2 0.50157782E-02 0.13243286E+03</pdfrwt>
<totfact> 0.13811681E+04</totfact>
</mgrwt>
</event>
<event>
 8    1  0.8504141E-006  0.1283955E+03  0.7546771E-02  0.1245234E+00
         -1   -1    0    0    0  501 -0.00000000000E+00  0.00000000000E+00  0.81557964336E+02  0.81557964336E+02  0.00000000000E+00 0.  1.
          1   -1    0    0  501    0  0.00000000000E+00 -0.00000000000E+00 -0.15153215604E+03  0.15153215604E+03  0.00000000000E+00 0. -1.
         23    2    1    2    0    0  0.24061566612E+02  0.16733955118E+02 -0.44046029845E+02  0.13574039184E+03  0.12500566783E+03 0.  0.
         23    2    1    2    0    0 -0.24061566612E+02 -0.16733955118E+02 -0.25928161861E+02  0.97349728539E+02  0.89138744816E+02 0.  0.
          5    1    3    3  502    0  0.17188864471E+02  0.28813239097E+02 -0.85392932612E+02  0.91867854819E+02  0.47000000000E+01 0.  1.
         -5    1    3    3    0  502  0.68727021403E+01 -0.12079283979E+02  0.41346902767E+02  0.43872537020E+02  0.47000000000E+01 0.  1.
        -11    1    4    4    0    0 -0.18103248487E+02 -0.52770857478E+02 -0.70496762731E+01  0.56233343670E+02  0.00000000000E+00 0.  1.
         11    1    4    4    0    0 -0.59583181247E+01  0.36036902360E+02 -0.18878485588E+02  0.41116384869E+02  0.00000000000E+00 0. -1.
<mgrwt>
<rscale>  0 0.11871392E+03</rscale>
<asrwt>0</asrwt>
<pdfrwt beam="2">  1        1 0.23312639E-01 0.12839549E+03</pdfrwt>
<pdfrwt beam="1">  1       -1 0.12547379E-01 0.12839549E+03</pdfrwt>
<totfact> 0.84066317E+03</totfact>
</mgrwt>
</event>
<event>
 8    1  0.8504141E-006  0.1435043E+03  0.7546771E-02  0.1218521E+00
         -1   -1    0    0    0  501 -0.00000000000E+00  0.00000000000E+00  0.14191771503E+03  0.14191771503E+03  0.00000000000E+00 0.  1.
          1   -1    0    0  501    0  0.00000000000E+00 -0.00000000000E+00 -0.11919510113E+03  0.11919510113E+03  0.00000000000E+00 0. -1.
         23    2    1    2    0    0  0.16368825238E+02 -0.68556219680E+02  0.16789817344E+02  0.14448310896E+03  0.12500230843E+03 0.  0.
         23    2    1    2    0    0 -0.16368825238E+02  0.68556219680E+02  0.59327965627E+01  0.11662970720E+03  0.92732932819E+02 0.  0.
          5    1    3    3  502    0 -0.41874548268E+02 -0.63582369919E+02  0.33786803404E+02  0.83425617417E+02  0.47000000000E+01 0. -1.
         -5    1    3    3    0  502  0.58243373506E+02 -0.49738497607E+01 -0.16996986060E+02  0.61057491547E+02  0.47000000000E+01 0. -1.
        -11    1    4    4    0    0  0.55663615262E+01  0.61680057790E+02  0.41306950910E+02  0.74442448261E+02  0.00000000000E+00 0.  1.
         11    1    4    4    0    0 -0.21935186765E+02  0.68761618901E+01 -0.35374154347E+02  0.42187258936E+02  0.00000000000E+00 0. -1.
<mgrwt>
<rscale>  0 0.13621039E+03</rscale>
<asrwt>0</asrwt>
<pdfrwt beam="2">  1        1 0.18337708E-01 0.14350425E+03</pdfrwt>
<pdfrwt beam="1">  1       -1 0.21833495E-01 0.14350425E+03</pdfrwt>
<totfact> 0.47855988E+03</totfact>
</mgrwt>
</event>
<event>
 8    1  0.8504141E-006  0.1423064E+03  0.7546771E-02  0.1221974E+00
         -1   -1    0    0    0  501 -0.00000000000E+00  0.00000000000E+00  0.39365719782E+02  0.39365719782E+02  0.00000000000E+00 0.  1.
          1   -1    0    0  501    0  0.00000000000E+00 -0.00000000000E+00 -0.43769132271E+03  0.43769132271E+03  0.00000000000E+00 0. -1.
         23    2    1    2    0    0  0.11938603000E+02  0.66977324731E+02 -0.16012066905E+03  0.21421892559E+03  0.12499050826E+03 0.  0.
         23    2    1    2    0    0 -0.11938603000E+02 -0.66977324731E+02 -0.23820493388E+03  0.26283811690E+03  0.87828201070E+02 0.  0.
          5    1    3    3  502    0  0.34377745468E+02 -0.74996425270E+01  0.70824127740E+00  0.35505853422E+02  0.47000000000E+01 0. -1.
         -5    1    3    3    0  502 -0.22439142468E+02  0.74476967258E+02 -0.16082891033E+03  0.17871307217E+03  0.47000000000E+01 0. -1.
        -11    1    4    4    0    0 -0.38710185991E+02 -0.73577616887E+02 -0.18791301114E+03  0.20548343963E+03  0.00000000000E+00 0. -1.
         11    1    4    4    0    0  0.26771582991E+02  0.66002921563E+01 -0.50291922735E+02  0.57354677270E+02  0.00000000000E+00 0.  1.
<mgrwt>
<rscale>  0 0.13376511E+03</rscale>
<asrwt>0</asrwt>
<pdfrwt beam="2">  1        1 0.67337124E-01 0.14230643E+03</pdfrwt>
<pdfrwt beam="1">  1       -1 0.60562648E-02 0.14230643E+03</pdfrwt>
<totfact> 0.68116616E+03</totfact>
</mgrwt>
</event>
<event>
 8    1  0.8504141E-006  0.1284405E+03  0.7546771E-02  0.1231242E+00
          1   -1    0    0  501    0  0.00000000000E+00  0.00000000000E+00  0.29464967917E+03  0.29464967917E+03  0.00000000000E+00 0. -1.
         -1   -1    0    0    0  501 -0.00000000000E+00 -0.00000000000E+00 -0.65777626589E+02  0.65777626589E+02  0.00000000000E+00 0.  1.
         23    2    1    2    0    0 -0.28776475615E+02 -0.65666133688E+01  0.40734179002E+02  0.13474511813E+03  0.12500307020E+03 0.  0.
         23    2    1    2    0    0  0.28776475615E+02  0.65666133688E+01  0.18813787357E+03  0.22568218763E+03  0.12110071998E+03 0.  0.
          5    1    3    3  502    0 -0.73985912413E+02  0.18242794077E+02  0.19654893782E+02  0.78836029967E+02  0.47000000000E+01 0. -1.
         -5    1    3    3    0  502  0.45209436798E+02 -0.24809407446E+02  0.21079285221E+02  0.55909088159E+02  0.47000000000E+01 0. -1.
        -11    1    4    4    0    0 -0.41697374548E+02  0.26017713020E+02  0.97906439087E+02  0.10955027727E+03  0.00000000000E+00 0.  1.
         11    1    4    4    0    0  0.70473850163E+02 -0.19451099651E+02  0.90231434488E+02  0.11613191036E+03  0.00000000000E+00 0. -1.
<mgrwt>
<rscale>  0 0.12748118E+03</rscale>
<asrwt>0</asrwt>
<pdfrwt beam="1">  1        1 0.45330719E-01 0.12844054E+03</pdfrwt>
<pdfrwt beam="2">  1       -1 0.10119635E-01 0.12844054E+03</pdfrwt>
<totfact> 0.51233402E+03</totfact>
</mgrwt>
</event>
<event>
 8    1  0.8504141E-006  0.1314600E+03  0.7546771E-02  0.1238520E+00
          1   -1    0    0  501    0  0.00000000000E+00  0.00000000000E+00  0.60089841493E+02  0.60089841493E+02  0.00000000000E+00 0. -1.
         -1   -1    0    0    0  501 -0.00000000000E+00 -0.00000000000E+00 -0.22390568449E+03  0.22390568449E+03  0.00000000000E+00 0.  1.
         23    2    1    2    0    0  0.38784511915E+02  0.12078018008E+02 -0.10092696470E+03  0.16573469611E+03  0.12502647883E+03 0.  0.
         23    2    1    2    0    0 -0.38784511915E+02 -0.12078018008E+02 -0.62888878294E+02  0.11826082987E+03  0.91545048938E+02 0.  0.
          5    1    3    3  502    0  0.52518057105E+02  0.52963734976E+02 -0.96597851768E+02  0.12213328175E+03  0.47000000000E+01 0. -1.
         -5    1    3    3    0  502 -0.13733545191E+02 -0.40885716968E+02 -0.43291129322E+01  0.43601414361E+02  0.47000000000E+01 0. -1.
        -11    1    4    4    0    0 -0.54757269314E+02 -0.40119117498E+02 -0.42731853096E+02  0.80211678705E+02  0.00000000000E+00 0.  1.
         11    1    4    4    0    0  0.15972757399E+02  0.28041099491E+02 -0.20157025198E+02  0.38049151165E+02  0.00000000000E+00 0. -1.
<mgrwt>
<rscale>  0 0.12281777E+03</rscale>
<asrwt>0</asrwt>
<pdfrwt beam="1">  1        1 0.92445910E-02 0.13146002E+03</pdfrwt>
<pdfrwt beam="2">  1       -1 0.34447028E-01 0.13146002E+03</pdfrwt>
<totfact> 0.54529913E+03</totfact>
</mgrwt>
</event>
<event>
 8    1  0.8504141E-006  0.1401140E+03  0.7546771E-02  0.1223538E+00
         -2   -1    0    0    0  501 -0.00000000000E+00  0.00000000000E+00  0.60880187613E+03  0.60880187613E+03  0.00000000000E+00 0.  1.
          2   -1    0    0  501    0  0.00000000000E+00 -0.00000000000E+00 -0.27355643280E+02  0.27355643280E+02  0.00000000000E+00 0. -1.
         23    2    1    2    0    0  0.25092053846E+02  0.58114805204E+02  0.38501595305E+03  0.40971847212E+03  0.12500000219E+03 0.  0.
         23    2    1    2    0    0 -0.25092053846E+02 -0.58114805204E+02  0.19643027981E+03  0.22643904729E+03  0.93181787720E+02 0.  0.
          5    1    3    3  502    0  0.28364706657E+02 -0.35779505918E+02  0.11764264926E+03  0.12627989766E+03  0.47000000000E+01 0. -1.
         -5    1    3    3    0  502 -0.32726528102E+01  0.93894311122E+02  0.26737330378E+03  0.28343857446E+03  0.47000000000E+01 0. -1.
        -11    1    4    4    0    0  0.18906035014E+02  0.53189504368E+01  0.10479542360E+03  0.10661993341E+03  0.00000000000E+00 0.  1.
         11    1    4    4    0    0 -0.43998088860E+02 -0.63433755641E+02  0.91634856208E+02  0.11981911388E+03  0.00000000000E+00 0. -1.
<mgrwt>
<rscale>  0 0.13267620E+03</rscale>
<asrwt>0</asrwt>
<pdfrwt beam="2">  1        2 0.42085609E-02 0.14011403E+03</pdfrwt>
<pdfrwt beam="1">  1       -2 0.93661817E-01 0.14011403E+03</pdfrwt>
<totfact> 0.19020914E+03</totfact>
</mgrwt>
</event>
<event>
 8    1  0.8504141E-006  0.1261341E+03  0.7546771E-02  0.1250642E+00
          1   -1    0    0  501    0  0.00000000000E+00  0.00000000000E+00  0.27399943578E+02  0.27399943578E+02  0.00000000000E+00 0. -1.
         -1   -1    0    0    0  501 -0.00000000000E+00 -0.00000000000E+00 -0.56960282525E+03  0.56960282525E+03  0.00000000000E+00 0.  1.
         23    2    1    2    0    0  0.24520118462E+01 -0.16722262869E+02 -0.45643998604E+03  0.47354753556E+03  0.12499664451E+03 0.  0.
         23    2    1    2    0    0 -0.24520118462E+01  0.16722262869E+02 -0.85762895632E+02  0.12345523327E+03  0.87179549879E+02 0.  0.
          5    1    3    3  502    0 -0.83931694316E+00 -0.17834910267E+02 -0.14497121778E+01  0.18519723069E+02  0.47000000000E+01 0.  1.
         -5    1    3    3    0  502  0.32913287894E+01  0.11126473982E+01 -0.45499027386E+03  0.45502781249E+03  0.47000000000E+01 0.  1.
        -11    1    4    4    0    0 -0.36129777901E+02 -0.18032436610E+02 -0.37473111978E+02  0.55088689789E+02  0.00000000000E+00 0.  1.
         11    1    4    4    0    0  0.33677766055E+02  0.34754699479E+02 -0.48289783654E+02  0.68366543482E+02  0.00000000000E+00 0. -1.
<mgrwt>
<rscale>  0 0.11553961E+03</rscale>
<asrwt>0</asrwt>
<pdfrwt beam="1">  1        1 0.42153760E-02 0.12613409E+03</pdfrwt>
<pdfrwt beam="2">  1       -1 0.87631202E-01 0.12613409E+03</pdfrwt>
<totfact> 0.27329797E+03</totfact>
</mgrwt>
</event>
<event>
 8    1  0.8504141E-006  0.1253525E+03  0.7546771E-02  0.1248794E+00
          1   -1    0    0  501    0  0.00000000000E+00  0.00000000000E+00  0.13624363934E+03  0.13624363934E+03  0.00000000000E+00 0. -1.
         -1   -1    0    0    0  501 -0.00000000000E+00 -0.00000000000E+00 -0.20751327731E+03  0.20751327731E+03  0.00000000000E+00 0.  1.
         23    2    1    2    0    0  0.89923652467E+01 -0.27961343897E+01 -0.16757068827E+03  0.20926818488E+03  0.12499822654E+03 0.  0.
         23    2    1    2    0    0 -0.89923652467E+01  0.27961343897E+01  0.96301050302E+02  0.13448873177E+03  0.93405811832E+02 0.  0.
          5    1    3    3  502    0  0.27854471698E+01  0.73275954966E+01  0.19618834035E+02  0.21643498345E+02  0.47000000000E+01 0. -1.
         -5    1    3    3    0  502  0.62069180768E+01 -0.10123729886E+02 -0.18718952230E+03  0.18762468654E+03  0.47000000000E+01 0. -1.
        -11    1    4    4    0    0  0.38830630619E+02  0.14767592861E+02  0.27394981387E+02  0.49763286451E+02  0.00000000000E+00 0.  1.
         11    1    4    4    0    0 -0.47822995865E+02 -0.11971458472E+02  0.68906068914E+02  0.84725445320E+02  0.00000000000E+00 0. -1.
<mgrwt>
<rscale>  0 0.11661170E+03</rscale>
<asrwt>0</asrwt>
<pdfrwt beam="1">  1        1 0.20960560E-01 0.12535245E+03</pdfrwt>
<pdfrwt beam="2">  1       -1 0.31925120E-01 0.12535245E+03</pdfrwt>
<totfact> 0.21388095E+03</totfact>
</mgrwt>
</event>
<event>
 8    1  0.8504141E-006  0.1697793E+03  0.7546771E-02  0.1184540E+00
          1   -1    0    0  501    0  0.00000000000E+00  0.00000000000E+00  0.10923481104E+04  0.10923481104E+04  0.00000000000E+00 0. -1.
         -1   -1    0    0    0  501 -0.00000000000E+00 -0.00000000000E+00 -0.22948809902E+02  0.22948809902E+02  0.00000000000E+00 0.  1.
         23    2    1    2    0    0 -0.81975596620E+01 -0.11459943219E+03  0.57026482733E+03  0.59500166374E+03  0.12499910687E+03 0.  0.
         23    2    1    2    0    0  0.81975596620E+01  0.11459943219E+03  0.49913447317E+03  0.52029525657E+03  0.91497004625E+02 0.  0.
          5    1    3    3  502    0  0.37937811127E+02 -0.24774003368E+01  0.65694904386E+02  0.76048178728E+02  0.47000000000E+01 0.  1.
         -5    1    3    3    0  502 -0.46135370789E+02 -0.11212203185E+03  0.50456992295E+03  0.51895348501E+03  0.47000000000E+01 0.  1.
        -11    1    4    4    0    0  0.34663423556E+02  0.11480086580E+03  0.42417033056E+03  0.44079616724E+03  0.00000000000E+00 0. -1.
         11    1    4    4    0    0 -0.26465863894E+02 -0.20143361268E+00  0.74964142612E+02  0.79499089333E+02  0.00000000000E+00 0.  1.
<mgrwt>
<rscale>  0 0.16373807E+03</rscale>
<asrwt>0</asrwt>
<pdfrwt beam="1">  1        1 0.16805351E+00 0.16977929E+03</pdfrwt>
<pdfrwt beam="2">  1       -1 0.35305870E-02 0.16977929E+03</pdfrwt>
<totfact> 0.40000002E+03</totfact>
</mgrwt>
</event>
<event>
 8    1  0.8504141E-006  0.1361499E+03  0.7546771E-02  0.1230236E+00
         -1   -1    0    0    0  501 -0.00000000000E+00  0.00000000000E+00  0.12680140881E+03  0.12680140881E+03  0.00000000000E+00 0.  1.
          1   -1    0    0  501    0  0.00000000000E+00 -0.00000000000E+00 -0.11718955763E+03  0.11718955763E+03  0.00000000000E+00 0. -1.
         23    2    1    2    0    0 -0.42151818319E+02  0.33700778967E+02 -0.44851495607E+01  0.13622374490E+03  0.12499709524E+03 0.  0.
         23    2    1    2    0    0  0.42151818319E+02 -0.33700778967E+02  0.14097000746E+02  0.10776722153E+03  0.92209166120E+02 0.  0.
          5    1    3    3  502    0  0.29166650155E+02 -0.73923967909E+01  0.33651964193E+02  0.45385963751E+02  0.47000000000E+01 0.  1.
         -5    1    3    3    0  502 -0.71318468474E+02  0.41093175758E+02 -0.38137113753E+02  0.90837781153E+02  0.47000000000E+01 0.  1.
        -11    1    4    4    0    0 -0.27779441138E+02 -0.20560324218E+02 -0.26695499158E+01  0.34663392487E+02  0.00000000000E+00 0.  1.
         11    1    4    4    0    0  0.69931259457E+02 -0.13140454748E+02  0.16766550662E+02  0.73103829047E+02  0.00000000000E+00 0. -1.
<mgrwt>
<rscale>  0 0.12814383E+03</rscale>
<asrwt>0</asrwt>
<pdfrwt beam="2">  1        1 0.18029163E-01 0.13614989E+03</pdfrwt>
<pdfrwt beam="1">  1       -1 0.19507909E-01 0.13614989E+03</pdfrwt>
<totfact> 0.58447460E+03</totfact>
</mgrwt>
</event>
<event>
 8    1  0.8504141E-006  0.1359212E+03  0.7546771E-02  0.1221342E+00
          1   -1    0    0  501    0  0.00000000000E+00  0.00000000000E+00  0.30525006974E+03  0.30525006974E+03  0.00000000000E+00 0. -1.
         -1   -1    0    0    0  501 -0.00000000000E+00 -0.00000000000E+00 -0.14945967031E+03  0.14945967031E+03  0.00000000000E+00 0.  1.
         23    2    1    2    0    0  0.32813760316E+02  0.42115938190E+02 -0.99595234303E+02  0.16850452090E+03  0.12499627096E+03 0.  0.
         23    2    1    2    0    0 -0.32813760316E+02 -0.42115938190E+02  0.25538563374E+03  0.28620521914E+03  0.11764824873E+03 0.  0.
          5    1    3    3  502    0  0.17657699049E+02  0.33381520977E+02 -0.12870845927E+03  0.13421653314E+03  0.47000000000E+01 0. -1.
         -5    1    3    3    0  502  0.15156061267E+02  0.87344172132E+01  0.29113224969E+02  0.34287987769E+02  0.47000000000E+01 0. -1.
        -11    1    4    4    0    0  0.21253356003E+02  0.21256467892E+02  0.14406287874E+03  0.14716540218E+03  0.00000000000E+00 0. -1.
         11    1    4    4    0    0 -0.54067116319E+02 -0.63372406083E+02  0.11132275499E+03  0.13903981696E+03  0.00000000000E+00 0.  1.
<mgrwt>
<rscale>  0 0.13420774E+03</rscale>
<asrwt>0</asrwt>
<pdfrwt beam="1">  1        1 0.46961549E-01 0.13592116E+03</pdfrwt>
<pdfrwt beam="2">  1       -1 0.22993795E-01 0.13592116E+03</pdfrwt>
<totfact> 0.13542828E+03</totfact>
</mgrwt>
</event>
<event>
 8    1  0.8504141E-006  0.1308436E+03  0.7546771E-02  0.1242872E+00
          2   -1    0    0  501    0  0.00000000000E+00  0.00000000000E+00  0.87938124043E+01  0.87938124043E+01  0.00000000000E+00 0. -1.
         -2   -1    0    0    0  501 -0.00000000000E+00 -0.00000000000E+00 -0.17915376865E+04  0.17915376865E+04  0.00000000000E+00 0.  1.
         23    2    1    2    0    0  0.17970178903E+00 -0.38662541408E+02 -0.14140736450E+04  0.14201141917E+04  0.12500087942E+03 0.  0.
         23    2    1    2    0    0 -0.17970178903E+00  0.38662541408E+02 -0.36867022910E+03  0.38021730711E+03  0.84573272388E+02 0.  0.
          5    1    3    3  502    0 -0.19799979454E+02 -0.57241152539E+02 -0.32147577243E+03  0.32716563235E+03  0.47000000000E+01 0.  1.
         -5    1    3    3    0  502  0.19979681243E+02  0.18578611131E+02 -0.10925978725E+04  0.10929485594E+04  0.47000000000E+01 0.  1.
        -11    1    4    4    0    0 -0.39759563003E+02  0.35465993747E+02 -0.20950471486E+03  0.21617327566E+03  0.00000000000E+00 0.  1.
         11    1    4    4    0    0  0.39579861214E+02  0.31965476612E+01 -0.15916551424E+03  0.16404403145E+03  0.00000000000E+00 0. -1.
<mgrwt>
<rscale>  0 0.12013662E+03</rscale>
<asrwt>0</asrwt>
<pdfrwt beam="1">  1        2 0.13528943E-02 0.13084359E+03</pdfrwt>
<pdfrwt beam="2">  1       -2 0.27562117E+00 0.13084359E+03</pdfrwt>
<totfact> 0.47134827E+02</totfact>
</mgrwt>
</event>
<event>
 8    1  0.8504141E-006  0.1484763E+03  0.7546771E-02  0.1212722E+00
         -1   -1    0    0    0  501 -0.00000000000E+00  0.00000000000E+00  0.77406439846E+03  0.77406439846E+03  0.00000000000E+00 0.  1.
          1   -1    0    0  501    0  0.00000000000E+00 -0.00000000000E+00 -0.23101585918E+02  0.23101585918E+02  0.00000000000E+00 0. -1.
         23    2    1    2    0    0 -0.80060835190E+02 -0.32126458341E+01  0.42681362198E+03  0.45190162561E+03  0.12500061160E+03 0.  0.
         23    2    1    2    0    0  0.80060835190E+02  0.32126458341E+01  0.32414919057E+03  0.34526435877E+03  0.87833486021E+02 0.  0.
          5    1    3    3  502    0 -0.14580550256E+02 -0.14945784698E+02  0.15692550121E+01  0.21459764381E+02  0.47000000000E+01 0. -1.
         -5    1    3    3    0  502 -0.65480284934E+02  0.11733138864E+02  0.42524436697E+03  0.43044186123E+03  0.47000000000E+01 0. -1.
        -11    1    4    4    0    0  0.40216272712E+02 -0.34327159257E+02  0.86407092963E+02  0.10130097812E+03  0.00000000000E+00 0. -1.
         11    1    4    4    0    0  0.39844562478E+02  0.37539805091E+02  0.23774209760E+03  0.24396338065E+03  0.00000000000E+00 0.  1.
<mgrwt>
<rscale>  0 0.14045234E+03</rscale>
<asrwt>0</asrwt>
<pdfrwt beam="2">  1        1 0.35540907E-02 0.14847630E+03</pdfrwt>
<pdfrwt beam="1">  1       -1 0.11908681E+00 0.14847630E+03</pdfrwt>
<totfact> 0.17655826E+03</totfact>
</mgrwt>
</event>
<event>
 8    1  0.8504141E-006  0.1777622E+03  0.7546771E-02  0.1175945E+00
         -1   -1    0    0    0  501 -0.00000000000E+00  0.00000000000E+00  0.26963593689E+02  0.26963593689E+02  0.00000000000E+00 0.  1.
          1   -1    0    0  501    0  0.00000000000E+00 -0.00000000000E+00 -0.10783579101E+04  0.10783579101E+04  0.00000000000E+00 0. -1.
         23    2    1    2    0    0 -0.43732527673E+02 -0.11856958376E+03 -0.44051183082E+03  0.47502638636E+03  0.12501245731E+03 0.  0.
         23    2    1    2    0    0  0.43732527673E+02  0.11856958376E+03 -0.61088248555E+03  0.63029511738E+03  0.90129039014E+02 0.  0.
          5    1    3    3  502    0 -0.54866983471E+02 -0.58968508758E+02 -0.38271985232E+03  0.39113200618E+03  0.47000000000E+01 0.  1.
         -5    1    3    3    0  502  0.11134455798E+02 -0.59601075003E+02 -0.57791978496E+02  0.83894380181E+02  0.47000000000E+01 0.  1.
        -11    1    4    4    0    0  0.10862809705E+02  0.11314494748E+03 -0.54186091303E+03  0.55365425028E+03  0.00000000000E+00 0. -1.
         11    1    4    4    0    0  0.32869717968E+02  0.54246362803E+01 -0.69021572519E+02  0.76640867108E+02  0.00000000000E+00 0.  1.
<mgrwt>
<rscale>  0 0.17183805E+03</rscale>
<asrwt>0</asrwt>
<pdfrwt beam="2">  1        1 0.16590120E+00 0.17776219E+03</pdfrwt>
<pdfrwt beam="1">  1       -1 0.41482457E-02 0.17776219E+03</pdfrwt>
<totfact> 0.32303718E+03</totfact>
</mgrwt>
</event>
<event>
 8    1  0.8504141E-006  0.1832513E+03  0.7546771E-02  0.1169248E+00
         -1   -1    0    0    0  501 -0.00000000000E+00  0.00000000000E+00  0.15289912693E+03  0.15289912693E+03  0.00000000000E+00 0.  1.
          1   -1    0    0  501    0  0.00000000000E+00 -0.00000000000E+00 -0.31721232675E+03  0.31721232675E+03  0.00000000000E+00 0. -1.
         23    2    1    2    0    0  0.11047268333E+02 -0.13354121535E+03  0.58930241099E+02  0.19249364111E+03  0.12500292084E+03 0.  0.
         23    2    1    2    0    0 -0.11047268333E+02  0.13354121535E+03 -0.22324344091E+03  0.27761781257E+03  0.96326100353E+02 0.  0.
          5    1    3    3  502    0 -0.10622755227E+02 -0.39445990864E+02 -0.37714978268E+02  0.55797300200E+02  0.47000000000E+01 0.  1.
         -5    1    3    3    0  502  0.21670023560E+02 -0.94095224489E+02  0.96645219366E+02  0.13669634091E+03  0.47000000000E+01 0.  1.
        -11    1    4    4    0    0  0.71952835839E+01  0.10926146420E+03 -0.22163223509E+03  0.24720575903E+03  0.00000000000E+00 0. -1.
         11    1    4    4    0    0 -0.18242551917E+02  0.24279751150E+02 -0.16112058228E+01  0.30412053540E+02  0.00000000000E+00 0.  1.
<mgrwt>
<rscale>  0 0.17851479E+03</rscale>
<asrwt>0</asrwt>
<pdfrwt beam="2">  1        1 0.48801896E-01 0.18325127E+03</pdfrwt>
<pdfrwt beam="1">  1       -1 0.23522943E-01 0.18325127E+03</pdfrwt>
<totfact> 0.12513431E+03</totfact>
</mgrwt>
</event>
<event>
 8    1  0.8504141E-006  0.1337342E+03  0.7546771E-02  0.1234782E+00
          1   -1    0    0  501    0  0.00000000000E+00  0.00000000000E+00  0.67554020708E+02  0.67554020708E+02  0.00000000000E+00 0. -1.
         -1   -1    0    0    0  501 -0.00000000000E+00 -0.00000000000E+00 -0.20965544477E+03  0.20965544477E+03  0.00000000000E+00 0.  1.
         23    2    1    2    0    0  0.45146109461E+02 -0.14924098652E+02 -0.96203393529E+02  0.16474201399E+03  0.12499575324E+03 0.  0.
         23    2    1    2    0    0 -0.45146109461E+02  0.14924098652E+02 -0.45898030530E+02  0.11246745148E+03  0.91002189622E+02 0.  0.
          5    1    3    3  502    0 -0.24190971351E+01  0.21346112607E+02 -0.10211022058E+03  0.10445140354E+03  0.47000000000E+01 0. -1.
         -5    1    3    3    0  502  0.47565206596E+02 -0.36270211260E+02  0.59068270508E+01  0.60290610456E+02  0.47000000000E+01 0. -1.
        -11    1    4    4    0    0 -0.40201125021E+02  0.42680496910E+02 -0.57368561048E+02  0.82029915678E+02  0.00000000000E+00 0. -1.
         11    1    4    4    0    0 -0.49449844396E+01 -0.27756398257E+02  0.11470530518E+02  0.30437535802E+02  0.00000000000E+00 0.  1.
<mgrwt>
<rscale>  0 0.12518399E+03</rscale>
<asrwt>0</asrwt>
<pdfrwt beam="1">  1        1 0.10392926E-01 0.13373421E+03</pdfrwt>
<pdfrwt beam="2">  1       -1 0.32254683E-01 0.13373421E+03</pdfrwt>
<totfact> 0.52280022E+03</totfact>
</mgrwt>
</event>
<event>
 8    1  0.8504141E-006  0.1533243E+03  0.7546771E-02  0.1205061E+00
          1   -1    0    0  501    0  0.00000000000E+00  0.00000000000E+00  0.84500840093E+02  0.84500840093E+02  0.00000000000E+00 0. -1.
         -1   -1    0    0    0  501 -0.00000000000E+00 -0.00000000000E+00 -0.23627084916E+03  0.23627084916E+03  0.00000000000E+00 0.  1.
         23    2    1    2    0    0 -0.11811326301E+02 -0.87966371145E+02 -0.10218803979E+03  0.18425725342E+03  0.12502299821E+03 0.  0.
         23    2    1    2    0    0  0.11811326301E+02  0.87966371145E+02 -0.49581969279E+02  0.13651443584E+03  0.91105596056E+02 0.  0.
          5    1    3    3  502    0 -0.18306750179E+02  0.18936490298E+01 -0.91451824502E+02  0.93403689507E+02  0.47000000000E+01 0.  1.
         -5    1    3    3    0  502  0.64954238778E+01 -0.89860020175E+02 -0.10736215290E+02  0.90853563914E+02  0.47000000000E+01 0.  1.
        -11    1    4    4    0    0  0.34543987902E+02  0.10708338972E+02 -0.42299842749E+02  0.55652783581E+02  0.00000000000E+00 0.  1.
         11    1    4    4    0    0 -0.22732661601E+02  0.77258032173E+02 -0.72821265297E+01  0.80861652255E+02  0.00000000000E+00 0. -1.
<mgrwt>
<rscale>  0 0.14632658E+03</rscale>
<asrwt>0</asrwt>
<pdfrwt beam="1">  1        1 0.13000129E-01 0.15332430E+03</pdfrwt>
<pdfrwt beam="2">  1       -1 0.36349361E-01 0.15332430E+03</pdfrwt>
<totfact> 0.31982365E+03</totfact>
</mgrwt>
</event>
<event>
 8    1  0.8504141E-006  0.2475840E+03  0.7546771E-02  0.1117417E+00
         -1   -1    0    0    0  501 -0.00000000000E+00  0.00000000000E+00  0.20504754771E+03  0.20504754771E+03  0.00000000000E+00 0.  1.
          1   -1    0    0  501    0  0.00000000000E+00 -0.00000000000E+00 -0.41854983175E+03  0.41854983175E+03  0.00000000000E+00 0. -1.
         23    2    1    2    0    0  0.23253821279E+01 -0.21370300177E+03  0.69959399468E+02  0.25727834508E+03  0.12499379548E+03 0.  0.
         23    2    1    2    0    0 -0.23253821279E+01  0.21370300177E+03 -0.28346168351E+03  0.36631903438E+03  0.90358887568E+02 0.  0.
          5    1    3    3  502    0  0.18731759723E+02 -0.17370358210E+01  0.37427893605E+02  0.42152500940E+02  0.47000000000E+01 0. -1.
         -5    1    3    3    0  502 -0.16406377595E+02 -0.21196596594E+03  0.32531505863E+02  0.21512584414E+03  0.47000000000E+01 0. -1.
        -11    1    4    4    0    0 -0.21671610671E+02  0.13215664963E+03 -0.10864023953E+03  0.17244634063E+03  0.00000000000E+00 0.  1.
         11    1    4    4    0    0  0.19346228543E+02  0.81546352131E+02 -0.17482144399E+03  0.19387269375E+03  0.00000000000E+00 0. -1.
<mgrwt>
<rscale>  0 0.24360104E+03</rscale>
<asrwt>0</asrwt>
<pdfrwt beam="2">  1        1 0.64392281E-01 0.24758398E+03</pdfrwt>
<pdfrwt beam="1">  1       -1 0.31545777E-01 0.24758398E+03</pdfrwt>
<totfact> 0.53836083E+02</totfact>
</mgrwt>
</event>
<event>
 7    1  0.8504141E-006  0.1728837E+03  0.7546771E-02  0.1192696E+00
          1   -1    0    0  501    0  0.00000000000E+00  0.00000000000E+00  0.18426167322E+03  0.18426167322E+03  0.00000000000E+00 0. -1.
         -1   -1    0    0    0  501 -0.00000000000E+00 -0.00000000000E+00 -0.18201582265E+03  0.18201582265E+03  0.00000000000E+00 0.  1.
         23    2    1    2    0    0  0.89221369755E+01  0.76728611798E+02  0.11213732445E+03  0.16142409657E+03  0.86695299882E+02 0.  0.
          5    1    1    2  502    0  0.62468796297E+02  0.64317976985E+01 -0.35281673727E+02  0.72184520733E+02  0.47000000000E+01 0. -1.
         -5    1    1    2    0  502 -0.71390933272E+02 -0.83160409496E+02 -0.74609800154E+02  0.13266887857E+03  0.47000000000E+01 0.  1.
        -11    1    3    3    0    0  0.26865606261E+02  0.24641783983E+01  0.15647842042E+01  0.27023721515E+02  0.00000000000E+00 0.  1.
         11    1    3    3    0    0 -0.17943469285E+02  0.74264433400E+02  0.11057254025E+03  0.13440037505E+03  0.00000000000E+00 0. -1.
<mgrwt>
<rscale>  0 0.15650878E+03</rscale>
<asrwt>0</asrwt>
<pdfrwt beam="1">  1        1 0.28347950E-01 0.17288372E+03</pdfrwt>
<pdfrwt beam="2">  1       -1 0.28002434E-01 0.17288372E+03</pdfrwt>
<totfact> 0.18444548E+03</totfact>
</mgrwt>
</event>
<event>
 8    1  0.8504141E-006  0.1377176E+03  0.7546771E-02  0.1226548E+00
         -2   -1    0    0    0  501 -0.00000000000E+00  0.00000000000E+00  0.20028128682E+02  0.20028128682E+02  0.00000000000E+00 0.  1.
          2   -1    0    0  501    0  0.00000000000E+00 -0.00000000000E+00 -0.77558720204E+03  0.77558720204E+03  0.00000000000E+00 0. -1.
         23    2    1    2    0    0 -0.18601095537E+02 -0.60940646543E+02 -0.40514452940E+03  0.42791148307E+03  0.12209170520E+03 0.  0.
         23    2    1    2    0    0  0.18601095537E+02  0.60940646543E+02 -0.35041454396E+03  0.36770384766E+03  0.91411179895E+02 0.  0.
          5    1    3    3  502    0 -0.10754853288E+02 -0.39791079643E+02 -0.40259669499E+03  0.40472853335E+03  0.47000000000E+01 0. -1.
         -5    1    3    3    0  502 -0.78462422488E+01 -0.21149566900E+02 -0.25478344144E+01  0.23182949720E+02  0.47000000000E+01 0.  1.
        -11    1    4    4    0    0  0.42297854388E+02  0.19416514111E+01 -0.87441624138E+02  0.97154084463E+02  0.00000000000E+00 0. -1.
         11    1    4    4    0    0 -0.23696758851E+02  0.58998995132E+02 -0.26297291982E+03  0.27054976319E+03  0.00000000000E+00 0.  1.
<mgrwt>
<rscale>  0 0.13061374E+03</rscale>
<asrwt>0</asrwt>
<pdfrwt beam="2">  1        2 0.11932108E+00 0.13771764E+03</pdfrwt>
<pdfrwt beam="1">  1       -2 0.30812513E-02 0.13771764E+03</pdfrwt>
<totfact> 0.14335197E+04</totfact>
</mgrwt>
</event>
<event>
 8    1  0.8504141E-006  0.1275062E+03  0.7546771E-02  0.1246367E+00
         -2   -1    0    0    0  501 -0.00000000000E+00  0.00000000000E+00  0.30042674889E+02  0.30042674889E+02  0.00000000000E+00 0.  1.
          2   -1    0    0  501    0  0.00000000000E+00 -0.00000000000E+00 -0.40923853823E+03  0.40923853823E+03  0.00000000000E+00 0. -1.
         23    2    1    2    0    0  0.20647382172E+02 -0.14355926500E+02 -0.20244043857E+03  0.23924874541E+03  0.12500169596E+03 0.  0.
         23    2    1    2    0    0 -0.20647382172E+02  0.14355926500E+02 -0.17675542477E+03  0.20003246772E+03  0.90211423551E+02 0.  0.
          5    1    3    3  502    0 -0.95067946816E+01 -0.38264757202E+02 -0.73978148356E+01  0.40390450024E+02  0.47000000000E+01 0.  1.
         -5    1    3    3    0  502  0.30154176854E+02  0.23908830702E+02 -0.19504262374E+03  0.19885829538E+03  0.47000000000E+01 0.  1.
        -11    1    4    4    0    0  0.82270556941E+00  0.49572990001E+02 -0.71719665454E+02  0.87188695339E+02  0.00000000000E+00 0.  1.
         11    1    4    4    0    0 -0.21470087741E+02 -0.35217063502E+02 -0.10503575932E+03  0.11284377238E+03  0.00000000000E+00 0. -1.
<mgrwt>
<rscale>  0 0.11803929E+03</rscale>
<asrwt>0</asrwt>
<pdfrwt beam="2">  1        2 0.62959769E-01 0.12750620E+03</pdfrwt>
<pdfrwt beam="1">  1       -2 0.46219505E-02 0.12750620E+03</pdfrwt>
<totfact> 0.16095161E+04</totfact>
</mgrwt>
</event>
<event>
 8    1  0.8504141E-006  0.1326295E+03  0.7546771E-02  0.1236304E+00
          2   -1    0    0  501    0  0.00000000000E+00  0.00000000000E+00  0.50668767926E+02  0.50668767926E+02  0.00000000000E+00 0. -1.
         -2   -1    0    0    0  501 -0.00000000000E+00 -0.00000000000E+00 -0.27197512939E+03  0.27197512939E+03  0.00000000000E+00 0.  1.
         23    2    1    2    0    0  0.18873556587E+02 -0.40116622053E+02 -0.13013143699E+03  0.18580843386E+03  0.12500011478E+03 0.  0.
         23    2    1    2    0    0 -0.18873556587E+02  0.40116622053E+02 -0.91174924465E+02  0.13683546345E+03  0.91899525046E+02 0.  0.
          5    1    3    3  502    0  0.14865576546E+01  0.40758204480E+02 -0.14467934343E+02  0.43529900186E+02  0.47000000000E+01 0.  1.
         -5    1    3    3    0  502  0.17386998932E+02 -0.80874826533E+02 -0.11566350265E+03  0.14227853367E+03  0.47000000000E+01 0.  1.
        -11    1    4    4    0    0  0.36179135927E+01  0.55180042934E+02 -0.94572691851E+02  0.10955327691E+03  0.00000000000E+00 0.  1.
         11    1    4    4    0    0 -0.22491470179E+02 -0.15063420881E+02  0.33977673865E+01  0.27282186545E+02  0.00000000000E+00 0. -1.
<mgrwt>
<rscale>  0 0.12421300E+03</rscale>
<asrwt>0</asrwt>
<pdfrwt beam="1">  1        2 0.77951950E-02 0.13262950E+03</pdfrwt>
<pdfrwt beam="2">  1       -2 0.41842328E-01 0.13262950E+03</pdfrwt>
<totfact> 0.45608746E+03</totfact>
</mgrwt>
</event>
<event>
 8    1  0.8504141E-006  0.1366566E+03  0.7546771E-02  0.1230287E+00
          2   -1    0    0  501    0  0.00000000000E+00  0.00000000000E+00  0.36296771801E+03  0.36296771801E+03  0.00000000000E+00 0. -1.
         -2   -1    0    0    0  501 -0.00000000000E+00 -0.00000000000E+00 -0.41367787990E+02  0.41367787990E+02  0.00000000000E+00 0.  1.
         23    2    1    2    0    0  0.53758761430E+02 -0.12625721577E+02  0.15037286476E+03  0.20319207220E+03  0.12500242587E+03 0.  0.
         23    2    1    2    0    0 -0.53758761430E+02  0.12625721577E+02  0.17122706526E+03  0.20114343380E+03  0.89947539196E+02 0.  0.
          5    1    3    3  502    0 -0.36323340209E+02  0.54476917032E+01  0.15986632587E+02  0.40332676706E+02  0.47000000000E+01 0. -1.
         -5    1    3    3    0  502  0.90082101638E+02 -0.18073413280E+02  0.13438623217E+03  0.16285939549E+03  0.47000000000E+01 0. -1.
        -11    1    4    4    0    0 -0.77095982120E+02  0.22280102691E+02  0.12784604352E+03  0.15094636226E+03  0.00000000000E+00 0.  1.
         11    1    4    4    0    0  0.23337220690E+02 -0.96543811140E+01  0.43381021741E+02  0.50197071544E+02  0.00000000000E+00 0. -1.
<mgrwt>
<rscale>  0 0.12811011E+03</rscale>
<asrwt>0</asrwt>
<pdfrwt beam="1">  1        2 0.55841185E-01 0.13665658E+03</pdfrwt>
<pdfrwt beam="2">  1       -2 0.63642753E-02 0.13665658E+03</pdfrwt>
<totfact> 0.11357547E+04</totfact>
</mgrwt>
</event>
<event>
 8    1  0.8504141E-006  0.1326555E+03  0.7546771E-02  0.1236565E+00
          1   -1    0    0  501    0  0.00000000000E+00  0.00000000000E+00  0.14991945472E+03  0.14991945472E+03  0.00000000000E+00 0. -1.
         -1   -1    0    0    0  501 -0.00000000000E+00 -0.00000000000E+00 -0.92193407645E+02  0.92193407645E+02  0.00000000000E+00 0.  1.
         23    2    1    2    0    0  0.37022376710E+02  0.24416056711E+02  0.21399593740E+02  0.13437046015E+03  0.12502270892E+03 0.  0.
         23    2    1    2    0    0 -0.37022376710E+02 -0.24416056711E+02  0.36326453336E+02  0.10774240222E+03  0.91225072326E+02 0.  0.
          5    1    3    3  502    0  0.67607644921E+02 -0.25791475871E+02  0.20621375567E+02  0.75387830646E+02  0.47000000000E+01 0.  1.
         -5    1    3    3    0  502 -0.30585268211E+02  0.50207532582E+02  0.77821817331E+00  0.58982629502E+02  0.47000000000E+01 0.  1.
        -11    1    4    4    0    0 -0.57208324860E+02  0.10124504273E+02  0.78257565782E+01  0.58622013665E+02  0.00000000000E+00 0. -1.
         11    1    4    4    0    0  0.20185948150E+02 -0.34540560984E+02  0.28500696757E+02  0.49120388552E+02  0.00000000000E+00 0.  1.
<mgrwt>
<rscale>  0 0.12404795E+03</rscale>
<asrwt>0</asrwt>
<pdfrwt beam="1">  1        1 0.23064532E-01 0.13265549E+03</pdfrwt>
<pdfrwt beam="2">  1       -1 0.14183601E-01 0.13265549E+03</pdfrwt>
<totfact> 0.70616447E+03</totfact>
</mgrwt>
</event>
<event>
 8    1  0.8504141E-006  0.1462727E+03  0.7546771E-02  0.1215076E+00
         -1   -1    0    0    0  501 -0.00000000000E+00  0.00000000000E+00  0.30194686224E+03  0.30194686224E+03  0.00000000000E+00 0.  1.
          1   -1    0    0  501    0  0.00000000000E+00 -0.00000000000E+00 -0.74089502428E+02  0.74089502428E+02  0.00000000000E+00 0. -1.
         23    2    1    2    0    0  0.62942821110E+02 -0.42509029854E+02  0.21072186147E+03  0.25651396640E+03  0.12500758260E+03 0.  0.
         23    2    1    2    0    0 -0.62942821110E+02  0.42509029854E+02  0.17135498343E+02  0.11952239827E+03  0.90681652145E+02 0.  0.
          5    1    3    3  502    0  0.81504604694E+02 -0.62568526489E+02  0.10409875358E+03  0.14634364212E+03  0.47000000000E+01 0. -1.
         -5    1    3    3    0  502 -0.18561783584E+02  0.20059496635E+02  0.10662310789E+03  0.11017032427E+03  0.47000000000E+01 0. -1.
        -11    1    4    4    0    0 -0.62811273508E+02 -0.11857424171E+02  0.94127791324E+01  0.64610022431E+02  0.00000000000E+00 0. -1.
         11    1    4    4    0    0 -0.13154760259E+00  0.54366454025E+02  0.77227192101E+01  0.54912375836E+02  0.00000000000E+00 0.  1.
<mgrwt>
<rscale>  0 0.13870989E+03</rscale>
<asrwt>0</asrwt>
<pdfrwt beam="2">  1        1 0.11398385E-01 0.14627273E+03</pdfrwt>
<pdfrwt beam="1">  1       -1 0.46453363E-01 0.14627273E+03</pdfrwt>
<totfact> 0.24598265E+03</totfact>
</mgrwt>
</event>
<event>
 8    1  0.8504141E-006  0.1474702E+03  0.7546771E-02  0.1212888E+00
          1   -1    0    0  501    0  0.00000000000E+00  0.00000000000E+00  0.10573649659E+04  0.10573649659E+04  0.00000000000E+00 0. -1.
         -1   -1    0    0    0  501 -0.00000000000E+00 -0.00000000000E+00 -0.17769624936E+02  0.17769624936E+02  0.00000000000E+00 0.  1.
         23    2    1    2    0    0 -0.57623435281E+02  0.52915961400E+02  0.67822321291E+03  0.69407073711E+03  0.12500760903E+03 0.  0.
         23    2    1    2    0    0  0.57623435281E+02 -0.52915961400E+02  0.36137212804E+03  0.38106385371E+03  0.92191574548E+02 0.  0.
          5    1    3    3  502    0 -0.37819170478E+01  0.78805100485E+02  0.26532993168E+03  0.27685124057E+03  0.47000000000E+01 0. -1.
         -5    1    3    3    0  502 -0.53841518233E+02 -0.25889139085E+02  0.41289328123E+03  0.41721949654E+03  0.47000000000E+01 0. -1.
        -11    1    4    4    0    0  0.82301422272E+02 -0.39463627000E+02  0.24810058955E+03  0.26435734244E+03  0.00000000000E+00 0.  1.
         11    1    4    4    0    0 -0.24677986992E+02 -0.13452334400E+02  0.11327153849E+03  0.11670651128E+03  0.00000000000E+00 0. -1.
<mgrwt>
<rscale>  0 0.14032856E+03</rscale>
<asrwt>0</asrwt>
<pdfrwt beam="1">  1        1 0.16267148E+00 0.14747021E+03</pdfrwt>
<pdfrwt beam="2">  1       -1 0.27337893E-02 0.14747021E+03</pdfrwt>
<totfact> 0.61304037E+03</totfact>
</mgrwt>
</event>
<event>
 8    1  0.8504141E-006  0.1312806E+03  0.7546771E-02  0.1238946E+00
          2   -1    0    0  501    0  0.00000000000E+00  0.00000000000E+00  0.85951731223E+02  0.85951731223E+02  0.00000000000E+00 0. -1.
         -2   -1    0    0    0  501 -0.00000000000E+00 -0.00000000000E+00 -0.16152796942E+03  0.16152796942E+03  0.00000000000E+00 0.  1.
         23    2    1    2    0    0 -0.35528648538E+02  0.18695038255E+02 -0.67074095430E+02  0.14742293716E+03  0.12499119490E+03 0.  0.
         23    2    1    2    0    0  0.35528648538E+02 -0.18695038255E+02 -0.85021427647E+01  0.10005676348E+03  0.91253932320E+02 0.  0.
          5    1    3    3  502    0  0.70289170558E+01 -0.48954716894E+02 -0.14914404554E+02  0.51870024526E+02  0.47000000000E+01 0. -1.
         -5    1    3    3    0  502 -0.42557565593E+02  0.67649755149E+02 -0.52159690876E+02  0.95552912636E+02  0.47000000000E+01 0. -1.
        -11    1    4    4    0    0 -0.29967655142E+02 -0.10303044762E+02 -0.12115161074E+02  0.33926246682E+02  0.00000000000E+00 0.  1.
         11    1    4    4    0    0  0.65496303679E+02 -0.83919934924E+01  0.36130183097E+01  0.66130516796E+02  0.00000000000E+00 0. -1.
<mgrwt>
<rscale>  0 0.12255148E+03</rscale>
<asrwt>0</asrwt>
<pdfrwt beam="1">  1        2 0.13223343E-01 0.13128057E+03</pdfrwt>
<pdfrwt beam="2">  1       -2 0.24850456E-01 0.13128057E+03</pdfrwt>
<totfact> 0.61666893E+03</totfact>
</mgrwt>
</event>
<event>
 8    1  0.8504141E-006  0.1551138E+03  0.7546771E-02  0.1201651E+00
         -1   -1    0    0    0  501 -0.00000000000E+00  0.00000000000E+00  0.52170921360E+02  0.52170921360E+02  0.00000000000E+00 0.  1.
          1   -1    0    0  501    0  0.00000000000E+00 -0.00000000000E+00 -0.42216296921E+03  0.42216296921E+03  0.00000000000E+00 0. -1.
         23    2    1    2    0    0 -0.81289352562E+02 -0.42734278793E+02 -0.13954161790E+03  0.20864358667E+03  0.12500442276E+03 0.  0.
         23    2    1    2    0    0  0.81289352562E+02  0.42734278793E+02 -0.23045042995E+03  0.26569030390E+03  0.95130223899E+02 0.  0.
          5    1    3    3  502    0 -0.88455085065E+02 -0.48674917194E+02 -0.40227693368E+02  0.10878376235E+03  0.47000000000E+01 0. -1.
         -5    1    3    3    0  502  0.71657325034E+01  0.59406384012E+01 -0.99313924533E+02  0.99859824319E+02  0.47000000000E+01 0. -1.
        -11    1    4    4    0    0  0.30587558505E+02  0.62681160233E+02 -0.17291275908E+03  0.18644931975E+03  0.00000000000E+00 0. -1.
         11    1    4    4    0    0  0.50701794057E+02 -0.19946881440E+02 -0.57537670872E+02  0.79240984150E+02  0.00000000000E+00 0.  1.
<mgrwt>
<rscale>  0 0.14904509E+03</rscale>
<asrwt>0</asrwt>
<pdfrwt beam="2">  1        1 0.64948149E-01 0.15511377E+03</pdfrwt>
<pdfrwt beam="1">  1       -1 0.80262956E-02 0.15511377E+03</pdfrwt>
<totfact> 0.46940759E+03</totfact>
</mgrwt>
</event>
<event>
 8    1  0.8504141E-006  0.1349720E+03  0.7546771E-02  0.1223208E+00
         -1   -1    0    0    0  501 -0.00000000000E+00  0.00000000000E+00  0.69521204957E+02  0.69521204957E+02  0.00000000000E+00 0.  1.
          1   -1    0    0  501    0  0.00000000000E+00 -0.00000000000E+00 -0.41705181210E+03  0.41705181210E+03  0.00000000000E+00 0. -1.
         23    2    1    2    0    0 -0.40944478421E+02  0.30251156502E+02 -0.21440255113E+02  0.13666425997E+03  0.12500341048E+03 0.  0.
         23    2    1    2    0    0  0.40944478421E+02 -0.30251156502E+02 -0.32609035203E+03  0.34990875708E+03  0.11623096754E+03 0.  0.
          5    1    3    3  502    0  0.43662834597E+02  0.11876550937E+02  0.56061684797E+01  0.45836827030E+02  0.47000000000E+01 0. -1.
         -5    1    3    3    0  502 -0.84607313018E+02  0.18374605565E+02 -0.27046423593E+02  0.90827432942E+02  0.47000000000E+01 0. -1.
        -11    1    4    4    0    0 -0.26441959114E+02 -0.28111255433E+02 -0.38468886951E+02  0.54491055661E+02  0.00000000000E+00 0.  1.
         11    1    4    4    0    0  0.67386437535E+02 -0.21399010691E+01 -0.28762146508E+03  0.29541770142E+03  0.00000000000E+00 0. -1.
<mgrwt>
<rscale>  0 0.13290462E+03</rscale>
<asrwt>0</asrwt>
<pdfrwt beam="2">  1        1 0.64161819E-01 0.13497198E+03</pdfrwt>
<pdfrwt beam="1">  1       -1 0.10695570E-01 0.13497198E+03</pdfrwt>
<totfact> 0.30597156E+03</totfact>
</mgrwt>
</event>
<event>
 8    1  0.8504141E-006  0.1334145E+03  0.7546771E-02  0.1232075E+00
         -1   -1    0    0    0  501 -0.00000000000E+00  0.00000000000E+00  0.31098907084E+03  0.31098907084E+03  0.00000000000E+00 0.  1.
          1   -1    0    0  501    0  0.00000000000E+00 -0.00000000000E+00 -0.47408260253E+02  0.47408260253E+02  0.00000000000E+00 0. -1.
         23    2    1    2    0    0 -0.41877345759E+02 -0.20601200772E+02  0.13962579666E+03  0.19311862030E+03  0.12498526654E+03 0.  0.
         23    2    1    2    0    0  0.41877345759E+02  0.20601200772E+02  0.12395501392E+03  0.16527871079E+03  0.98863973229E+02 0.  0.
          5    1    3    3  502    0 -0.42168592430E+02  0.47309833247E+02  0.83237458829E+02  0.10472332625E+03  0.47000000000E+01 0.  1.
         -5    1    3    3    0  502  0.29124667070E+00 -0.67911034019E+02  0.56388337835E+02  0.88395294049E+02  0.47000000000E+01 0.  1.
        -11    1    4    4    0    0  0.27697923330E-01  0.17716470406E+02 -0.13044482160E+02  0.22000741025E+02  0.00000000000E+00 0. -1.
         11    1    4    4    0    0  0.41849647836E+02  0.28847303663E+01  0.13699949608E+03  0.14327796976E+03  0.00000000000E+00 0.  1.
<mgrwt>
<rscale>  0 0.12693558E+03</rscale>
<asrwt>0</asrwt>
<pdfrwt beam="2">  1        1 0.72935787E-02 0.13341454E+03</pdfrwt>
<pdfrwt beam="1">  1       -1 0.47844471E-01 0.13341454E+03</pdfrwt>
<totfact> 0.42083027E+03</totfact>
</mgrwt>
</event>
<event>
 8    1  0.8504141E-006  0.1446271E+03  0.7546771E-02  0.1218812E+00
          2   -1    0    0  501    0  0.00000000000E+00  0.00000000000E+00  0.46404774199E+02  0.46404774199E+02  0.00000000000E+00 0. -1.
         -2   -1    0    0    0  501 -0.00000000000E+00 -0.00000000000E+00 -0.41625102638E+03  0.41625102638E+03  0.00000000000E+00 0.  1.
         23    2    1    2    0    0  0.16824949746E+02  0.70768040090E+02 -0.29048049518E+03  0.32449332344E+03  0.12500321774E+03 0.  0.
         23    2    1    2    0    0 -0.16824949746E+02 -0.70768040090E+02 -0.79365757006E+02  0.13816247714E+03  0.86595336322E+02 0.  0.
          5    1    3    3  502    0 -0.34772828367E+02 -0.13918963260E+02 -0.13366528944E+03  0.13889343661E+03  0.47000000000E+01 0.  1.
         -5    1    3    3    0  502  0.51597778112E+02  0.84687003350E+02 -0.15681520573E+03  0.18559988683E+03  0.47000000000E+01 0.  1.
        -11    1    4    4    0    0 -0.40279383331E+02 -0.99980894782E+01 -0.93705058017E+01  0.42546408705E+02  0.00000000000E+00 0. -1.
         11    1    4    4    0    0  0.23454433585E+02 -0.60769950612E+02 -0.69995251205E+02  0.95616068437E+02  0.00000000000E+00 0.  1.
<mgrwt>
<rscale>  0 0.13600218E+03</rscale>
<asrwt>0</asrwt>
<pdfrwt beam="1">  1        2 0.71391959E-02 0.14462710E+03</pdfrwt>
<pdfrwt beam="2">  1       -2 0.64038620E-01 0.14462710E+03</pdfrwt>
<totfact> 0.21938089E+03</totfact>
</mgrwt>
</event>
<event>
 8    1  0.8504141E-006  0.1333225E+03  0.7546771E-02  0.1233948E+00
         -2   -1    0    0    0  501 -0.00000000000E+00  0.00000000000E+00  0.20269550139E+03  0.20269550139E+03  0.00000000000E+00 0.  1.
          2   -1    0    0  501    0  0.00000000000E+00 -0.00000000000E+00 -0.18285665184E+03  0.18285665184E+03  0.00000000000E+00 0. -1.
         23    2    1    2    0    0 -0.26125690600E+02  0.38319232973E+02  0.16121421824E+03  0.20920065632E+03  0.12499590040E+03 0.  0.
         23    2    1    2    0    0  0.26125690600E+02 -0.38319232973E+02 -0.14137536868E+03  0.17635149691E+03  0.94667524876E+02 0.  0.
          5    1    3    3  502    0 -0.71935453734E+02  0.45981096717E+02  0.90852346620E+02  0.12476060935E+03  0.47000000000E+01 0. -1.
         -5    1    3    3    0  502  0.45809763134E+02 -0.76618637447E+01  0.70361871621E+02  0.84440046970E+02  0.47000000000E+01 0. -1.
        -11    1    4    4    0    0  0.41646766912E+01 -0.59152967170E+02 -0.42528068358E+02  0.72972972087E+02  0.00000000000E+00 0. -1.
         11    1    4    4    0    0  0.21961013909E+02  0.20833734197E+02 -0.98847300325E+02  0.10337852482E+03  0.00000000000E+00 0.  1.
<mgrwt>
<rscale>  0 0.12572042E+03</rscale>
<asrwt>0</asrwt>
<pdfrwt beam="2">  1        2 0.28131793E-01 0.13332251E+03</pdfrwt>
<pdfrwt beam="1">  1       -2 0.31183923E-01 0.13332251E+03</pdfrwt>
<totfact> 0.17495701E+03</totfact>
</mgrwt>
</event>
<event>
 8    1  0.8504141E-006  0.1998174E+03  0.7546771E-02  0.1154215E+00
         -1   -1    0    0    0  501 -0.00000000000E+00  0.00000000000E+00  0.76042940669E+02  0.76042940669E+02  0.00000000000E+00 0.  1.
          1   -1    0    0  501    0  0.00000000000E+00 -0.00000000000E+00 -0.48651762385E+03  0.48651762385E+03  0.00000000000E+00 0. -1.
         23    2    1    2    0    0 -0.13355429425E+03  0.80438761496E+02 -0.17292346742E+03  0.26425275616E+03  0.12497939706E+03 0.  0.
         23    2    1    2    0    0  0.13355429425E+03 -0.80438761496E+02 -0.23755121576E+03  0.29830780836E+03  0.90828544839E+02 0.  0.
          5    1    3    3  502    0 -0.12851267878E+03  0.99452445124E+02 -0.10535300989E+03  0.19372053103E+03  0.47000000000E+01 0. -1.
         -5    1    3    3    0  502 -0.50416154668E+01 -0.19013683628E+02 -0.67570457522E+02  0.70532225127E+02  0.47000000000E+01 0. -1.
        -11    1    4    4    0    0  0.42479515316E+02 -0.58670794546E+02 -0.16383590055E+03  0.17913395452E+03  0.00000000000E+00 0. -1.
         11    1    4    4    0    0  0.91074778929E+02 -0.21767966950E+02 -0.73715315214E+02  0.11917385384E+03  0.00000000000E+00 0.  1.
<mgrwt>
<rscale>  0 0.19478498E+03</rscale>
<asrwt>0</asrwt>
<pdfrwt beam="2">  1        1 0.74848865E-01 0.19981740E+03</pdfrwt>
<pdfrwt beam="1">  1       -1 0.11698914E-01 0.19981740E+03</pdfrwt>
<totfact> 0.22127505E+03</totfact>
</mgrwt>
</event>
<event>
 8    1  0.8504141E-006  0.1454139E+03  0.7546771E-02  0.1215039E+00
          2   -1    0    0  501    0  0.00000000000E+00  0.00000000000E+00  0.20959172118E+03  0.20959172118E+03  0.00000000000E+00 0. -1.
         -2   -1    0    0    0  501 -0.00000000000E+00 -0.00000000000E+00 -0.84359894965E+02  0.84359894965E+02  0.00000000000E+00 0.  1.
         23    2    1    2    0    0 -0.64041063392E+02  0.37678178038E+02  0.70923272822E+02  0.16178788919E+03  0.12499723021E+03 0.  0.
         23    2    1    2    0    0  0.64041063392E+02 -0.37678178038E+02  0.54308553392E+02  0.13216372695E+03  0.94852142040E+02 0.  0.
          5    1    3    3  502    0 -0.14847391900E+01  0.21188008915E+02  0.91255149595E+02  0.93812198034E+02  0.47000000000E+01 0. -1.
         -5    1    3    3    0  502 -0.62556324202E+02  0.16490169123E+02 -0.20331876774E+02  0.67975691159E+02  0.47000000000E+01 0. -1.
        -11    1    4    4    0    0  0.55076344647E+02  0.16365439371E+02  0.36877698788E+01  0.57574568971E+02  0.00000000000E+00 0.  1.
         11    1    4    4    0    0  0.89647187447E+01 -0.54043617409E+02  0.50620783514E+02  0.74589157981E+02  0.00000000000E+00 0. -1.
<mgrwt>
<rscale>  0 0.13873698E+03</rscale>
<asrwt>0</asrwt>
<pdfrwt beam="1">  1        2 0.32244880E-01 0.14541393E+03</pdfrwt>
<pdfrwt beam="2">  1       -2 0.12978445E-01 0.14541393E+03</pdfrwt>
<totfact> 0.67255713E+03</totfact>
</mgrwt>
</event>
<event>
 8    1  0.8504141E-006  0.1303347E+03  0.7546771E-02  0.1240312E+00
         -2   -1    0    0    0  501 -0.00000000000E+00  0.00000000000E+00  0.30940417537E+02  0.30940417537E+02  0.00000000000E+00 0. -1.
          2   -1    0    0  501    0  0.00000000000E+00 -0.00000000000E+00 -0.47905870714E+03  0.47905870714E+03  0.00000000000E+00 0.  1.
         23    2    1    2    0    0  0.36929520164E+02  0.20200033591E+01 -0.16643912242E+03  0.21139802177E+03  0.12497708696E+03 0.  0.
         23    2    1    2    0    0 -0.36929520164E+02 -0.20200033591E+01 -0.28167916718E+03  0.29860110291E+03  0.91932559835E+02 0.  0.
          5    1    3    3  502    0 -0.10987962158E+02 -0.20286953970E+02 -0.15543110377E+03  0.15720436963E+03  0.47000000000E+01 0.  1.
         -5    1    3    3    0  502  0.47917482323E+02  0.22306957329E+02 -0.11008018652E+02  0.54193652138E+02  0.47000000000E+01 0.  1.
        -11    1    4    4    0    0 -0.66512961596E+02  0.96903900549E+01 -0.18621990171E+03  0.19797911383E+03  0.00000000000E+00 0. -1.
         11    1    4    4    0    0  0.29583441432E+02 -0.11710393414E+02 -0.95459265476E+02  0.10062198908E+03  0.00000000000E+00 0.  1.
<mgrwt>
<rscale>  0 0.12170435E+03</rscale>
<asrwt>0</asrwt>
<pdfrwt beam="2">  1        2 0.73701341E-01 0.13033473E+03</pdfrwt>
<pdfrwt beam="1">  1       -2 0.47600641E-02 0.13033473E+03</pdfrwt>
<totfact> 0.13020193E+04</totfact>
</mgrwt>
</event>
<event>
 8    1  0.8504141E-006  0.1490130E+03  0.7546771E-02  0.1211239E+00
         -3   -1    0    0    0  501 -0.00000000000E+00  0.00000000000E+00  0.27637360550E+02  0.27637360550E+02  0.00000000000E+00 0.  1.
          3   -1    0    0  501    0  0.00000000000E+00 -0.00000000000E+00 -0.66586791241E+03  0.66586791241E+03  0.00000000000E+00 0. -1.
         23    2    1    2    0    0  0.90023607218E+01 -0.80492335111E+02 -0.37991088918E+03  0.40808966087E+03  0.12507929118E+03 0.  0.
         23    2    1    2    0    0 -0.90023607218E+01  0.80492335111E+02 -0.25831966267E+03  0.28541561208E+03  0.90404452252E+02 0.  0.
          5    1    3    3  502    0 -0.54773763396E+02 -0.15742573842E+02 -0.16793433450E+03  0.17740356392E+03  0.47000000000E+01 0. -1.
         -5    1    3    3    0  502  0.63776124117E+02 -0.64749761269E+02 -0.21197655468E+03  0.23068609695E+03  0.47000000000E+01 0. -1.
        -11    1    4    4    0    0  0.33019212374E+02  0.22778538138E+02 -0.15306226681E+03  0.15823143716E+03  0.00000000000E+00 0. -1.
         11    1    4    4    0    0 -0.42021573096E+02  0.57713796973E+02 -0.10525739587E+03  0.12718417493E+03  0.00000000000E+00 0.  1.
<mgrwt>
<rscale>  0 0.14156461E+03</rscale>
<asrwt>0</asrwt>
<pdfrwt beam="2">  1        3 0.10244121E+00 0.14901305E+03</pdfrwt>
<pdfrwt beam="1">  1       -3 0.42519019E-02 0.14901305E+03</pdfrwt>
<totfact> 0.59434148E+02</totfact>
</mgrwt>
</event>
<event>
 8    1  0.8504141E-006  0.2923335E+03  0.7546771E-02  0.1090843E+00
          1   -1    0    0  501    0  0.00000000000E+00  0.00000000000E+00  0.15102655626E+04  0.15102655626E+04  0.00000000000E+00 0. -1.
         -1   -1    0    0    0  501 -0.00000000000E+00 -0.00000000000E+00 -0.55210680668E+02  0.55210680668E+02  0.00000000000E+00 0.  1.
         23    2    1    2    0    0  0.15991437475E+03  0.21038052649E+03  0.63350836741E+03  0.69770460267E+03  0.12500515121E+03 0.  0.
         23    2    1    2    0    0 -0.15991437475E+03 -0.21038052649E+03  0.82154651457E+03  0.86777164065E+03  0.90864577968E+02 0.  0.
          5    1    3    3  502    0  0.39603767861E+01  0.42206632501E+02  0.22665359828E+03  0.23063180185E+03  0.47000000000E+01 0. -1.
         -5    1    3    3    0  502  0.15595399796E+03  0.16817389399E+03  0.40685476913E+03  0.46707280082E+03  0.47000000000E+01 0. -1.
        -11    1    4    4    0    0 -0.10521342146E+03 -0.73830505505E+02  0.45511665679E+03  0.47291857532E+03  0.00000000000E+00 0. -1.
         11    1    4    4    0    0 -0.54700953291E+02 -0.13655002099E+03  0.36642985779E+03  0.39485306533E+03  0.00000000000E+00 0.  1.
<mgrwt>
<rscale>  0 0.28905641E+03</rscale>
<asrwt>0</asrwt>
<pdfrwt beam="1">  1        1 0.23234852E+00 0.29233348E+03</pdfrwt>
<pdfrwt beam="2">  1       -1 0.84939520E-02 0.29233348E+03</pdfrwt>
<totfact> 0.55270935E+02</totfact>
</mgrwt>
</event>
<event>
 8    1  0.8504141E-006  0.1252625E+03  0.7546771E-02  0.1250351E+00
          1   -1    0    0  501    0  0.00000000000E+00  0.00000000000E+00  0.14206989780E+03  0.14206989780E+03  0.00000000000E+00 0. -1.
         -1   -1    0    0    0  501 -0.00000000000E+00 -0.00000000000E+00 -0.10474670502E+03  0.10474670502E+03  0.00000000000E+00 0.  1.
         23    2    1    2    0    0  0.11601247169E+01  0.80429858805E+01 -0.35405636589E+02  0.13017013209E+03  0.12499867469E+03 0.  0.
         23    2    1    2    0    0 -0.11601247169E+01 -0.80429858805E+01  0.72728829362E+02  0.11664647073E+03  0.90834360251E+02 0.  0.
          5    1    3    3  502    0 -0.13144167387E+02 -0.54650614782E+02 -0.33629145290E+02  0.65669385906E+02  0.47000000000E+01 0.  1.
         -5    1    3    3    0  502  0.14304292104E+02  0.62693600663E+02 -0.17764912992E+01  0.64500746181E+02  0.47000000000E+01 0.  1.
        -11    1    4    4    0    0 -0.35987843864E+02 -0.26884725196E+01  0.72972761963E+02  0.81408702108E+02  0.00000000000E+00 0. -1.
         11    1    4    4    0    0  0.34827719147E+02 -0.53545133609E+01 -0.24393260060E+00  0.35237768622E+02  0.00000000000E+00 0.  1.
<mgrwt>
<rscale>  0 0.11570742E+03</rscale>
<asrwt>0</asrwt>
<pdfrwt beam="1">  1        1 0.21856907E-01 0.12526254E+03</pdfrwt>
<pdfrwt beam="2">  1       -1 0.16114878E-01 0.12526254E+03</pdfrwt>
<totfact> 0.61622962E+03</totfact>
</mgrwt>
</event>
<event>
 7    1  0.8504141E-006  0.2421929E+03  0.7546771E-02  0.1118341E+00
         -1   -1    0    0    0  501 -0.00000000000E+00  0.00000000000E+00  0.27905781827E+03  0.27905781827E+03  0.00000000000E+00 0.  1.
          1   -1    0    0  501    0  0.00000000000E+00 -0.00000000000E+00 -0.52549526566E+02  0.52549526566E+02  0.00000000000E+00 0. -1.
         23    2    1    2    0    0 -0.11714622013E+02 -0.85558777232E+01  0.80415138421E+02  0.12435361137E+03  0.93737883277E+02 0.  0.
          5    1    1    2  502    0  0.71415165120E+02  0.24603072616E+02  0.11558174994E+03  0.13815450738E+03  0.47000000000E+01 0. -1.
         -5    1    1    2    0  502 -0.59700543106E+02 -0.16047194893E+02  0.30511403343E+02  0.69099226082E+02  0.47000000000E+01 0.  1.
        -11    1    3    3    0    0 -0.39874814616E+02 -0.23296439213E+02  0.80225523132E+02  0.92568134272E+02  0.00000000000E+00 0.  1.
         11    1    3    3    0    0  0.28160192603E+02  0.14740561490E+02  0.18961528861E+00  0.31785477099E+02  0.00000000000E+00 0. -1.
<mgrwt>
<rscale>  0 0.24219295E+03</rscale>
<asrwt>0</asrwt>
<pdfrwt beam="2">  1        1 0.80845427E-02 0.24219295E+03</pdfrwt>
<pdfrwt beam="1">  1       -1 0.42931971E-01 0.24219295E+03</pdfrwt>
<totfact> 0.46051153E+03</totfact>
</mgrwt>
</event>
<event>
 8    1  0.8504141E-006  0.1542515E+03  0.7546771E-02  0.1204201E+00
          3   -1    0    0  501    0  0.00000000000E+00  0.00000000000E+00  0.91313197263E+02  0.91313197263E+02  0.00000000000E+00 0. -1.
         -3   -1    0    0    0  501 -0.00000000000E+00 -0.00000000000E+00 -0.22738705926E+03  0.22738705926E+03  0.00000000000E+00 0.  1.
         23    2    1    2    0    0  0.14855943842E+01 -0.90395954610E+02 -0.10825335148E+03  0.18844713296E+03  0.12497959119E+03 0.  0.
         23    2    1    2    0    0 -0.14855943842E+01  0.90395954610E+02 -0.27820510509E+02  0.13025312356E+03  0.89544736256E+02 0.  0.
          5    1    3    3  502    0 -0.32228525529E+02 -0.80228494272E+02 -0.12263333033E+03  0.15012099406E+03  0.47000000000E+01 0.  1.
         -5    1    3    3    0  502  0.33714119914E+02 -0.10167460338E+02  0.14379978845E+02  0.38326138898E+02  0.47000000000E+01 0.  1.
        -11    1    4    4    0    0  0.11634513024E+02  0.61127554736E+02  0.26129656012E+02  0.67488508390E+02  0.00000000000E+00 0. -1.
         11    1    4    4    0    0 -0.13120107408E+02  0.29268399874E+02 -0.53950166522E+02  0.62764615169E+02  0.00000000000E+00 0.  1.
<mgrwt>
<rscale>  0 0.14700575E+03</rscale>
<asrwt>0</asrwt>
<pdfrwt beam="1">  1        3 0.14048184E-01 0.15425153E+03</pdfrwt>
<pdfrwt beam="2">  1       -3 0.34982624E-01 0.15425153E+03</pdfrwt>
<totfact> 0.78643992E+02</totfact>
</mgrwt>
</event>
<event>
 8    1  0.8504141E-006  0.1625206E+03  0.7546771E-02  0.1193809E+00
         -1   -1    0    0    0  501 -0.00000000000E+00  0.00000000000E+00  0.44110823094E+03  0.44110823094E+03  0.00000000000E+00 0.  1.
          1   -1    0    0  501    0  0.00000000000E+00 -0.00000000000E+00 -0.54215047804E+02  0.54215047804E+02  0.00000000000E+00 0. -1.
         23    2    1    2    0    0 -0.15582192412E+02  0.10269202230E+03  0.27260570304E+03  0.31737488504E+03  0.12499796861E+03 0.  0.
         23    2    1    2    0    0  0.15582192412E+02 -0.10269202230E+03  0.11428748009E+03  0.17794839371E+03  0.88405579866E+02 0.  0.
          5    1    3    3  502    0  0.28303589506E+02  0.10250610689E+03  0.12958755490E+03  0.16770098245E+03  0.47000000000E+01 0. -1.
         -5    1    3    3    0  502 -0.43885781918E+02  0.18591541416E+00  0.14301814814E+03  0.14967390259E+03  0.47000000000E+01 0. -1.
        -11    1    4    4    0    0 -0.31571678178E+02 -0.74758201255E+02  0.61153134766E+02  0.10161331315E+03  0.00000000000E+00 0.  1.
         11    1    4    4    0    0  0.47153870590E+02 -0.27933821048E+02  0.53134345328E+02  0.76335080555E+02  0.00000000000E+00 0. -1.
<mgrwt>
<rscale>  0 0.15555434E+03</rscale>
<asrwt>0</asrwt>
<pdfrwt beam="2">  1        1 0.83407768E-02 0.16252061E+03</pdfrwt>
<pdfrwt beam="1">  1       -1 0.67862803E-01 0.16252061E+03</pdfrwt>
<totfact> 0.18374035E+03</totfact>
</mgrwt>
</event>
<event>
 6    1  0.8504141E-006  0.1364904E+03  0.7546771E-02  0.1281594E+00
         -2   -1    0    0    0  501 -0.00000000000E+00  0.00000000000E+00  0.24537346979E+02  0.24537346979E+02  0.00000000000E+00 0.  1.
          2   -1    0    0  501    0  0.00000000000E+00 -0.00000000000E+00 -0.33855850962E+03  0.33855850962E+03  0.00000000000E+00 0. -1.
          5    1    1    2  502    0  0.23046516310E+02 -0.72988012003E+02 -0.12972404051E+03  0.15069442092E+03  0.47000000000E+01 0. -1.
         -5    1    1    2    0  502  0.25516889433E+01  0.57746511247E+02 -0.65120947655E+02  0.87200908832E+02  0.47000000000E+01 0.  1.
        -11    1    1    2    0    0 -0.14029005131E+02 -0.51049201826E+01 -0.49037021304E+02  0.51259171407E+02  0.00000000000E+00 0.  1.
         11    1    1    2    0    0 -0.11569200122E+02  0.20346420939E+02 -0.70139153165E+02  0.73941355432E+02  0.00000000000E+00 0. -1.
<mgrwt>
<rscale>  0 0.99385438E+02</rscale>
<asrwt>0</asrwt>
<pdfrwt beam="2">  1        2 0.52085924E-01 0.13649036E+03</pdfrwt>
<pdfrwt beam="1">  1       -2 0.37749765E-02 0.13649036E+03</pdfrwt>
<totfact> 0.26780521E+04</totfact>
</mgrwt>
</event>
<event>
 8    1  0.8504141E-006  0.1287438E+03  0.7546771E-02  0.1240283E+00
         -1   -1    0    0    0  501 -0.00000000000E+00  0.00000000000E+00  0.64169418883E+03  0.64169418883E+03  0.00000000000E+00 0.  1.
          1   -1    0    0  501    0  0.00000000000E+00 -0.00000000000E+00 -0.27835911861E+02  0.27835911861E+02  0.00000000000E+00 0. -1.
         23    2    1    2    0    0  0.30790495982E+02  0.14949211779E+01  0.49898976124E+03  0.51533072611E+03  0.12499874405E+03 0.  0.
         23    2    1    2    0    0 -0.30790495982E+02 -0.14949211779E+01  0.11486851573E+03  0.15419937458E+03  0.98144698199E+02 0.  0.
          5    1    3    3  502    0  0.60286843814E+02  0.24940873100E+02  0.44222649476E+03  0.44703793280E+03  0.47000000000E+01 0.  1.
         -5    1    3    3    0  502 -0.29496347832E+02 -0.23445951923E+02  0.56763266482E+02  0.68292793314E+02  0.47000000000E+01 0.  1.
        -11    1    4    4    0    0 -0.33049293243E+02  0.16752232592E+02  0.12691826711E+03  0.13221626075E+03  0.00000000000E+00 0.  1.
         11    1    4    4    0    0  0.22587972605E+01 -0.18247153770E+02 -0.12049751378E+02  0.21983113838E+02  0.00000000000E+00 0. -1.
<mgrwt>
<rscale>  0 0.12172205E+03</rscale>
<asrwt>0</asrwt>
<pdfrwt beam="2">  1        1 0.42824485E-02 0.12874384E+03</pdfrwt>
<pdfrwt beam="1">  1       -1 0.98722172E-01 0.12874384E+03</pdfrwt>
<totfact> 0.20743945E+03</totfact>
</mgrwt>
</event>
<event>
 8    1  0.8504141E-006  0.1341468E+03  0.7546771E-02  0.1233601E+00
         -1   -1    0    0    0  501 -0.00000000000E+00  0.00000000000E+00  0.63566623466E+02  0.63566623466E+02  0.00000000000E+00 0.  1.
          1   -1    0    0  501    0  0.00000000000E+00 -0.00000000000E+00 -0.24272914911E+03  0.24272914911E+03  0.00000000000E+00 0. -1.
         23    2    1    2    0    0 -0.43366683227E+02 -0.22123905189E+02 -0.57108509695E+02  0.14579692816E+03  0.12500090394E+03 0.  0.
         23    2    1    2    0    0  0.43366683227E+02  0.22123905189E+02 -0.12205401595E+03  0.16049884442E+03  0.92155085891E+02 0.  0.
          5    1    3    3  502    0 -0.76006585067E+02 -0.48241543128E+02 -0.50155850762E+02  0.10315981205E+03  0.47000000000E+01 0. -1.
         -5    1    3    3    0  502  0.32639901840E+02  0.26117637939E+02 -0.69526589328E+01  0.42637116106E+02  0.47000000000E+01 0. -1.
        -11    1    4    4    0    0  0.20921908873E+02  0.21690101397E+02  0.57998007325E+01  0.30689158640E+02  0.00000000000E+00 0.  1.
         11    1    4    4    0    0  0.22444774354E+02  0.43380379125E+00 -0.12785381669E+03  0.12980968578E+03  0.00000000000E+00 0. -1.
<mgrwt>
<rscale>  0 0.12594398E+03</rscale>
<asrwt>0</asrwt>
<pdfrwt beam="2">  1        1 0.37342946E-01 0.13414679E+03</pdfrwt>
<pdfrwt beam="1">  1       -1 0.97794806E-02 0.13414679E+03</pdfrwt>
<totfact> 0.68761826E+03</totfact>
</mgrwt>
</event>
<event>
 8    1  0.8504141E-006  0.1387022E+03  0.7546771E-02  0.1228337E+00
         -2   -1    0    0    0  501 -0.00000000000E+00  0.00000000000E+00  0.16696112579E+03  0.16696112579E+03  0.00000000000E+00 0.  1.
          2   -1    0    0  501    0  0.00000000000E+00 -0.00000000000E+00 -0.89437342689E+02  0.89437342689E+02  0.00000000000E+00 0. -1.
         23    2    1    2    0    0 -0.32009529977E+02 -0.50875160978E+02  0.52951958323E+02  0.14846619926E+03  0.12500164167E+03 0.  0.
         23    2    1    2    0    0  0.32009529977E+02  0.50875160978E+02  0.24571824783E+02  0.10793226922E+03  0.86213155331E+02 0.  0.
          5    1    3    3  502    0  0.33874275252E+02  0.35032030119E+01 -0.16628637488E+02  0.38188225147E+02  0.47000000000E+01 0.  1.
         -5    1    3    3    0  502 -0.65883805229E+02 -0.54378363990E+02  0.69580595810E+02  0.11027797412E+03  0.47000000000E+01 0.  1.
        -11    1    4    4    0    0 -0.16364040945E+02  0.52270792563E+02  0.23298717848E+02  0.59521826623E+02  0.00000000000E+00 0.  1.
         11    1    4    4    0    0  0.48373570922E+02 -0.13956315852E+01  0.12731069356E+01  0.48410442598E+02  0.00000000000E+00 0. -1.
<mgrwt>
<rscale>  0 0.12940802E+03</rscale>
<asrwt>0</asrwt>
<pdfrwt beam="2">  1        2 0.13759591E-01 0.13870221E+03</pdfrwt>
<pdfrwt beam="1">  1       -2 0.25686327E-01 0.13870221E+03</pdfrwt>
<totfact> 0.55736654E+03</totfact>
</mgrwt>
</event>
<event>
 8    1  0.8504141E-006  0.1245870E+03  0.7546771E-02  0.1244062E+00
         -3   -1    0    0    0  501 -0.00000000000E+00  0.00000000000E+00  0.21179336811E+03  0.21179336811E+03  0.00000000000E+00 0.  1.
          3   -1    0    0  501    0  0.00000000000E+00 -0.00000000000E+00 -0.78708933526E+02  0.78708933526E+02  0.00000000000E+00 0. -1.
         23    2    1    2    0    0  0.38738573145E+02  0.31202607242E+02  0.13711963456E+03  0.18526658564E+03  0.11422623965E+03 0.  0.
         23    2    1    2    0    0 -0.38738573145E+02 -0.31202607242E+02 -0.40351999770E+01  0.10523571600E+03  0.92649842606E+02 0.  0.
          5    1    3    3  502    0  0.47654863515E+02 -0.12739523129E+02  0.10217449397E+02  0.50594147274E+02  0.47000000000E+01 0. -1.
         -5    1    3    3    0  502 -0.89162903709E+01  0.43942130370E+02  0.12690218516E+03  0.13467243836E+03  0.47000000000E+01 0.  1.
        -11    1    4    4    0    0 -0.50293019752E+02  0.13981877014E+02  0.15822611383E+02  0.54545721661E+02  0.00000000000E+00 0.  1.
         11    1    4    4    0    0  0.11554446607E+02 -0.45184484256E+02 -0.19857811360E+02  0.50689994337E+02  0.00000000000E+00 0. -1.
<mgrwt>
<rscale>  0 0.11941679E+03</rscale>
<asrwt>0</asrwt>
<pdfrwt beam="2">  1        3 0.12109067E-01 0.12458697E+03</pdfrwt>
<pdfrwt beam="1">  1       -3 0.32583595E-01 0.12458697E+03</pdfrwt>
<totfact> 0.11174837E+03</totfact>
</mgrwt>
</event>
<event>
 8    1  0.8504141E-006  0.2298000E+03  0.7546771E-02  0.1129826E+00
         -2   -1    0    0    0  501 -0.00000000000E+00  0.00000000000E+00  0.10222724761E+03  0.10222724761E+03  0.00000000000E+00 0.  1.
          2   -1    0    0  501    0  0.00000000000E+00 -0.00000000000E+00 -0.51724771793E+03  0.51724771793E+03  0.00000000000E+00 0. -1.
         23    2    1    2    0    0 -0.18715186368E+03 -0.46439294849E+02 -0.13157172350E+03  0.26480025122E+03  0.12500250573E+03 0.  0.
         23    2    1    2    0    0  0.18715186368E+03  0.46439294849E+02 -0.28344874682E+03  0.35467471431E+03  0.90931472626E+02 0.  0.
          5    1    3    3  502    0 -0.68062986120E+02 -0.71391023110E+02 -0.22393839919E+02  0.10125622117E+03  0.47000000000E+01 0.  1.
         -5    1    3    3    0  502 -0.11908887756E+03  0.24951728261E+02 -0.10917788358E+03  0.16354403005E+03  0.47000000000E+01 0.  1.
        -11    1    4    4    0    0  0.29211759463E+02  0.36345283644E+02 -0.11215038288E+03  0.12145787301E+03  0.00000000000E+00 0.  1.
         11    1    4    4    0    0  0.15794010421E+03  0.10094011205E+02 -0.17129836394E+03  0.23321684131E+03  0.00000000000E+00 0. -1.
<mgrwt>
<rscale>  0 0.22553059E+03</rscale>
<asrwt>0</asrwt>
<pdfrwt beam="2">  1        2 0.79576573E-01 0.22980003E+03</pdfrwt>
<pdfrwt beam="1">  1       -2 0.15727269E-01 0.22980003E+03</pdfrwt>
<totfact> 0.18861423E+03</totfact>
</mgrwt>
</event>
<event>
 8    1  0.8504141E-006  0.1415714E+03  0.7546771E-02  0.1221504E+00
         -2   -1    0    0    0  501 -0.00000000000E+00  0.00000000000E+00  0.54978593246E+02  0.54978593246E+02  0.00000000000E+00 0.  1.
          2   -1    0    0  501    0  0.00000000000E+00 -0.00000000000E+00 -0.29822480045E+03  0.29822480045E+03  0.00000000000E+00 0. -1.
         23    2    1    2    0    0 -0.27227600378E+02 -0.60624445659E+02 -0.12298888315E+03  0.18753323954E+03  0.12500313964E+03 0.  0.
         23    2    1    2    0    0  0.27227600378E+02  0.60624445659E+02 -0.12025732405E+03  0.16567015415E+03  0.92564087824E+02 0.  0.
          5    1    3    3  502    0 -0.55606674984E+02 -0.53498430188E+02 -0.19281428710E+02  0.79674637297E+02  0.47000000000E+01 0. -1.
         -5    1    3    3    0  502  0.28379074605E+02 -0.71260154710E+01 -0.10370745444E+03  0.10785860225E+03  0.47000000000E+01 0. -1.
        -11    1    4    4    0    0  0.48266486211E+02  0.50296764088E+02 -0.12369191205E+03  0.14198277105E+03  0.00000000000E+00 0. -1.
         11    1    4    4    0    0 -0.21038885832E+02  0.10327681571E+02  0.34345879920E+01  0.23687383105E+02  0.00000000000E+00 0.  1.
<mgrwt>
<rscale>  0 0.13409447E+03</rscale>
<asrwt>0</asrwt>
<pdfrwt beam="2">  1        2 0.45880740E-01 0.14157136E+03</pdfrwt>
<pdfrwt beam="1">  1       -2 0.84582449E-02 0.14157136E+03</pdfrwt>
<totfact> 0.90613698E+03</totfact>
</mgrwt>
</event>
<event>
 8    1  0.8504141E-006  0.1144156E+03  0.7546771E-02  0.1261209E+00
          2   -1    0    0  501    0  0.00000000000E+00  0.00000000000E+00  0.82494481348E+02  0.82494481348E+02  0.00000000000E+00 0. -1.
         -2   -1    0    0    0  501 -0.00000000000E+00 -0.00000000000E+00 -0.33891750512E+03  0.33891750512E+03  0.00000000000E+00 0.  1.
         23    2    1    2    0    0  0.29749173318E+02 -0.10394437127E+00 -0.29580134996E+03  0.31715826297E+03  0.11048031957E+03 0.  0.
         23    2    1    2    0    0 -0.29749173318E+02  0.10394437127E+00  0.39378326190E+02  0.10425372350E+03  0.91832250178E+02 0.  0.
          5    1    3    3  502    0 -0.16633321837E+02  0.42917370105E+02 -0.82092698669E+02  0.94233058037E+02  0.47000000000E+01 0. -1.
         -5    1    3    3    0  502  0.46382495156E+02 -0.43021314477E+02 -0.21370865129E+03  0.22292520493E+03  0.47000000000E+01 0.  1.
        -11    1    4    4    0    0  0.25060259135E+02 -0.84757636300E+01 -0.11623264129E+02  0.28895595271E+02  0.00000000000E+00 0.  1.
         11    1    4    4    0    0 -0.54809432453E+02  0.85797080013E+01  0.51001590319E+02  0.75358128230E+02  0.00000000000E+00 0. -1.
<mgrwt>
<rscale>  0 0.10965547E+03</rscale>
<asrwt>0</asrwt>
<pdfrwt beam="1">  1        2 0.12691459E-01 0.11441558E+03</pdfrwt>
<pdfrwt beam="2">  1       -2 0.52141154E-01 0.11441558E+03</pdfrwt>
<totfact> 0.16219802E+03</totfact>
</mgrwt>
</event>
<event>
 8    1  0.8504141E-006  0.1298351E+03  0.7546771E-02  0.1238617E+00
         -2   -1    0    0    0  501 -0.00000000000E+00  0.00000000000E+00  0.40237358847E+03  0.40237358847E+03  0.00000000000E+00 0.  1.
          2   -1    0    0  501    0  0.00000000000E+00 -0.00000000000E+00 -0.34436654644E+02  0.34436654644E+02  0.00000000000E+00 0. -1.
         23    2    1    2    0    0  0.27489938555E+02 -0.21822847527E+02  0.23124612622E+03  0.26520168524E+03  0.12500091826E+03 0.  0.
         23    2    1    2    0    0 -0.27489938555E+02  0.21822847527E+02  0.13669080761E+03  0.17160855788E+03  0.97638040007E+02 0.  0.
          5    1    3    3  502    0  0.44386849431E+02 -0.67030981472E+02  0.12962963475E+03  0.15260824710E+03  0.47000000000E+01 0.  1.
         -5    1    3    3    0  502 -0.16896910876E+02  0.45208133944E+02  0.10161649147E+03  0.11259343813E+03  0.47000000000E+01 0.  1.
        -11    1    4    4    0    0  0.73150030671E+01  0.46670112101E+02  0.28255363393E+02  0.55045201370E+02  0.00000000000E+00 0.  1.
         11    1    4    4    0    0 -0.34804941623E+02 -0.24847264574E+02  0.10843544422E+03  0.11656335651E+03  0.00000000000E+00 0. -1.
<mgrwt>
<rscale>  0 0.12275708E+03</rscale>
<asrwt>0</asrwt>
<pdfrwt beam="2">  1        2 0.52979472E-02 0.12983514E+03</pdfrwt>
<pdfrwt beam="1">  1       -2 0.61903626E-01 0.12983514E+03</pdfrwt>
<totfact> 0.34297077E+03</totfact>
</mgrwt>
</event>
<event>
 7    1  0.8504141E-006  0.1508498E+03  0.7546771E-02  0.1209039E+00
         -1   -1    0    0    0  501 -0.00000000000E+00  0.00000000000E+00  0.71870557370E+02  0.71870557370E+02  0.00000000000E+00 0.  1.
          1   -1    0    0  501    0  0.00000000000E+00 -0.00000000000E+00 -0.54030977977E+03  0.54030977977E+03  0.00000000000E+00 0. -1.
         23    2    1    2    0    0  0.75950344731E+02  0.22880654598E+02 -0.44242426463E+03  0.45910375545E+03  0.93514967336E+02 0.  0.
          5    1    1    2  502    0 -0.11130359657E+03 -0.16678337613E+02 -0.30235926432E+02  0.11663172296E+03  0.47000000000E+01 0. -1.
         -5    1    1    2    0  502  0.35353251836E+02 -0.62023169846E+01  0.42209686583E+01  0.36444858729E+02  0.47000000000E+01 0.  1.
        -11    1    3    3    0    0  0.29912786500E+02 -0.34056914970E+02 -0.11541183061E+03  0.12399410832E+03  0.00000000000E+00 0.  1.
         11    1    3    3    0    0  0.46037558231E+02  0.56937569567E+02 -0.32701243401E+03  0.33510964712E+03  0.00000000000E+00 0. -1.
<mgrwt>
<rscale>  0 0.14323653E+03</rscale>
<asrwt>0</asrwt>
<pdfrwt beam="2">  1        1 0.83124584E-01 0.15084980E+03</pdfrwt>
<pdfrwt beam="1">  1       -1 0.11057009E-01 0.15084980E+03</pdfrwt>
<totfact> 0.20867679E+03</totfact>
</mgrwt>
</event>
<event>
 8    1  0.8504141E-006  0.4230285E+03  0.7546771E-02  0.1036805E+00
         -2   -1    0    0    0  501 -0.00000000000E+00  0.00000000000E+00  0.11340608982E+04  0.11340608982E+04  0.00000000000E+00 0.  1.
          2   -1    0    0  501    0  0.00000000000E+00 -0.00000000000E+00 -0.15548496243E+03  0.15548496243E+03  0.00000000000E+00 0. -1.
         23    2    1    2    0    0 -0.12770998938E-01  0.40413462068E+03  0.44373908686E+03  0.61307217690E+03  0.12501329961E+03 0.  0.
         23    2    1    2    0    0  0.12770998938E-01 -0.40413462068E+03  0.53483684895E+03  0.67647368377E+03  0.90782146070E+02 0.  0.
          5    1    3    3  502    0  0.12590381470E+01  0.31358597125E+03  0.25697354448E+03  0.40545682767E+03  0.47000000000E+01 0. -1.
         -5    1    3    3    0  502 -0.12718091460E+01  0.90548649429E+02  0.18676554238E+03  0.20761534923E+03  0.47000000000E+01 0. -1.
        -11    1    4    4    0    0 -0.43209664919E+02 -0.26449632110E+03  0.34229167950E+03  0.43472861980E+03  0.00000000000E+00 0. -1.
         11    1    4    4    0    0  0.43222435918E+02 -0.13963829959E+03  0.19254516945E+03  0.24174506397E+03  0.00000000000E+00 0.  1.
<mgrwt>
<rscale>  0 0.42080529E+03</rscale>
<asrwt>0</asrwt>
<pdfrwt beam="2">  1        2 0.23920764E-01 0.42302851E+03</pdfrwt>
<pdfrwt beam="1">  1       -2 0.17447090E+00 0.42302851E+03</pdfrwt>
<totfact> 0.47395409E+01</totfact>
</mgrwt>
</event>
<event>
 8    1  0.8504141E-006  0.1970879E+03  0.7546771E-02  0.1157392E+00
          1   -1    0    0  501    0  0.00000000000E+00  0.00000000000E+00  0.62400669863E+03  0.62400669863E+03  0.00000000000E+00 0. -1.
         -1   -1    0    0    0  501 -0.00000000000E+00 -0.00000000000E+00 -0.64560582222E+02  0.64560582222E+02  0.00000000000E+00 0.  1.
         23    2    1    2    0    0 -0.11816930843E+03  0.96205903125E+02  0.16429574940E+03  0.25658667366E+03  0.12499626627E+03 0.  0.
         23    2    1    2    0    0  0.11816930843E+03 -0.96205903125E+02  0.39515036701E+03  0.43198060719E+03  0.85110934592E+02 0.  0.
          5    1    3    3  502    0 -0.42800381911E+01  0.33343774028E+01  0.92831284487E+02  0.93108400154E+02  0.47000000000E+01 0. -1.
         -5    1    3    3    0  502 -0.11388927024E+03  0.92871525722E+02  0.71464464909E+02  0.16347827351E+03  0.47000000000E+01 0. -1.
        -11    1    4    4    0    0  0.12643695054E+03 -0.64964892380E+02  0.31707230234E+03  0.34747889809E+03  0.00000000000E+00 0.  1.
         11    1    4    4    0    0 -0.82676421116E+01 -0.31241010745E+02  0.78078064669E+02  0.84501709101E+02  0.00000000000E+00 0. -1.
<mgrwt>
<rscale>  0 0.19119092E+03</rscale>
<asrwt>0</asrwt>
<pdfrwt beam="1">  1        1 0.96001026E-01 0.19708787E+03</pdfrwt>
<pdfrwt beam="2">  1       -1 0.99323977E-02 0.19708787E+03</pdfrwt>
<totfact> 0.20356933E+03</totfact>
</mgrwt>
</event>
<event>
 8    1  0.8504141E-006  0.1956528E+03  0.7546771E-02  0.1157899E+00
          1   -1    0    0  501    0  0.00000000000E+00  0.00000000000E+00  0.78577992827E+02  0.78577992827E+02  0.00000000000E+00 0. -1.
         -1   -1    0    0    0  501 -0.00000000000E+00 -0.00000000000E+00 -0.60534903767E+03  0.60534903767E+03  0.00000000000E+00 0.  1.
         23    2    1    2    0    0 -0.80471933521E+02 -0.12719816058E+03 -0.45179861735E+03  0.49234338924E+03  0.12499967262E+03 0.  0.
         23    2    1    2    0    0  0.80471933521E+02  0.12719816058E+03 -0.74972427496E+02  0.19158364126E+03  0.91805896181E+02 0.  0.
          5    1    3    3  502    0 -0.93246652213E+02 -0.41792855965E+02 -0.17902643469E+03  0.20618956151E+03  0.47000000000E+01 0.  1.
         -5    1    3    3    0  502  0.12774718692E+02 -0.85405304611E+02 -0.27277218266E+03  0.28615382773E+03  0.47000000000E+01 0.  1.
        -11    1    4    4    0    0  0.61381484391E+02  0.98982061416E+02 -0.83648544446E+01  0.11676945619E+03  0.00000000000E+00 0. -1.
         11    1    4    4    0    0  0.19090449130E+02  0.28216099160E+02 -0.66607573051E+02  0.74814185069E+02  0.00000000000E+00 0.  1.
<mgrwt>
<rscale>  0 0.19062536E+03</rscale>
<asrwt>0</asrwt>
<pdfrwt beam="1">  1        1 0.12088922E-01 0.19565281E+03</pdfrwt>
<pdfrwt beam="2">  1       -1 0.93130622E-01 0.19565281E+03</pdfrwt>
<totfact> 0.58571626E+02</totfact>
</mgrwt>
</event>
<event>
 8    1  0.8504141E-006  0.2276019E+03  0.7546771E-02  0.1131422E+00
         -2   -1    0    0    0  501 -0.00000000000E+00  0.00000000000E+00  0.64019122386E+02  0.64019122386E+02  0.00000000000E+00 0.  1.
          2   -1    0    0  501    0  0.00000000000E+00 -0.00000000000E+00 -0.76269629046E+03  0.76269629046E+03  0.00000000000E+00 0. -1.
         23    2    1    2    0    0 -0.18138313487E+03 -0.57242382325E+02 -0.31173385361E+03  0.38598010276E+03  0.12500444911E+03 0.  0.
         23    2    1    2    0    0  0.18138313487E+03  0.57242382325E+02 -0.38694331447E+03  0.44073531008E+03  0.91356187493E+02 0.  0.
          5    1    3    3  502    0 -0.12139026583E+03 -0.58195085294E+01 -0.92219106855E+02  0.15263000029E+03  0.47000000000E+01 0. -1.
         -5    1    3    3    0  502 -0.59992869035E+02 -0.51422873795E+02 -0.21951474675E+03  0.23335010248E+03  0.47000000000E+01 0. -1.
        -11    1    4    4    0    0  0.92360366491E+02  0.56103970913E+02 -0.28813625846E+03  0.30773461990E+03  0.00000000000E+00 0.  1.
         11    1    4    4    0    0  0.89022768378E+02  0.11384114113E+01 -0.98807056012E+02  0.13300069018E+03  0.00000000000E+00 0. -1.
<mgrwt>
<rscale>  0 0.22333377E+03</rscale>
<asrwt>0</asrwt>
<pdfrwt beam="2">  1        2 0.11733789E+00 0.22760194E+03</pdfrwt>
<pdfrwt beam="1">  1       -2 0.98490956E-02 0.22760194E+03</pdfrwt>
<totfact> 0.25503542E+03</totfact>
</mgrwt>
</event>
<event>
 8    1  0.8504141E-006  0.1309437E+03  0.7546771E-02  0.1234956E+00
         -1   -1    0    0    0  501 -0.00000000000E+00  0.00000000000E+00  0.23050980947E+03  0.23050980947E+03  0.00000000000E+00 0.  1.
          1   -1    0    0  501    0  0.00000000000E+00 -0.00000000000E+00 -0.96159562799E+02  0.96159562799E+02  0.00000000000E+00 0. -1.
         23    2    1    2    0    0  0.20602304339E+02 -0.53513886097E+02  0.16762802625E+03  0.21270968726E+03  0.11772028254E+03 0.  0.
         23    2    1    2    0    0 -0.20602304339E+02  0.53513886097E+02 -0.33277779578E+02  0.11395968501E+03  0.92688770863E+02 0.  0.
          5    1    3    3  502    0 -0.26219847295E+02  0.25331512730E+02  0.30954746675E+02  0.48056760930E+02  0.47000000000E+01 0. -1.
         -5    1    3    3    0  502  0.46822151634E+02 -0.78845398827E+02  0.13667327957E+03  0.16465292633E+03  0.47000000000E+01 0.  1.
        -11    1    4    4    0    0 -0.19950747199E+02 -0.19298269602E+02  0.97048157247E+01  0.29404744033E+02  0.00000000000E+00 0.  1.
         11    1    4    4    0    0 -0.65155714034E+00  0.72812155699E+02 -0.42982595302E+02  0.84554940975E+02  0.00000000000E+00 0. -1.
<mgrwt>
<rscale>  0 0.12507278E+03</rscale>
<asrwt>0</asrwt>
<pdfrwt beam="2">  1        1 0.14793779E-01 0.13094371E+03</pdfrwt>
<pdfrwt beam="1">  1       -1 0.35463047E-01 0.13094371E+03</pdfrwt>
<totfact> 0.27981926E+03</totfact>
</mgrwt>
</event>
<event>
 6    1  0.8504141E-006  0.1839835E+03  0.7546771E-02  0.1204590E+00
          1   -1    0    0  501    0  0.00000000000E+00  0.00000000000E+00  0.50783750530E+03  0.50783750530E+03  0.00000000000E+00 0. -1.
         -1   -1    0    0    0  501 -0.00000000000E+00 -0.00000000000E+00 -0.60551862455E+02  0.60551862455E+02  0.00000000000E+00 0.  1.
          5    1    1    2  502    0  0.97859927928E+02  0.69473127938E+02  0.85281804044E+02  0.14730294329E+03  0.47000000000E+01 0. -1.
         -5    1    1    2    0  502 -0.31738027064E+02 -0.48556882145E+02  0.72815184670E+01  0.58653079005E+02  0.47000000000E+01 0.  1.
        -11    1    1    2    0    0 -0.32239943151E+02 -0.24183710196E+02  0.19675359853E+03  0.20083885159E+03  0.00000000000E+00 0. -1.
         11    1    1    2    0    0 -0.33881957713E+02  0.32674644033E+01  0.15796872181E+03  0.16159449388E+03  0.00000000000E+00 0.  1.
<mgrwt>
<rscale>  0 0.14669820E+03</rscale>
<asrwt>0</asrwt>
<pdfrwt beam="1">  1        1 0.78128844E-01 0.18398346E+03</pdfrwt>
<pdfrwt beam="2">  1       -1 0.93156715E-02 0.18398346E+03</pdfrwt>
<totfact> 0.29649424E+03</totfact>
</mgrwt>
</event>
<event>
 8    1  0.8504141E-006  0.1383196E+03  0.7546771E-02  0.1227640E+00
         -2   -1    0    0    0  501 -0.00000000000E+00  0.00000000000E+00  0.10056347635E+03  0.10056347635E+03  0.00000000000E+00 0.  1.
          2   -1    0    0  501    0  0.00000000000E+00 -0.00000000000E+00 -0.23948119766E+03  0.23948119766E+03  0.00000000000E+00 0. -1.
         23    2    1    2    0    0  0.43192884204E+02 -0.40524075417E+02  0.28358412540E+02  0.14119675174E+03  0.12499798881E+03 0.  0.
         23    2    1    2    0    0 -0.43192884204E+02  0.40524075417E+02 -0.16727613385E+03  0.19884792227E+03  0.89729400429E+02 0.  0.
          5    1    3    3  502    0 -0.42069573513E+02  0.10803866808E+01  0.10375106082E+01  0.42357793607E+02  0.47000000000E+01 0.  1.
         -5    1    3    3    0  502  0.85262457717E+02 -0.41604462098E+02  0.27320901932E+02  0.98838958133E+02  0.47000000000E+01 0.  1.
        -11    1    4    4    0    0  0.15307223785E+02 -0.18650296212E+01  0.12689080347E+01  0.15472542231E+02  0.00000000000E+00 0.  1.
         11    1    4    4    0    0 -0.58500107989E+02  0.42389105038E+02 -0.16854504189E+03  0.18337538004E+03  0.00000000000E+00 0. -1.
<mgrwt>
<rscale>  0 0.12987598E+03</rscale>
<asrwt>0</asrwt>
<pdfrwt beam="2">  1        2 0.36843261E-01 0.13831964E+03</pdfrwt>
<pdfrwt beam="1">  1       -2 0.15471304E-01 0.13831964E+03</pdfrwt>
<totfact> 0.43671187E+03</totfact>
</mgrwt>
</event>
<event>
 8    1  0.8504141E-006  0.1350564E+03  0.7546771E-02  0.1232146E+00
          3   -1    0    0  501    0  0.00000000000E+00  0.00000000000E+00  0.91670041800E+02  0.91670041800E+02  0.00000000000E+00 0. -1.
         -3   -1    0    0    0  501 -0.00000000000E+00 -0.00000000000E+00 -0.20921473562E+03  0.20921473562E+03  0.00000000000E+00 0.  1.
         23    2    1    2    0    0  0.43040558874E+02 -0.27654366317E+02 -0.13865018171E+03  0.19355643271E+03  0.12499186401E+03 0.  0.
         23    2    1    2    0    0 -0.43040558874E+02  0.27654366317E+02  0.21105487887E+02  0.10732834471E+03  0.91960199410E+02 0.  0.
          5    1    3    3  502    0  0.70775623927E+02 -0.44061076184E+02 -0.13762359274E+03  0.16097487585E+03  0.47000000000E+01 0.  1.
         -5    1    3    3    0  502 -0.27735065053E+02  0.16406709867E+02 -0.10265889671E+01  0.32581556854E+02  0.47000000000E+01 0.  1.
        -11    1    4    4    0    0  0.18328057128E+02 -0.20294208092E+02  0.60696901835E+01  0.28010956769E+02  0.00000000000E+00 0.  1.
         11    1    4    4    0    0 -0.61368616002E+02  0.47948574409E+02  0.15035797704E+02  0.79317387945E+02  0.00000000000E+00 0. -1.
<mgrwt>
<rscale>  0 0.12688901E+03</rscale>
<asrwt>0</asrwt>
<pdfrwt beam="1">  1        3 0.14103083E-01 0.13505636E+03</pdfrwt>
<pdfrwt beam="2">  1       -3 0.32186882E-01 0.13505636E+03</pdfrwt>
<totfact> 0.89566911E+02</totfact>
</mgrwt>
</event>
<event>
 8    1  0.8504141E-006  0.2047400E+03  0.7546771E-02  0.1149711E+00
         -2   -1    0    0    0  501 -0.00000000000E+00  0.00000000000E+00  0.12325395583E+03  0.12325395583E+03  0.00000000000E+00 0.  1.
          2   -1    0    0  501    0  0.00000000000E+00 -0.00000000000E+00 -0.41554109414E+03  0.41554109414E+03  0.00000000000E+00 0. -1.
         23    2    1    2    0    0 -0.57512583963E+01  0.16205218019E+03 -0.15920521258E+02  0.20535803737E+03  0.12499789774E+03 0.  0.
         23    2    1    2    0    0  0.57512583963E+01 -0.16205218019E+03 -0.27636661705E+03  0.33343701261E+03  0.92237455956E+02 0.  0.
          5    1    3    3  502    0  0.49048444629E+02  0.43583313775E+02 -0.33062984637E+02  0.73624086502E+02  0.47000000000E+01 0.  1.
         -5    1    3    3    0  502 -0.54799703026E+02  0.11846886641E+03  0.17142463379E+02  0.13173395087E+03  0.47000000000E+01 0.  1.
        -11    1    4    4    0    0 -0.25364703565E+02 -0.50574371688E+02 -0.37128353438E+02  0.67673110522E+02  0.00000000000E+00 0.  1.
         11    1    4    4    0    0  0.31115961962E+02 -0.11147780850E+03 -0.23923826361E+03  0.26576390209E+03  0.00000000000E+00 0. -1.
<mgrwt>
<rscale>  0 0.20003321E+03</rscale>
<asrwt>0</asrwt>
<pdfrwt beam="2">  1        2 0.63929399E-01 0.20473998E+03</pdfrwt>
<pdfrwt beam="1">  1       -2 0.18962147E-01 0.20473998E+03</pdfrwt>
<totfact> 0.17509131E+03</totfact>
</mgrwt>
</event>
<event>
 8    1  0.8504141E-006  0.1345831E+03  0.7546771E-02  0.1232762E+00
         -2   -1    0    0    0  501 -0.00000000000E+00  0.00000000000E+00  0.29430554863E+02  0.29430554863E+02  0.00000000000E+00 0.  1.
          2   -1    0    0  501    0  0.00000000000E+00 -0.00000000000E+00 -0.48900942461E+03  0.48900942461E+03  0.00000000000E+00 0. -1.
         23    2    1    2    0    0  0.39542410179E+02  0.30410905636E+02 -0.24438526262E+03  0.27899242448E+03  0.12499676374E+03 0.  0.
         23    2    1    2    0    0 -0.39542410179E+02 -0.30410905636E+02 -0.21519360713E+03  0.23944755500E+03  0.92403558701E+02 0.  0.
          5    1    3    3  502    0  0.68387433674E+02 -0.38783777468E+00 -0.21910500985E+03  0.22957806263E+03  0.47000000000E+01 0. -1.
         -5    1    3    3    0  502 -0.28845023496E+02  0.30798743411E+02 -0.25280252772E+02  0.49414361843E+02  0.47000000000E+01 0. -1.
        -11    1    4    4    0    0 -0.48187774121E+02  0.16680609282E+02 -0.70289907890E+02  0.86838790019E+02  0.00000000000E+00 0. -1.
         11    1    4    4    0    0  0.86453639425E+01 -0.47091514918E+02 -0.14490369924E+03  0.15260876498E+03  0.00000000000E+00 0.  1.
<mgrwt>
<rscale>  0 0.12648801E+03</rscale>
<asrwt>0</asrwt>
<pdfrwt beam="2">  1        2 0.75232218E-01 0.13458312E+03</pdfrwt>
<pdfrwt beam="1">  1       -2 0.45277777E-02 0.13458312E+03</pdfrwt>
<totfact> 0.13754250E+04</totfact>
</mgrwt>
</event>
<event>
 8    1  0.8504141E-006  0.2333683E+03  0.7546771E-02  0.1127308E+00
          1   -1    0    0  501    0  0.00000000000E+00  0.00000000000E+00  0.26745991186E+02  0.26745991186E+02  0.00000000000E+00 0. -1.
         -1   -1    0    0    0  501 -0.00000000000E+00 -0.00000000000E+00 -0.22618026603E+04  0.22618026603E+04  0.00000000000E+00 0.  1.
         23    2    1    2    0    0 -0.10543263046E+03  0.16648110322E+03 -0.16146044505E+04  0.16313823250E+04  0.12501504612E+03 0.  0.
         23    2    1    2    0    0  0.10543263046E+03 -0.16648110322E+03 -0.62045221865E+03  0.65716632643E+03  0.89858932058E+02 0.  0.
          5    1    3    3  502    0  0.20123789111E+02  0.14117288498E+01 -0.27851346193E+03  0.27928264956E+03  0.47000000000E+01 0. -1.
         -5    1    3    3    0  502 -0.12555641957E+03  0.16506937437E+03 -0.13360909885E+04  0.13520996755E+04  0.47000000000E+01 0. -1.
        -11    1    4    4    0    0  0.92999415384E+02 -0.88279956593E+02 -0.46963821416E+03  0.48682881406E+03  0.00000000000E+00 0.  1.
         11    1    4    4    0    0  0.12433215077E+02 -0.78201146625E+02 -0.15081400449E+03  0.17033751237E+03  0.00000000000E+00 0. -1.
<mgrwt>
<rscale>  0 0.22905283E+03</rscale>
<asrwt>0</asrwt>
<pdfrwt beam="1">  1        1 0.41147683E-02 0.23336829E+03</pdfrwt>
<pdfrwt beam="2">  1       -1 0.34796961E+00 0.23336829E+03</pdfrwt>
<totfact> 0.42341723E+01</totfact>
</mgrwt>
</event>
<event>
 8    1  0.8504141E-006  0.1898602E+03  0.7546771E-02  0.1163507E+00
         -1   -1    0    0    0  501 -0.00000000000E+00  0.00000000000E+00  0.67889967810E+02  0.67889967810E+02  0.00000000000E+00 0.  1.
          1   -1    0    0  501    0  0.00000000000E+00 -0.00000000000E+00 -0.61491565983E+03  0.61491565983E+03  0.00000000000E+00 0. -1.
         23    2    1    2    0    0  0.36427402123E+02  0.13817650810E+03 -0.12302476065E+03  0.22623437125E+03  0.12500878364E+03 0.  0.
         23    2    1    2    0    0 -0.36427402123E+02 -0.13817650810E+03 -0.42400093137E+03  0.45657125639E+03  0.90889049616E+02 0.  0.
          5    1    3    3  502    0 -0.13372742398E+02  0.13853217846E+03 -0.82521959974E+02  0.16187019054E+03  0.47000000000E+01 0.  1.
         -5    1    3    3    0  502  0.49800144521E+02 -0.35567036675E+00 -0.40502800672E+02  0.64364180707E+02  0.47000000000E+01 0.  1.
        -11    1    4    4    0    0 -0.21223924594E+02 -0.85566112162E+02 -0.12722146317E+03  0.15478150799E+03  0.00000000000E+00 0. -1.
         11    1    4    4    0    0 -0.15203477530E+02 -0.52610395935E+02 -0.29677946820E+03  0.30178974839E+03  0.00000000000E+00 0.  1.
<mgrwt>
<rscale>  0 0.18451167E+03</rscale>
<asrwt>0</asrwt>
<pdfrwt beam="2">  1        1 0.94602408E-01 0.18986021E+03</pdfrwt>
<pdfrwt beam="1">  1       -1 0.10444611E-01 0.18986021E+03</pdfrwt>
<totfact> 0.19213621E+03</totfact>
</mgrwt>
</event>
<event>
 8    1  0.8504141E-006  0.1794641E+03  0.7546771E-02  0.1174063E+00
         -1   -1    0    0    0  501 -0.00000000000E+00  0.00000000000E+00  0.33241911566E+03  0.33241911566E+03  0.00000000000E+00 0.  1.
          1   -1    0    0  501    0  0.00000000000E+00 -0.00000000000E+00 -0.11992765201E+03  0.11992765201E+03  0.00000000000E+00 0. -1.
         23    2    1    2    0    0  0.64823435004E+02  0.11126002507E+03  0.23244506748E+03  0.29366321781E+03  0.12500602062E+03 0.  0.
         23    2    1    2    0    0 -0.64823435004E+02 -0.11126002507E+03 -0.19953603828E+02  0.15868354986E+03  0.90561867174E+02 0.  0.
          5    1    3    3  502    0 -0.36106520416E+02  0.43340133050E+02  0.89513470218E+02  0.10590939193E+03  0.47000000000E+01 0. -1.
         -5    1    3    3    0  502  0.10092995542E+03  0.67919892025E+02  0.14293159726E+03  0.18775382587E+03  0.47000000000E+01 0. -1.
        -11    1    4    4    0    0 -0.71253009224E+02 -0.52973738766E+02  0.15541975173E+02  0.90137457889E+02  0.00000000000E+00 0.  1.
         11    1    4    4    0    0  0.64295742205E+01 -0.58286286309E+02 -0.35495579001E+02  0.68546091974E+02  0.00000000000E+00 0. -1.
<mgrwt>
<rscale>  0 0.17368048E+03</rscale>
<asrwt>0</asrwt>
<pdfrwt beam="2">  1        1 0.18450408E-01 0.17946414E+03</pdfrwt>
<pdfrwt beam="1">  1       -1 0.51141402E-01 0.17946414E+03</pdfrwt>
<totfact> 0.11091243E+03</totfact>
</mgrwt>
</event>
<event>
 8    1  0.8504141E-006  0.1356540E+03  0.7546771E-02  0.1233824E+00
         -1   -1    0    0    0  501 -0.00000000000E+00  0.00000000000E+00  0.12098298876E+02  0.12098298876E+02  0.00000000000E+00 0.  1.
          1   -1    0    0  501    0  0.00000000000E+00 -0.00000000000E+00 -0.11654041783E+04  0.11654041783E+04  0.00000000000E+00 0. -1.
         23    2    1    2    0    0 -0.72459704016E+01  0.52198913019E+02 -0.72721231221E+03  0.73975655566E+03  0.12499913606E+03 0.  0.
         23    2    1    2    0    0  0.72459704016E+01 -0.52198913019E+02 -0.42609356719E+03  0.43774592148E+03  0.85372906521E+02 0.  0.
          5    1    3    3  502    0  0.12825993468E+02  0.64891900838E+02 -0.17704463651E+03  0.18905649478E+03  0.47000000000E+01 0.  1.
         -5    1    3    3    0  502 -0.20071963870E+02 -0.12692987819E+02 -0.55016767570E+03  0.55070006088E+03  0.47000000000E+01 0.  1.
        -11    1    4    4    0    0 -0.37142053199E+02 -0.21214933138E+02 -0.13343730251E+03  0.14012536960E+03  0.00000000000E+00 0.  1.
         11    1    4    4    0    0  0.44388023601E+02 -0.30983979881E+02 -0.29265626467E+03  0.29762055188E+03  0.00000000000E+00 0. -1.
<mgrwt>
<rscale>  0 0.12579992E+03</rscale>
<asrwt>0</asrwt>
<pdfrwt beam="2">  1        1 0.17929300E+00 0.13565403E+03</pdfrwt>
<pdfrwt beam="1">  1       -1 0.18612762E-02 0.13565403E+03</pdfrwt>
<totfact> 0.89440374E+03</totfact>
</mgrwt>
</event>
<event>
 8    1  0.8504141E-006  0.1269048E+03  0.7546771E-02  0.1246161E+00
          1   -1    0    0  501    0  0.00000000000E+00  0.00000000000E+00  0.19025309599E+03  0.19025309599E+03  0.00000000000E+00 0. -1.
         -1   -1    0    0    0  501 -0.00000000000E+00 -0.00000000000E+00 -0.65494651186E+02  0.65494651186E+02  0.00000000000E+00 0.  1.
         23    2    1    2    0    0  0.15048890366E+02 -0.15910464282E+02  0.82914835231E+02  0.15159056965E+03  0.12500087572E+03 0.  0.
         23    2    1    2    0    0 -0.15048890366E+02  0.15910464282E+02  0.41843609569E+02  0.10415717752E+03  0.92834357825E+02 0.  0.
          5    1    3    3  502    0  0.53995679939E+02  0.21750154053E+02  0.78925837154E+01  0.58932041634E+02  0.47000000000E+01 0. -1.
         -5    1    3    3    0  502 -0.38946789573E+02 -0.37660618335E+02  0.75022251516E+02  0.92658528015E+02  0.47000000000E+01 0. -1.
        -11    1    4    4    0    0 -0.10897907246E+02  0.39884349692E+02 -0.13668528088E+02  0.43547151374E+02  0.00000000000E+00 0.  1.
         11    1    4    4    0    0 -0.41509831207E+01 -0.23973885410E+02  0.55512137656E+02  0.60610026148E+02  0.00000000000E+00 0. -1.
<mgrwt>
<rscale>  0 0.11816144E+03</rscale>
<asrwt>0</asrwt>
<pdfrwt beam="1">  1        1 0.29269707E-01 0.12690481E+03</pdfrwt>
<pdfrwt beam="2">  1       -1 0.10076100E-01 0.12690481E+03</pdfrwt>
<totfact> 0.88483567E+03</totfact>
</mgrwt>
</event>
<event>
 8    1  0.8504141E-006  0.1342850E+03  0.7546771E-02  0.1233880E+00
         -4   -1    0    0    0  501 -0.00000000000E+00  0.00000000000E+00  0.88594670073E+02  0.88594670073E+02  0.00000000000E+00 0.  1.
          4   -1    0    0  501    0  0.00000000000E+00 -0.00000000000E+00 -0.16735417745E+03  0.16735417745E+03  0.00000000000E+00 0. -1.
         23    2    1    2    0    0  0.47874761027E+02  0.10786177985E+02 -0.72116776062E+02  0.15242471570E+03  0.12499652070E+03 0.  0.
         23    2    1    2    0    0 -0.47874761027E+02 -0.10786177985E+02 -0.66427313182E+01  0.10352413183E+03  0.90910866308E+02 0.  0.
          5    1    3    3  502    0  0.75843566723E+02  0.41994728554E+02 -0.67557857778E+02  0.11000889958E+03  0.47000000000E+01 0. -1.
         -5    1    3    3    0  502 -0.27968805696E+02 -0.31208550569E+02 -0.45589182844E+01  0.42415816114E+02  0.47000000000E+01 0. -1.
        -11    1    4    4    0    0 -0.45242945735E+02  0.73916354349E+01  0.35219456128E+02  0.57809778612E+02  0.00000000000E+00 0.  1.
         11    1    4    4    0    0 -0.26318152921E+01 -0.18177813420E+02 -0.41862187446E+02  0.45714353219E+02  0.00000000000E+00 0. -1.
<mgrwt>
<rscale>  0 0.12576421E+03</rscale>
<asrwt>0</asrwt>
<pdfrwt beam="2">  1        4 0.25746796E-01 0.13428501E+03</pdfrwt>
<pdfrwt beam="1">  1       -4 0.13629949E-01 0.13428501E+03</pdfrwt>
<totfact> 0.10409528E+03</totfact>
</mgrwt>
</event>
<event>
 8    1  0.8504141E-006  0.1725093E+03  0.7546771E-02  0.1181523E+00
          3   -1    0    0  501    0  0.00000000000E+00  0.00000000000E+00  0.21045161832E+03  0.21045161832E+03  0.00000000000E+00 0.  1.
         -3   -1    0    0    0  501 -0.00000000000E+00 -0.00000000000E+00 -0.14257573841E+03  0.14257573841E+03  0.00000000000E+00 0. -1.
         23    2    1    2    0    0 -0.10449074713E+03 -0.56708793720E+02 -0.28600715860E+02  0.17486410007E+03  0.12500099609E+03 0.  0.
         23    2    1    2    0    0  0.10449074713E+03  0.56708793720E+02  0.96476595772E+02  0.17816325666E+03  0.91105482668E+02 0.  0.
          5    1    3    3  502    0 -0.94793831497E+02 -0.22369567964E+02  0.33485890107E+02  0.10310025653E+03  0.47000000000E+01 0.  1.
         -5    1    3    3    0  502 -0.96969156338E+01 -0.34339225756E+02 -0.62086605967E+02  0.71763843534E+02  0.47000000000E+01 0.  1.
        -11    1    4    4    0    0  0.63178498917E+02  0.35792650921E+02  0.10828362742E+03  0.13037630365E+03  0.00000000000E+00 0.  1.
         11    1    4    4    0    0  0.41312248214E+02  0.20916142799E+02 -0.11807031650E+02  0.47786953015E+02  0.00000000000E+00 0. -1.
<mgrwt>
<rscale>  0 0.16652279E+03</rscale>
<asrwt>0</asrwt>
<pdfrwt beam="1">  1        3 0.32377172E-01 0.17250928E+03</pdfrwt>
<pdfrwt beam="2">  1       -3 0.21934729E-01 0.17250928E+03</pdfrwt>
<totfact> 0.42470106E+02</totfact>
</mgrwt>
</event>
<event>
 8    1  0.8504141E-006  0.1324202E+03  0.7546771E-02  0.1236501E+00
          3   -1    0    0  501    0  0.00000000000E+00  0.00000000000E+00  0.19910468108E+03  0.19910468108E+03  0.00000000000E+00 0. -1.
         -3   -1    0    0    0  501 -0.00000000000E+00 -0.00000000000E+00 -0.72723908591E+02  0.72723908591E+02  0.00000000000E+00 0.  1.
         23    2    1    2    0    0 -0.43700679530E+02  0.56557356512E+01  0.40697850058E+02  0.13853310884E+03  0.12487341794E+03 0.  0.
         23    2    1    2    0    0  0.43700679530E+02 -0.56557356512E+01  0.85682922432E+02  0.13329548083E+03  0.92110722921E+02 0.  0.
          5    1    3    3  502    0  0.16092068874E+02  0.51107270394E+02  0.32478610482E+02  0.62831981559E+02  0.47000000000E+01 0.  1.
         -5    1    3    3    0  502 -0.59792748403E+02 -0.45451534743E+02  0.82192395753E+01  0.75701127279E+02  0.47000000000E+01 0.  1.
        -11    1    4    4    0    0 -0.13810132234E+02 -0.34822877552E+02  0.35149589915E+02  0.51369701425E+02  0.00000000000E+00 0. -1.
         11    1    4    4    0    0  0.57510811764E+02  0.29167141901E+02  0.50533332516E+02  0.81925779408E+02  0.00000000000E+00 0.  1.
<mgrwt>
<rscale>  0 0.12408835E+03</rscale>
<asrwt>0</asrwt>
<pdfrwt beam="1">  1        3 0.30631489E-01 0.13242019E+03</pdfrwt>
<pdfrwt beam="2">  1       -3 0.11188294E-01 0.13242019E+03</pdfrwt>
<totfact> 0.14456821E+03</totfact>
</mgrwt>
</event>
<event>
 8    1  0.8504141E-006  0.1277793E+03  0.7546771E-02  0.1244642E+00
         -2   -1    0    0    0  501 -0.00000000000E+00  0.00000000000E+00  0.18383188602E+02  0.18383188602E+02  0.00000000000E+00 0.  1.
          2   -1    0    0  501    0  0.00000000000E+00 -0.00000000000E+00 -0.70452041860E+03  0.70452041860E+03  0.00000000000E+00 0. -1.
         23    2    1    2    0    0 -0.25905259776E+02 -0.56432840977E+01 -0.32728864293E+03  0.35134798361E+03  0.12499848260E+03 0.  0.
         23    2    1    2    0    0  0.25905259776E+02  0.56432840977E+01 -0.35884858706E+03  0.37155562359E+03  0.92619349198E+02 0.  0.
          5    1    3    3  502    0 -0.47138333364E+02  0.49087723393E+02 -0.15763397934E+03  0.17176201124E+03  0.47000000000E+01 0.  1.
         -5    1    3    3    0  502  0.21233073587E+02 -0.54731007491E+02 -0.16965466359E+03  0.17958597237E+03  0.47000000000E+01 0.  1.
        -11    1    4    4    0    0  0.39879033931E+02  0.40808949160E+02 -0.24604201878E+03  0.25257153973E+03  0.00000000000E+00 0. -1.
         11    1    4    4    0    0 -0.13973774154E+02 -0.35165665062E+02 -0.11280656828E+03  0.11898408386E+03  0.00000000000E+00 0.  1.
<mgrwt>
<rscale>  0 0.11906835E+03</rscale>
<asrwt>0</asrwt>
<pdfrwt beam="2">  1        2 0.10838776E+00 0.12777930E+03</pdfrwt>
<pdfrwt beam="1">  1       -2 0.28281828E-02 0.12777930E+03</pdfrwt>
<totfact> 0.18155377E+04</totfact>
</mgrwt>
</event>
<event>
 8    1  0.8504141E-006  0.1337405E+03  0.7546771E-02  0.1233273E+00
          2   -1    0    0  501    0  0.00000000000E+00  0.00000000000E+00  0.62902084552E+03  0.62902084552E+03  0.00000000000E+00 0. -1.
         -2   -1    0    0    0  501 -0.00000000000E+00 -0.00000000000E+00 -0.22863230829E+02  0.22863230829E+02  0.00000000000E+00 0.  1.
         23    2    1    2    0    0  0.10665838500E+02 -0.46324854573E+02  0.32452558440E+03  0.35100337273E+03  0.12500704169E+03 0.  0.
         23    2    1    2    0    0 -0.10665838500E+02  0.46324854573E+02  0.28163203029E+03  0.30088070362E+03  0.94619475088E+02 0.  0.
          5    1    3    3  502    0  0.57920306741E+02 -0.47615871905E+02  0.26151042324E+03  0.27208789876E+03  0.47000000000E+01 0.  1.
         -5    1    3    3    0  502 -0.47254468241E+02  0.12910173329E+01  0.63015161167E+02  0.78915473967E+02  0.47000000000E+01 0.  1.
        -11    1    4    4    0    0 -0.50320745302E+02  0.12601994478E+02  0.11177197478E+03  0.12322322029E+03  0.00000000000E+00 0.  1.
         11    1    4    4    0    0  0.39654906802E+02  0.33722860094E+02  0.16986005551E+03  0.17765748333E+03  0.00000000000E+00 0. -1.
<mgrwt>
<rscale>  0 0.12615673E+03</rscale>
<asrwt>0</asrwt>
<pdfrwt beam="1">  1        2 0.96772425E-01 0.13374047E+03</pdfrwt>
<pdfrwt beam="2">  1       -2 0.35174206E-02 0.13374047E+03</pdfrwt>
<totfact> 0.15091587E+04</totfact>
</mgrwt>
</event>
<event>
 8    1  0.8504141E-006  0.1385758E+03  0.7546771E-02  0.1226278E+00
         -2   -1    0    0    0  501 -0.00000000000E+00  0.00000000000E+00  0.58358701481E+02  0.58358701481E+02  0.00000000000E+00 0. -1.
          2   -1    0    0  501    0  0.00000000000E+00 -0.00000000000E+00 -0.26778420629E+03  0.26778420629E+03  0.00000000000E+00 0.  1.
         23    2    1    2    0    0 -0.92747054259E+01  0.59128323660E+02 -0.99129307915E+02  0.17038152909E+03  0.12498426680E+03 0.  0.
         23    2    1    2    0    0  0.92747054259E+01 -0.59128323660E+02 -0.11029619690E+03  0.15576137868E+03  0.92272299309E+02 0.  0.
          5    1    3    3  502    0  0.37264039515E+02 -0.20149550149E+02 -0.51143956539E+02  0.66576326894E+02  0.47000000000E+01 0.  1.
         -5    1    3    3    0  502 -0.46538744941E+02  0.79277873809E+02 -0.47985351376E+02  0.10380520220E+03  0.47000000000E+01 0.  1.
        -11    1    4    4    0    0  0.48268563400E+02 -0.50838262736E+02 -0.71561639546E+02  0.10017710030E+03  0.00000000000E+00 0.  1.
         11    1    4    4    0    0 -0.38993857974E+02 -0.82900609238E+01 -0.38734557352E+02  0.55584278381E+02  0.00000000000E+00 0. -1.
<mgrwt>
<rscale>  0 0.13079686E+03</rscale>
<asrwt>0</asrwt>
<pdfrwt beam="2">  1        2 0.41197570E-01 0.13857578E+03</pdfrwt>
<pdfrwt beam="1">  1       -2 0.89782619E-02 0.13857578E+03</pdfrwt>
<totfact> 0.92438069E+03</totfact>
</mgrwt>
</event>
<event>
 7    1  0.8504141E-006  0.1525855E+03  0.7546771E-02  0.1224971E+00
         -1   -1    0    0    0  501 -0.00000000000E+00  0.00000000000E+00  0.41164687855E+03  0.41164687855E+03  0.00000000000E+00 0.  1.
          1   -1    0    0  501    0  0.00000000000E+00 -0.00000000000E+00 -0.34217365498E+02  0.34217365498E+02  0.00000000000E+00 0. -1.
         23    2    1    2    0    0  0.11174857446E+02  0.43155217228E+01  0.12786361397E+03  0.15334850117E+03  0.83804283110E+02 0.  0.
          5    1    1    2  502    0  0.51292753499E+02 -0.45665208381E+02  0.16859311003E+03  0.18210432331E+03  0.47000000000E+01 0. -1.
         -5    1    1    2    0  502 -0.62467610945E+02  0.41349686659E+02  0.80972789054E+02  0.11041141957E+03  0.47000000000E+01 0.  1.
        -11    1    3    3    0    0 -0.29453523233E+02  0.41238907851E+01  0.99366999822E+02  0.10372230792E+03  0.00000000000E+00 0.  1.
         11    1    3    3    0    0  0.40628380679E+02  0.19163093767E+00  0.28496614144E+02  0.49626193252E+02  0.00000000000E+00 0. -1.
<mgrwt>
<rscale>  0 0.13168899E+03</rscale>
<asrwt>0</asrwt>
<pdfrwt beam="2">  1        1 0.52642104E-02 0.15258546E+03</pdfrwt>
<pdfrwt beam="1">  1       -1 0.63330285E-01 0.15258546E+03</pdfrwt>
<totfact> 0.39146570E+03</totfact>
</mgrwt>
</event>
<event>
 8    1  0.8504141E-006  0.1320553E+03  0.7546771E-02  0.1238535E+00
         -3   -1    0    0    0  501 -0.00000000000E+00  0.00000000000E+00  0.85444517730E+02  0.85444517730E+02  0.00000000000E+00 0.  1.
          3   -1    0    0  501    0  0.00000000000E+00 -0.00000000000E+00 -0.20152685549E+03  0.20152685549E+03  0.00000000000E+00 0. -1.
         23    2    1    2    0    0  0.19821035772E+02 -0.37693998180E+02  0.32105240058E+01  0.13209431568E+03  0.12499955925E+03 0.  0.
         23    2    1    2    0    0 -0.19821035772E+02  0.37693998180E+02 -0.11929286177E+03  0.15487705754E+03  0.89120172382E+02 0.  0.
          5    1    3    3  502    0 -0.42511425272E+02  0.18943577299E+02  0.86349683183E+01  0.47568193968E+02  0.47000000000E+01 0.  1.
         -5    1    3    3    0  502  0.62332461044E+02 -0.56637575478E+02 -0.54244443126E+01  0.84526121714E+02  0.47000000000E+01 0.  1.
        -11    1    4    4    0    0 -0.76289968668E+01 -0.10134240894E+02  0.10212378367E+02  0.16284873460E+02  0.00000000000E+00 0.  1.
         11    1    4    4    0    0 -0.12192038905E+02  0.47828239073E+02 -0.12950524014E+03  0.13859218408E+03  0.00000000000E+00 0. -1.
<mgrwt>
<rscale>  0 0.12280795E+03</rscale>
<asrwt>0</asrwt>
<pdfrwt beam="2">  1        3 0.31004131E-01 0.13205529E+03</pdfrwt>
<pdfrwt beam="1">  1       -3 0.13145311E-01 0.13205529E+03</pdfrwt>
<totfact> 0.10782561E+03</totfact>
</mgrwt>
</event>
<event>
 7    1  0.8504141E-006  0.4635194E+03  0.7546771E-02  0.1023765E+00
          2   -1    0    0  501    0  0.00000000000E+00  0.00000000000E+00  0.53566304482E+03  0.53566304482E+03  0.00000000000E+00 0. -1.
         -2   -1    0    0    0  501 -0.00000000000E+00 -0.00000000000E+00 -0.10027304285E+03  0.10027304285E+03  0.00000000000E+00 0.  1.
         23    2    1    2    0    0 -0.49990115815E+02  0.67756606638E+01  0.15284968150E+03  0.18489828959E+03  0.90991379281E+02 0.  0.
          5    1    1    2  502    0 -0.68434857387E+02  0.10007831302E+03  0.26380149769E+03  0.29036583584E+03  0.47000000000E+01 0. -1.
         -5    1    1    2    0  502  0.11842497320E+03 -0.10685397368E+03  0.18738822789E+02  0.16067196224E+03  0.47000000000E+01 0.  1.
        -11    1    3    3    0    0 -0.56117158167E+02 -0.23719083061E+02  0.13711473855E+03  0.15004060074E+03  0.00000000000E+00 0. -1.
         11    1    3    3    0    0  0.61270423521E+01  0.30494743725E+02  0.15734942951E+02  0.34857688858E+02  0.00000000000E+00 0.  1.
<mgrwt>
<rscale>  0 0.46351942E+03</rscale>
<asrwt>0</asrwt>
<pdfrwt beam="1">  1        2 0.82409698E-01 0.46351942E+03</pdfrwt>
<pdfrwt beam="2">  1       -2 0.15426622E-01 0.46351942E+03</pdfrwt>
<totfact> 0.18906372E+03</totfact>
</mgrwt>
</event>
<event>
 8    1  0.8504141E-006  0.1283326E+03  0.7546771E-02  0.1248308E+00
         -2   -1    0    0    0  501 -0.00000000000E+00  0.00000000000E+00  0.19845325976E+02  0.19845325976E+02  0.00000000000E+00 0.  1.
          2   -1    0    0  501    0  0.00000000000E+00 -0.00000000000E+00 -0.61527813692E+03  0.61527813692E+03  0.00000000000E+00 0. -1.
         23    2    1    2    0    0  0.27001446420E+01 -0.28925680789E+02 -0.28905853455E+03  0.31626587224E+03  0.12500111904E+03 0.  0.
         23    2    1    2    0    0 -0.27001446420E+01  0.28925680789E+02 -0.30637427639E+03  0.31885759065E+03  0.83432488212E+02 0.  0.
          5    1    3    3  502    0  0.63161381507E+02 -0.21182296537E+02 -0.16352411113E+03  0.17663599498E+03  0.47000000000E+01 0. -1.
         -5    1    3    3    0  502 -0.60461236865E+02 -0.77433842518E+01 -0.12553442342E+03  0.13962987727E+03  0.47000000000E+01 0. -1.
        -11    1    4    4    0    0  0.34872094936E+02  0.10466938354E+01 -0.19434116246E+03  0.19744783108E+03  0.00000000000E+00 0.  1.
         11    1    4    4    0    0 -0.37572239578E+02  0.27878986953E+02 -0.11203311394E+03  0.12140975957E+03  0.00000000000E+00 0. -1.
<mgrwt>
<rscale>  0 0.11689588E+03</rscale>
<asrwt>0</asrwt>
<pdfrwt beam="2">  1        2 0.94658164E-01 0.12833264E+03</pdfrwt>
<pdfrwt beam="1">  1       -2 0.30531274E-02 0.12833264E+03</pdfrwt>
<totfact> 0.19004526E+04</totfact>
</mgrwt>
</event>
<event>
 8    1  0.8504141E-006  0.2813908E+03  0.7546771E-02  0.1096784E+00
          2   -1    0    0  501    0  0.00000000000E+00  0.00000000000E+00  0.34106352212E+03  0.34106352212E+03  0.00000000000E+00 0. -1.
         -2   -1    0    0    0  501 -0.00000000000E+00 -0.00000000000E+00 -0.22232990768E+03  0.22232990768E+03  0.00000000000E+00 0.  1.
         23    2    1    2    0    0  0.13705365556E+03  0.21159460023E+03  0.79853074601E+02  0.29250174409E+03  0.12499910970E+03 0.  0.
         23    2    1    2    0    0 -0.13705365556E+03 -0.21159460023E+03  0.38880539839E+02  0.27089168571E+03  0.91184591124E+02 0.  0.
          5    1    3    3  502    0  0.11544741435E+03  0.16710862857E+03  0.11329300487E+03  0.23261726972E+03  0.47000000000E+01 0. -1.
         -5    1    3    3    0  502  0.21606241210E+02  0.44485971659E+02 -0.33439930268E+02  0.59884474365E+02  0.47000000000E+01 0. -1.
        -11    1    4    4    0    0 -0.66686737216E+02 -0.10245404731E+03 -0.27128736943E+02  0.12521949169E+03  0.00000000000E+00 0.  1.
         11    1    4    4    0    0 -0.70366918341E+02 -0.10914055292E+03  0.66009276782E+02  0.14567219402E+03  0.00000000000E+00 0. -1.
<mgrwt>
<rscale>  0 0.27800415E+03</rscale>
<asrwt>0</asrwt>
<pdfrwt beam="1">  1        2 0.52471311E-01 0.28139075E+03</pdfrwt>
<pdfrwt beam="2">  1       -2 0.34204601E-01 0.28139075E+03</pdfrwt>
<totfact> 0.76465203E+02</totfact>
</mgrwt>
</event>
<event>
 8    1  0.8504141E-006  0.1718883E+03  0.7546771E-02  0.1182121E+00
         -3   -1    0    0    0  501 -0.00000000000E+00  0.00000000000E+00  0.15036722439E+03  0.15036722439E+03  0.00000000000E+00 0.  1.
          3   -1    0    0  501    0  0.00000000000E+00 -0.00000000000E+00 -0.18775501871E+03  0.18775501871E+03  0.00000000000E+00 0. -1.
         23    2    1    2    0    0  0.76133473839E+02  0.90137158094E+02  0.29559002753E+02  0.17441136548E+03  0.12499830662E+03 0.  0.
         23    2    1    2    0    0 -0.76133473839E+02 -0.90137158094E+02 -0.66946797078E+02  0.16371087762E+03  0.91642592189E+02 0.  0.
          5    1    3    3  502    0 -0.18049191263E+01  0.29202159531E+02 -0.42583481851E+02  0.51879348308E+02  0.47000000000E+01 0. -1.
         -5    1    3    3    0  502  0.77938392965E+02  0.60934998563E+02  0.72142484604E+02  0.12253201717E+03  0.47000000000E+01 0. -1.
        -11    1    4    4    0    0 -0.81411613812E+02 -0.50668408794E+02 -0.13163026140E+02  0.96790514878E+02  0.00000000000E+00 0.  1.
         11    1    4    4    0    0  0.52781399725E+01 -0.39468749300E+02 -0.53783770938E+02  0.66920362739E+02  0.00000000000E+00 0. -1.
<mgrwt>
<rscale>  0 0.16596634E+03</rscale>
<asrwt>0</asrwt>
<pdfrwt beam="2">  1        3 0.28885387E-01 0.17188831E+03</pdfrwt>
<pdfrwt beam="1">  1       -3 0.23133419E-01 0.17188831E+03</pdfrwt>
<totfact> 0.47728830E+02</totfact>
</mgrwt>
</event>
<event>
 8    1  0.8504141E-006  0.1328148E+03  0.7546771E-02  0.1236288E+00
          1   -1    0    0  501    0  0.00000000000E+00  0.00000000000E+00  0.13128898802E+03  0.13128898802E+03  0.00000000000E+00 0. -1.
         -1   -1    0    0    0  501 -0.00000000000E+00 -0.00000000000E+00 -0.14663598831E+03  0.14663598831E+03  0.00000000000E+00 0.  1.
         23    2    1    2    0    0  0.44091215541E+02  0.84998732111E+01 -0.82268276091E+02  0.15623010926E+03  0.12499397848E+03 0.  0.
         23    2    1    2    0    0 -0.44091215541E+02 -0.84998732111E+01  0.66921275797E+02  0.12169486706E+03  0.91186075599E+02 0.  0.
          5    1    3    3  502    0  0.62931569369E+02 -0.18485346806E+01  0.77078478236E+01  0.63602676215E+02  0.47000000000E+01 0.  1.
         -5    1    3    3    0  502 -0.18840353827E+02  0.10348407892E+02 -0.89976123914E+02  0.92627433047E+02  0.47000000000E+01 0.  1.
        -11    1    4    4    0    0 -0.36020099159E+02  0.66594132905E+01 -0.13817347202E+02  0.39149896711E+02  0.00000000000E+00 0.  1.
         11    1    4    4    0    0 -0.80711163826E+01 -0.15159286502E+02  0.80738622999E+02  0.82544970354E+02  0.00000000000E+00 0. -1.
<mgrwt>
<rscale>  0 0.12422348E+03</rscale>
<asrwt>0</asrwt>
<pdfrwt beam="1">  1        1 0.20198306E-01 0.13281483E+03</pdfrwt>
<pdfrwt beam="2">  1       -1 0.22559383E-01 0.13281483E+03</pdfrwt>
<totfact> 0.39943391E+03</totfact>
</mgrwt>
</event>
<event>
 8    1  0.8504141E-006  0.1370188E+03  0.7546771E-02  0.1229387E+00
          2   -1    0    0  501    0  0.00000000000E+00  0.00000000000E+00  0.18547866495E+03  0.18547866495E+03  0.00000000000E+00 0. -1.
         -2   -1    0    0    0  501 -0.00000000000E+00 -0.00000000000E+00 -0.80243930827E+02  0.80243930827E+02  0.00000000000E+00 0.  1.
         23    2    1    2    0    0  0.54826380165E+02 -0.11951235957E+02  0.52605884621E+02  0.14677037561E+03  0.12500160022E+03 0.  0.
         23    2    1    2    0    0 -0.54826380165E+02  0.11951235957E+02  0.52628849504E+02  0.11895222016E+03  0.90725249402E+02 0.  0.
          5    1    3    3  502    0 -0.23906965240E+01  0.70187190418E+01 -0.37358460433E+02  0.38376065624E+02  0.47000000000E+01 0. -1.
         -5    1    3    3    0  502  0.57217076689E+02 -0.18969954999E+02  0.89964345053E+02  0.10839430999E+03  0.47000000000E+01 0. -1.
        -11    1    4    4    0    0 -0.16585496504E+02  0.22764586747E+02 -0.21101801056E+02  0.35193623170E+02  0.00000000000E+00 0.  1.
         11    1    4    4    0    0 -0.38240883661E+02 -0.10813350790E+02  0.73730650560E+02  0.83758596995E+02  0.00000000000E+00 0. -1.
<mgrwt>
<rscale>  0 0.12870702E+03</rscale>
<asrwt>0</asrwt>
<pdfrwt beam="1">  1        2 0.28535179E-01 0.13701885E+03</pdfrwt>
<pdfrwt beam="2">  1       -2 0.12345220E-01 0.13701885E+03</pdfrwt>
<totfact> 0.82861287E+03</totfact>
</mgrwt>
</event>
<event>
 8    1  0.8504141E-006  0.1379632E+03  0.7546771E-02  0.1228145E+00
          2   -1    0    0  501    0  0.00000000000E+00  0.00000000000E+00  0.22085327931E+02  0.22085327931E+02  0.00000000000E+00 0.  1.
         -2   -1    0    0    0  501 -0.00000000000E+00 -0.00000000000E+00 -0.71573793385E+03  0.71573793385E+03  0.00000000000E+00 0. -1.
         23    2    1    2    0    0  0.53948693304E+02  0.22323541163E+02 -0.46942965306E+03  0.48928320165E+03  0.12500020096E+03 0.  0.
         23    2    1    2    0    0 -0.53948693304E+02 -0.22323541163E+02 -0.22422295286E+03  0.24854006013E+03  0.89930122344E+02 0.  0.
          5    1    3    3  502    0  0.52064099846E+02  0.61511352894E+02 -0.18133311025E+03  0.19848955615E+03  0.47000000000E+01 0.  1.
         -5    1    3    3    0  502  0.18845934577E+01 -0.39187811731E+02 -0.28809654281E+03  0.29079364550E+03  0.47000000000E+01 0.  1.
        -11    1    4    4    0    0  0.25386397798E+02 -0.30006322760E+01 -0.52669717415E+02  0.58545470532E+02  0.00000000000E+00 0. -1.
         11    1    4    4    0    0 -0.79335091102E+02 -0.19322908887E+02 -0.17155323544E+03  0.18999458960E+03  0.00000000000E+00 0.  1.
<mgrwt>
<rscale>  0 0.12953643E+03</rscale>
<asrwt>0</asrwt>
<pdfrwt beam="1">  1        2 0.33977426E-02 0.13796323E+03</pdfrwt>
<pdfrwt beam="2">  1       -2 0.11011353E+00 0.13796323E+03</pdfrwt>
<totfact> 0.17371343E+03</totfact>
</mgrwt>
</event>
<event>
 8    1  0.8504141E-006  0.1445512E+03  0.7546771E-02  0.1218404E+00
         -4   -1    0    0    0  501 -0.00000000000E+00  0.00000000000E+00  0.22516723357E+03  0.22516723357E+03  0.00000000000E+00 0.  1.
          4   -1    0    0  501    0  0.00000000000E+00 -0.00000000000E+00 -0.74589411959E+02  0.74589411959E+02  0.00000000000E+00 0. -1.
         23    2    1    2    0    0 -0.16595355971E+02  0.70673485854E+02  0.75874551580E+02  0.16325438837E+03  0.12499960120E+03 0.  0.
         23    2    1    2    0    0  0.16595355971E+02 -0.70673485854E+02  0.74703270032E+02  0.13650225716E+03  0.88216439595E+02 0.  0.
          5    1    3    3  502    0 -0.38745069982E+02  0.28288889671E+02 -0.22933800530E+02  0.53380623203E+02  0.47000000000E+01 0.  1.
         -5    1    3    3    0  502  0.22149714011E+02  0.42384596183E+02  0.98808352110E+02  0.10987376516E+03  0.47000000000E+01 0.  1.
        -11    1    4    4    0    0  0.48191794487E+02 -0.66576552553E+02  0.57378766657E+02  0.10023576841E+03  0.00000000000E+00 0. -1.
         11    1    4    4    0    0 -0.31596438516E+02 -0.40969333002E+01  0.17324503376E+02  0.36266488754E+02  0.00000000000E+00 0.  1.
<mgrwt>
<rscale>  0 0.13629411E+03</rscale>
<asrwt>0</asrwt>
<pdfrwt beam="2">  1        4 0.11475294E-01 0.14455119E+03</pdfrwt>
<pdfrwt beam="1">  1       -4 0.34641113E-01 0.14455119E+03</pdfrwt>
<totfact> 0.81041939E+02</totfact>
</mgrwt>
</event>
<event>
 8    1  0.8504141E-006  0.1684027E+03  0.7546771E-02  0.1186181E+00
         -1   -1    0    0    0  501 -0.00000000000E+00  0.00000000000E+00  0.22507310815E+03  0.22507310815E+03  0.00000000000E+00 0.  1.
          1   -1    0    0  501    0  0.00000000000E+00 -0.00000000000E+00 -0.11075138569E+03  0.11075138569E+03  0.00000000000E+00 0. -1.
         23    2    1    2    0    0 -0.96425800282E+02  0.58646887649E+02  0.81346690262E+02  0.18702070643E+03  0.12498827235E+03 0.  0.
         23    2    1    2    0    0  0.96425800282E+02 -0.58646887649E+02  0.32975032191E+02  0.14880378741E+03  0.91202094328E+02 0.  0.
          5    1    3    3  502    0 -0.87762571948E+01  0.77446477603E+02  0.45413446801E+02  0.90329678034E+02  0.47000000000E+01 0.  1.
         -5    1    3    3    0  502 -0.87649543088E+02 -0.18799589954E+02  0.35933243461E+02  0.96691028392E+02  0.47000000000E+01 0.  1.
        -11    1    4    4    0    0  0.27083316468E+02 -0.49326903506E+02  0.51655654877E+02  0.76386884484E+02  0.00000000000E+00 0.  1.
         11    1    4    4    0    0  0.69342483815E+02 -0.93199841423E+01 -0.18680622686E+02  0.72416902930E+02  0.00000000000E+00 0. -1.
<mgrwt>
<rscale>  0 0.16224888E+03</rscale>
<asrwt>0</asrwt>
<pdfrwt beam="2">  1        1 0.17038675E-01 0.16840267E+03</pdfrwt>
<pdfrwt beam="1">  1       -1 0.34626632E-01 0.16840267E+03</pdfrwt>
<totfact> 0.24564092E+03</totfact>
</mgrwt>
</event>
<event>
 8    1  0.8504141E-006  0.1534058E+03  0.7546771E-02  0.1205068E+00
          1   -1    0    0  501    0  0.00000000000E+00  0.00000000000E+00  0.34328630582E+02  0.34328630582E+02  0.00000000000E+00 0.  1.
         -1   -1    0    0    0  501 -0.00000000000E+00 -0.00000000000E+00 -0.69750687403E+03  0.69750687403E+03  0.00000000000E+00 0. -1.
         23    2    1    2    0    0  0.18154031712E+02  0.87054496463E+02 -0.51160345060E+03  0.53410807722E+03  0.12500117304E+03 0.  0.
         23    2    1    2    0    0 -0.18154031712E+02 -0.87054496463E+02 -0.15157479285E+03  0.19772742739E+03  0.90626505478E+02 0.  0.
          5    1    3    3  502    0 -0.27858645229E+02  0.99098299036E+02 -0.30103165438E+03  0.31818033239E+03  0.47000000000E+01 0. -1.
         -5    1    3    3    0  502  0.46012676941E+02 -0.12043802574E+02 -0.21057179622E+03  0.21592774482E+03  0.47000000000E+01 0. -1.
        -11    1    4    4    0    0 -0.22561688963E+01 -0.97449880892E+02 -0.87815461478E+02  0.13119879900E+03  0.00000000000E+00 0.  1.
         11    1    4    4    0    0 -0.15897862816E+02  0.10395384429E+02 -0.63759331368E+02  0.66528628394E+02  0.00000000000E+00 0. -1.
<mgrwt>
<rscale>  0 0.14632082E+03</rscale>
<asrwt>0</asrwt>
<pdfrwt beam="1">  1        1 0.52813273E-02 0.15340583E+03</pdfrwt>
<pdfrwt beam="2">  1       -1 0.10730876E+00 0.15340583E+03</pdfrwt>
<totfact> 0.13022211E+03</totfact>
</mgrwt>
</event>
<event>
 8    1  0.8504141E-006  0.3139517E+03  0.7546771E-02  0.1079883E+00
         -1   -1    0    0    0  501 -0.00000000000E+00  0.00000000000E+00  0.17699681317E+03  0.17699681317E+03  0.00000000000E+00 0. -1.
          1   -1    0    0  501    0  0.00000000000E+00 -0.00000000000E+00 -0.53643191062E+03  0.53643191062E+03  0.00000000000E+00 0.  1.
         23    2    1    2    0    0 -0.14436707129E+03 -0.24919496857E+03 -0.19064594540E+03  0.36730308136E+03  0.12500277375E+03 0.  0.
         23    2    1    2    0    0  0.14436707129E+03  0.24919496857E+03 -0.16878915205E+03  0.34612564242E+03  0.91505184872E+02 0.  0.
          5    1    3    3  502    0 -0.11700533602E+03 -0.22060495681E+03 -0.20684050281E+03  0.32428672379E+03  0.47000000000E+01 0.  1.
         -5    1    3    3    0  502 -0.27361735264E+02 -0.28590011762E+02  0.16194557402E+02  0.43016357571E+02  0.47000000000E+01 0.  1.
        -11    1    4    4    0    0  0.15471850068E+03  0.22895400527E+03 -0.14100597239E+03  0.31022642575E+03  0.00000000000E+00 0.  1.
         11    1    4    4    0    0 -0.10351429390E+02  0.20240963299E+02 -0.27783179666E+02  0.35899216677E+02  0.00000000000E+00 0. -1.
<mgrwt>
<rscale>  0 0.31096666E+03</rscale>
<asrwt>0</asrwt>
<pdfrwt beam="2">  1        1 0.82527986E-01 0.31395171E+03</pdfrwt>
<pdfrwt beam="1">  1       -1 0.27230279E-01 0.31395171E+03</pdfrwt>
<totfact> 0.49659237E+02</totfact>
</mgrwt>
</event>
<event>
 7    1  0.8504141E-006  0.1380605E+03  0.7546771E-02  0.1232017E+00
         -2   -1    0    0    0  501 -0.00000000000E+00  0.00000000000E+00  0.93752534161E+03  0.93752534161E+03  0.00000000000E+00 0.  1.
          2   -1    0    0  501    0  0.00000000000E+00 -0.00000000000E+00 -0.16208370987E+02  0.16208370987E+02  0.00000000000E+00 0. -1.
         23    2    1    2    0    0 -0.22289996276E+02  0.26546427725E+02  0.25933140345E+03  0.27750475870E+03  0.92490851045E+02 0.  0.
          5    1    1    2  502    0  0.37063596018E+02  0.38007605374E+01  0.46362654038E+02  0.59663570291E+02  0.47000000000E+01 0. -1.
         -5    1    1    2    0  502 -0.14773599742E+02 -0.30347188263E+02  0.61562291313E+03  0.61656538360E+03  0.47000000000E+01 0.  1.
        -11    1    3    3    0    0 -0.46447256777E+02 -0.15588851501E+02  0.10855990769E+03  0.11910337321E+03  0.00000000000E+00 0.  1.
         11    1    3    3    0    0  0.24157260501E+02  0.42135279226E+02  0.15077149577E+03  0.15840138549E+03  0.00000000000E+00 0. -1.
<mgrwt>
<rscale>  0 0.12697310E+03</rscale>
<asrwt>0</asrwt>
<pdfrwt beam="2">  1        2 0.24935963E-02 0.13806052E+03</pdfrwt>
<pdfrwt beam="1">  1       -2 0.14423463E+00 0.13806052E+03</pdfrwt>
<totfact> 0.13655032E+03</totfact>
</mgrwt>
</event>
<event>
 8    1  0.8504141E-006  0.1269517E+03  0.7546771E-02  0.1247876E+00
         -2   -1    0    0    0  501 -0.00000000000E+00  0.00000000000E+00  0.32216052608E+03  0.32216052608E+03  0.00000000000E+00 0.  1.
          2   -1    0    0  501    0  0.00000000000E+00 -0.00000000000E+00 -0.80582861309E+02  0.80582861309E+02  0.00000000000E+00 0. -1.
         23    2    1    2    0    0 -0.21558139584E+02  0.51540832334E+01  0.27652989502E+03  0.30427870086E+03  0.12500170800E+03 0.  0.
         23    2    1    2    0    0  0.21558139584E+02 -0.51540832334E+01 -0.34952230252E+02  0.98464686525E+02  0.89343819801E+02 0.  0.
          5    1    3    3  502    0 -0.72053585838E+00  0.61798737868E+01  0.28207743884E+03  0.28218519010E+03  0.47000000000E+01 0. -1.
         -5    1    3    3    0  502 -0.20837603725E+02 -0.10257905534E+01 -0.55475438173E+01  0.22093510759E+02  0.47000000000E+01 0. -1.
        -11    1    4    4    0    0 -0.18436610140E+02 -0.29523610811E+02  0.70970032045E+01  0.35523508318E+02  0.00000000000E+00 0.  1.
         11    1    4    4    0    0  0.39994749723E+02  0.24369527577E+02 -0.42049233456E+02  0.62941178207E+02  0.00000000000E+00 0. -1.
<mgrwt>
<rscale>  0 0.11714877E+03</rscale>
<asrwt>0</asrwt>
<pdfrwt beam="2">  1        2 0.12397363E-01 0.12695174E+03</pdfrwt>
<pdfrwt beam="1">  1       -2 0.49563157E-01 0.12695174E+03</pdfrwt>
<totfact> 0.18535218E+03</totfact>
</mgrwt>
</event>
<event>
 7    1  0.8504141E-006  0.3381032E+03  0.7546771E-02  0.1067607E+00
         -2   -1    0    0    0  501 -0.00000000000E+00  0.00000000000E+00  0.95127982756E+02  0.95127982756E+02  0.00000000000E+00 0.  1.
          2   -1    0    0  501    0  0.00000000000E+00 -0.00000000000E+00 -0.30042091941E+03  0.30042091941E+03  0.00000000000E+00 0. -1.
         23    2    1    2    0    0 -0.44036307283E+02  0.81481291810E+02 -0.94898596728E+02  0.18222622315E+03  0.12498902139E+03 0.  0.
          5    1    3    3  502    0  0.25558606101E+02  0.32279294276E+02 -0.87167409688E+02  0.96516540016E+02  0.47000000000E+01 0. -1.
         -5    1    3    3    0  502 -0.69594913384E+02  0.49201997534E+02 -0.77311870392E+01  0.85709683136E+02  0.47000000000E+01 0. -1.
        -11    1    1    2    0    0 -0.38724781186E+02 -0.83154102209E+02 -0.26535190086E+02  0.95489945570E+02  0.00000000000E+00 0. -1.
         11    1    1    2    0    0  0.82761088469E+02  0.16728103987E+01 -0.83859149843E+02  0.11783273345E+03  0.00000000000E+00 0.  1.
<mgrwt>
<rscale>  0 0.33810316E+03</rscale>
<asrwt>0</asrwt>
<pdfrwt beam="2">  1        2 0.46218603E-01 0.33810316E+03</pdfrwt>
<pdfrwt beam="1">  1       -2 0.14635074E-01 0.33810316E+03</pdfrwt>
<totfact> 0.39028653E+03</totfact>
</mgrwt>
</event>
<event>
 8    1  0.2495628E-005  0.2157001E+03  0.7546771E-02  0.1140590E+00
         -1   -1    0    0    0  501 -0.00000000000E+00  0.00000000000E+00  0.12638504093E+03  0.12638504093E+03  0.00000000000E+00 0.  1.
          1   -1    0    0  501    0  0.00000000000E+00 -0.00000000000E+00 -0.34946476620E+03  0.34946476620E+03  0.00000000000E+00 0. -1.
         23    2    1    2    0    0  0.77279086016E+02  0.15789117901E+03 -0.75299632443E+02  0.22846569601E+03  0.12499943226E+03 0.  0.
         23    2    1    2    0    0 -0.77279086016E+02 -0.15789117901E+03 -0.14778009282E+03  0.24738411111E+03  0.91968804774E+02 0.  0.
          5    1    3    3  502    0  0.67373372067E+02  0.14073899158E+02 -0.40846092880E+02  0.80173182578E+02  0.47000000000E+01 0. -1.
         -5    1    3    3    0  502  0.99057139488E+01  0.14381727985E+03 -0.34453539563E+02  0.14829251344E+03  0.47000000000E+01 0. -1.
        -11    1    4    4    0    0 -0.57179877082E+02 -0.52515793095E+02 -0.19285880804E+02  0.79996200321E+02  0.00000000000E+00 0.  1.
         11    1    4    4    0    0 -0.20099208934E+02 -0.10537538591E+03 -0.12849421202E+03  0.16738791079E+03  0.00000000000E+00 0. -1.
<mgrwt>
<rscale>  0 0.21123680E+03</rscale>
<asrwt>0</asrwt>
<pdfrwt beam="2">  1        1 0.53763809E-01 0.21570011E+03</pdfrwt>
<pdfrwt beam="1">  1       -1 0.19443853E-01 0.21570011E+03</pdfrwt>
<totfact> 0.15157471E+03</totfact>
</mgrwt>
</event>
<event>
 8    1  0.8504141E-006  0.1749110E+03  0.7546771E-02  0.1177757E+00
         -2   -1    0    0    0  501 -0.00000000000E+00  0.00000000000E+00  0.84528474204E+03  0.84528474204E+03  0.00000000000E+00 0.  1.
          2   -1    0    0  501    0  0.00000000000E+00 -0.00000000000E+00 -0.32554462816E+02  0.32554462816E+02  0.00000000000E+00 0. -1.
         23    2    1    2    0    0  0.12177015771E+03  0.11888354393E+02  0.45204412770E+03  0.48470377473E+03  0.12499820626E+03 0.  0.
         23    2    1    2    0    0 -0.12177015771E+03 -0.11888354393E+02  0.36068615152E+03  0.39313543013E+03  0.97425162267E+02 0.  0.
          5    1    3    3  502    0 -0.23895561559E+02 -0.43029422262E+01  0.10648047710E+03  0.10931466131E+03  0.47000000000E+01 0.  1.
         -5    1    3    3    0  502  0.14566571927E+03  0.16191296619E+02  0.34556365060E+03  0.37538911342E+03  0.47000000000E+01 0.  1.
        -11    1    4    4    0    0  0.50386909482E+01 -0.24175672337E+02  0.99700181564E+02  0.10271308458E+03  0.00000000000E+00 0. -1.
         11    1    4    4    0    0 -0.12680884866E+03  0.12287317944E+02  0.26098596996E+03  0.29042234555E+03  0.00000000000E+00 0.  1.
<mgrwt>
<rscale>  0 0.17008736E+03</rscale>
<asrwt>0</asrwt>
<pdfrwt beam="2">  1        2 0.50083795E-02 0.17491099E+03</pdfrwt>
<pdfrwt beam="1">  1       -2 0.13004379E+00 0.17491099E+03</pdfrwt>
<totfact> 0.70393096E+02</totfact>
</mgrwt>
</event>
<event>
 8    1  0.8504141E-006  0.1602122E+03  0.7546771E-02  0.1195444E+00
         -1   -1    0    0    0  501 -0.00000000000E+00  0.00000000000E+00  0.65872527337E+02  0.65872527337E+02  0.00000000000E+00 0. -1.
          1   -1    0    0  501    0  0.00000000000E+00 -0.00000000000E+00 -0.33895219244E+03  0.33895219244E+03  0.00000000000E+00 0.  1.
         23    2    1    2    0    0  0.64973488617E+02 -0.76297219014E+02 -0.12834214374E+03  0.20527943684E+03  0.12500048591E+03 0.  0.
         23    2    1    2    0    0 -0.64973488617E+02  0.76297219014E+02 -0.14473752136E+03  0.19954528293E+03  0.93949720588E+02 0.  0.
          5    1    3    3  502    0 -0.24620098399E+01  0.18443794092E+02  0.12247344670E+02  0.22766696827E+02  0.47000000000E+01 0. -1.
         -5    1    3    3    0  502  0.67435498456E+02 -0.94741013106E+02 -0.14058948841E+03  0.18251274001E+03  0.47000000000E+01 0. -1.
        -11    1    4    4    0    0 -0.61185201044E+02  0.18019222831E+02 -0.12044916726E+03  0.13629498565E+03  0.00000000000E+00 0.  1.
         11    1    4    4    0    0 -0.37882875727E+01  0.58277996183E+02 -0.24288354097E+02  0.63250297284E+02  0.00000000000E+00 0. -1.
<mgrwt>
<rscale>  0 0.15416696E+03</rscale>
<asrwt>0</asrwt>
<pdfrwt beam="2">  1        1 0.52146490E-01 0.16021218E+03</pdfrwt>
<pdfrwt beam="1">  1       -1 0.10134235E-01 0.16021218E+03</pdfrwt>
<totfact> 0.43473464E+03</totfact>
</mgrwt>
</event>
<event>
 8    1  0.8504141E-006  0.1615943E+03  0.7546771E-02  0.1194326E+00
          3   -1    0    0  501    0  0.00000000000E+00  0.00000000000E+00  0.81242561202E+03  0.81242561202E+03  0.00000000000E+00 0. -1.
         -3   -1    0    0    0  501 -0.00000000000E+00 -0.00000000000E+00 -0.33986197525E+02  0.33986197525E+02  0.00000000000E+00 0.  1.
         23    2    1    2    0    0 -0.83261976035E+02  0.59638117187E+02  0.23012197888E+03  0.28119183920E+03  0.12499385423E+03 0.  0.
         23    2    1    2    0    0  0.83261976035E+02 -0.59638117187E+02  0.54831743561E+03  0.56521997034E+03  0.91281668493E+02 0.  0.
          5    1    3    3  502    0 -0.64745424295E+02  0.97231467771E+02  0.14554380327E+03  0.18668427080E+03  0.47000000000E+01 0. -1.
         -5    1    3    3    0  502 -0.18516551741E+02 -0.37593350584E+02  0.84578175613E+02  0.94507568409E+02  0.47000000000E+01 0. -1.
        -11    1    4    4    0    0  0.61168836656E+02  0.41279782635E+01  0.16530510824E+03  0.17630781489E+03  0.00000000000E+00 0.  1.
         11    1    4    4    0    0  0.22093139379E+02 -0.63766095451E+02  0.38301232738E+03  0.38891215545E+03  0.00000000000E+00 0. -1.
<mgrwt>
<rscale>  0 0.15511424E+03</rscale>
<asrwt>0</asrwt>
<pdfrwt beam="1">  1        3 0.12498854E+00 0.16159432E+03</pdfrwt>
<pdfrwt beam="2">  1       -3 0.52286464E-02 0.16159432E+03</pdfrwt>
<totfact> 0.27230654E+02</totfact>
</mgrwt>
</event>
<event>
 8    1  0.8504141E-006  0.1275245E+03  0.7546771E-02  0.1244142E+00
         -1   -1    0    0    0  501 -0.00000000000E+00  0.00000000000E+00  0.41953943999E+02  0.41953943999E+02  0.00000000000E+00 0.  1.
          1   -1    0    0  501    0  0.00000000000E+00 -0.00000000000E+00 -0.30280865525E+03  0.30280865525E+03  0.00000000000E+00 0. -1.
         23    2    1    2    0    0  0.24352775796E+02  0.65575673011E+01 -0.14784790091E+03  0.19524728384E+03  0.12500576254E+03 0.  0.
         23    2    1    2    0    0 -0.24352775796E+02 -0.65575673011E+01 -0.11300681034E+03  0.14951531540E+03  0.94595089614E+02 0.  0.
          5    1    3    3  502    0 -0.34395909943E+02 -0.25751520668E+02 -0.13936323445E+02  0.45415091640E+02  0.47000000000E+01 0. -1.
         -5    1    3    3    0  502  0.58748685738E+02  0.32309087969E+02 -0.13391157747E+03  0.14983219220E+03  0.47000000000E+01 0. -1.
        -11    1    4    4    0    0 -0.44266126925E+02 -0.27114452335E+02 -0.10885031871E+03  0.12059467402E+03  0.00000000000E+00 0. -1.
         11    1    4    4    0    0  0.19913351129E+02  0.20556885034E+02 -0.41564916312E+01  0.28920641386E+02  0.00000000000E+00 0.  1.
<mgrwt>
<rscale>  0 0.11936864E+03</rscale>
<asrwt>0</asrwt>
<pdfrwt beam="2">  1        1 0.46585946E-01 0.12752451E+03</pdfrwt>
<pdfrwt beam="1">  1       -1 0.64544530E-02 0.12752451E+03</pdfrwt>
<totfact> 0.97520358E+03</totfact>
</mgrwt>
</event>
<event>
 8    1  0.8504141E-006  0.1443695E+03  0.7546771E-02  0.1217864E+00
          1   -1    0    0  501    0  0.00000000000E+00  0.00000000000E+00  0.27649705925E+02  0.27649705925E+02  0.00000000000E+00 0. -1.
         -1   -1    0    0    0  501 -0.00000000000E+00 -0.00000000000E+00 -0.61319008752E+03  0.61319008752E+03  0.00000000000E+00 0.  1.
         23    2    1    2    0    0 -0.68977330040E+02  0.31387276944E+01 -0.33141857863E+03  0.36149804196E+03  0.12678657820E+03 0.  0.
         23    2    1    2    0    0  0.68977330040E+02 -0.31387276944E+01 -0.25412180297E+03  0.27934175148E+03  0.93199783838E+02 0.  0.
          5    1    3    3  502    0 -0.86482808499E+02  0.38045189788E+01 -0.11347983862E+03  0.14280586229E+03  0.47000000000E+01 0. -1.
         -5    1    3    3    0  502  0.17505478459E+02 -0.66579128434E+00 -0.21793874001E+03  0.21869217967E+03  0.47000000000E+01 0.  1.
        -11    1    4    4    0    0  0.18816490611E+02 -0.43718917048E+02 -0.14455615597E+03  0.15219029619E+03  0.00000000000E+00 0. -1.
         11    1    4    4    0    0  0.50160839430E+02  0.40580189354E+02 -0.10956564700E+03  0.12715145529E+03  0.00000000000E+00 0.  1.
<mgrwt>
<rscale>  0 0.13668245E+03</rscale>
<asrwt>0</asrwt>
<pdfrwt beam="1">  1        1 0.42538010E-02 0.14436953E+03</pdfrwt>
<pdfrwt beam="2">  1       -1 0.94336934E-01 0.14436953E+03</pdfrwt>
<totfact> 0.23237490E+03</totfact>
</mgrwt>
</event>
<event>
 8    1  0.8504141E-006  0.1414915E+03  0.7546771E-02  0.1221694E+00
          3   -1    0    0  501    0  0.00000000000E+00  0.00000000000E+00  0.43890422308E+02  0.43890422308E+02  0.00000000000E+00 0. -1.
         -3   -1    0    0    0  501 -0.00000000000E+00 -0.00000000000E+00 -0.37177395113E+03  0.37177395113E+03  0.00000000000E+00 0.  1.
         23    2    1    2    0    0 -0.24814213251E+02 -0.61620507629E+02 -0.17178946823E+03  0.22255665739E+03  0.12492802815E+03 0.  0.
         23    2    1    2    0    0  0.24814213251E+02  0.61620507629E+02 -0.15609406059E+03  0.19310771604E+03  0.92262679904E+02 0.  0.
          5    1    3    3  502    0 -0.12347464224E+02 -0.87925948949E+02 -0.17137451345E+03  0.19306668856E+03  0.47000000000E+01 0. -1.
         -5    1    3    3    0  502 -0.12466749027E+02  0.26305441320E+02 -0.41495477887E+00  0.29489968834E+02  0.47000000000E+01 0. -1.
        -11    1    4    4    0    0 -0.80071194954E+00 -0.23906446290E+02 -0.26051010697E+02  0.35366855559E+02  0.00000000000E+00 0.  1.
         11    1    4    4    0    0  0.25614925201E+02  0.85526953919E+02 -0.13004304989E+03  0.15774086048E+03  0.00000000000E+00 0. -1.
<mgrwt>
<rscale>  0 0.13396075E+03</rscale>
<asrwt>0</asrwt>
<pdfrwt beam="1">  1        3 0.67523727E-02 0.14149150E+03</pdfrwt>
<pdfrwt beam="2">  1       -3 0.57195992E-01 0.14149150E+03</pdfrwt>
<totfact> 0.99229390E+02</totfact>
</mgrwt>
</event>
<event>
 8    1  0.8504141E-006  0.1267134E+03  0.7546771E-02  0.1247432E+00
          2   -1    0    0  501    0  0.00000000000E+00  0.00000000000E+00  0.23541811446E+03  0.23541811446E+03  0.00000000000E+00 0. -1.
         -2   -1    0    0    0  501 -0.00000000000E+00 -0.00000000000E+00 -0.51771497735E+02  0.51771497735E+02  0.00000000000E+00 0.  1.
         23    2    1    2    0    0  0.16891556974E+02  0.12046323143E+02  0.94471174623E+02  0.15805408682E+03  0.12500341166E+03 0.  0.
         23    2    1    2    0    0 -0.16891556974E+02 -0.12046323143E+02  0.89175442105E+02  0.12913552538E+03  0.91067479605E+02 0.  0.
          5    1    3    3  502    0  0.25081796475E+02  0.46629346492E+02  0.10748949630E+03  0.11991444568E+03  0.47000000000E+01 0.  1.
         -5    1    3    3    0  502 -0.81902395002E+01 -0.34583023348E+02 -0.13018321675E+02  0.38139641139E+02  0.47000000000E+01 0.  1.
        -11    1    4    4    0    0 -0.17471808224E+02 -0.47968968424E+02  0.74528941545E+02  0.90337418283E+02  0.00000000000E+00 0. -1.
         11    1    4    4    0    0  0.58025125011E+00  0.35922645281E+02  0.14646500561E+02  0.38798107095E+02  0.00000000000E+00 0.  1.
<mgrwt>
<rscale>  0 0.11740990E+03</rscale>
<asrwt>0</asrwt>
<pdfrwt beam="1">  1        2 0.36218171E-01 0.12671342E+03</pdfrwt>
<pdfrwt beam="2">  1       -2 0.79648459E-02 0.12671342E+03</pdfrwt>
<totfact> 0.12674647E+04</totfact>
</mgrwt>
</event>
<event>
 7    1  0.8504141E-006  0.1576523E+03  0.7546771E-02  0.1209161E+00
         -1   -1    0    0    0  501 -0.00000000000E+00  0.00000000000E+00  0.39167858178E+02  0.39167858178E+02  0.00000000000E+00 0.  1.
          1   -1    0    0  501    0  0.00000000000E+00 -0.00000000000E+00 -0.54307494319E+03  0.54307494319E+03  0.00000000000E+00 0. -1.
         23    2    1    2    0    0  0.22968640583E+02  0.41906097085E+02 -0.33260017331E+03  0.34943323954E+03  0.95901168837E+02 0.  0.
          5    1    1    2  502    0 -0.55978726843E+02 -0.19922953691E+02 -0.28379848257E+01  0.59671484820E+02  0.47000000000E+01 0. -1.
         -5    1    1    2    0  502  0.33010086260E+02 -0.21983143394E+02 -0.16846892688E+03  0.17313807702E+03  0.47000000000E+01 0.  1.
        -11    1    3    3    0    0  0.30573761551E+02  0.56360551535E+02 -0.32527203701E+03  0.33153154408E+03  0.00000000000E+00 0.  1.
         11    1    3    3    0    0 -0.76051209675E+01 -0.14454454450E+02 -0.73281363021E+01  0.17901695451E+02  0.00000000000E+00 0. -1.
<mgrwt>
<rscale>  0 0.14314338E+03</rscale>
<asrwt>0</asrwt>
<pdfrwt beam="2">  1        1 0.83549989E-01 0.15765226E+03</pdfrwt>
<pdfrwt beam="1">  1       -1 0.60258245E-02 0.15765226E+03</pdfrwt>
<totfact> 0.52100673E+03</totfact>
</mgrwt>
</event>
<event>
 8    1  0.8504141E-006  0.1424219E+03  0.7546771E-02  0.1221241E+00
         -2   -1    0    0    0  501 -0.00000000000E+00  0.00000000000E+00  0.32266125345E+02  0.32266125345E+02  0.00000000000E+00 0.  1.
          2   -1    0    0  501    0  0.00000000000E+00 -0.00000000000E+00 -0.50962226392E+03  0.50962226392E+03  0.00000000000E+00 0. -1.
         23    2    1    2    0    0 -0.50538277008E+01  0.68105964634E+02 -0.23723281514E+03  0.27670092767E+03  0.12498012323E+03 0.  0.
         23    2    1    2    0    0  0.50538277008E+01 -0.68105964634E+02 -0.24012332344E+03  0.26518746159E+03  0.89449515003E+02 0.  0.
          5    1    3    3  502    0 -0.15630767506E+02 -0.25990109168E+02 -0.12997712686E+03  0.13355130165E+03  0.47000000000E+01 0.  1.
         -5    1    3    3    0  502  0.10576939805E+02  0.94096073802E+02 -0.10725568828E+03  0.14314962602E+03  0.47000000000E+01 0.  1.
        -11    1    4    4    0    0 -0.15341386181E+02 -0.40934115034E+02 -0.22280611598E+03  0.22705401388E+03  0.00000000000E+00 0.  1.
         11    1    4    4    0    0  0.20395213881E+02 -0.27171849600E+02 -0.17317207459E+02  0.38133447708E+02  0.00000000000E+00 0. -1.
<mgrwt>
<rscale>  0 0.13427927E+03</rscale>
<asrwt>0</asrwt>
<pdfrwt beam="2">  1        2 0.78403430E-01 0.14242189E+03</pdfrwt>
<pdfrwt beam="1">  1       -2 0.49640190E-02 0.14242189E+03</pdfrwt>
<totfact> 0.11499558E+04</totfact>
</mgrwt>
</event>
<event>
 7    1  0.8504141E-006  0.3027340E+03  0.7546771E-02  0.1126059E+00
          2   -1    0    0  501    0  0.00000000000E+00  0.00000000000E+00  0.33736487693E+03  0.33736487693E+03  0.00000000000E+00 0. -1.
         -2   -1    0    0    0  501 -0.00000000000E+00 -0.00000000000E+00 -0.16830729452E+03  0.16830729452E+03  0.00000000000E+00 0.  1.
         23    2    1    2    0    0 -0.75681047927E+01  0.56881422320E+02  0.17518340549E+03  0.20287623446E+03  0.84715810407E+02 0.  0.
          5    1    1    2  502    0  0.99101900713E+02  0.52719790418E+02  0.78206059089E+02  0.13688988533E+03  0.47000000000E+01 0. -1.
         -5    1    1    2    0  502 -0.91533795920E+02 -0.10960121274E+03 -0.84331882173E+02  0.16590605167E+03  0.47000000000E+01 0.  1.
        -11    1    3    3    0    0  0.35403806783E+02  0.16937537648E+02  0.10058706089E+03  0.10797252676E+03  0.00000000000E+00 0. -1.
         11    1    3    3    0    0 -0.42971911575E+02  0.39943884672E+02  0.74596344604E+02  0.94903707701E+02  0.00000000000E+00 0.  1.
<mgrwt>
<rscale>  0 0.23082711E+03</rscale>
<asrwt>0</asrwt>
<pdfrwt beam="1">  1        2 0.51902289E-01 0.30273397E+03</pdfrwt>
<pdfrwt beam="2">  1       -2 0.25893430E-01 0.30273397E+03</pdfrwt>
<totfact> 0.12864444E+03</totfact>
</mgrwt>
</event>
<event>
 8    1  0.8504141E-006  0.1294076E+03  0.7546771E-02  0.1261565E+00
          2   -1    0    0  501    0  0.00000000000E+00  0.00000000000E+00  0.70404808604E+02  0.70404808604E+02  0.00000000000E+00 0. -1.
         -2   -1    0    0    0  501 -0.00000000000E+00 -0.00000000000E+00 -0.18620496638E+03  0.18620496638E+03  0.00000000000E+00 0.  1.
         23    2    1    2    0    0  0.96194185027E+01  0.32033445474E+02 -0.13562072361E+03  0.18745484749E+03  0.12501065689E+03 0.  0.
         23    2    1    2    0    0 -0.96194185027E+01 -0.32033445474E+02  0.19820565833E+02  0.69154927489E+02  0.57191558160E+02 0.  0.
          5    1    3    3  502    0  0.10644974210E+02  0.21024762846E+02  0.20065315533E+02  0.31305958156E+02  0.47000000000E+01 0.  1.
         -5    1    3    3    0  502 -0.10255557070E+01  0.11008682628E+02 -0.15568603914E+03  0.15614888934E+03  0.47000000000E+01 0.  1.
        -11    1    4    4    0    0  0.65171354861E+01 -0.20885874025E+02 -0.16818848733E+02  0.27596493644E+02  0.00000000000E+00 0.  1.
         11    1    4    4    0    0 -0.16136553989E+02 -0.11147571449E+02  0.36639414567E+02  0.41558433845E+02  0.00000000000E+00 0. -1.
<mgrwt>
<rscale>  0 0.10946429E+03</rscale>
<asrwt>0</asrwt>
<pdfrwt beam="1">  1        2 0.10831509E-01 0.12940765E+03</pdfrwt>
<pdfrwt beam="2">  1       -2 0.28646917E-01 0.12940765E+03</pdfrwt>
<totfact> 0.60928489E+03</totfact>
</mgrwt>
</event>
<event>
 8    1  0.8504141E-006  0.1353505E+03  0.7546771E-02  0.1230562E+00
          4   -1    0    0  501    0  0.00000000000E+00  0.00000000000E+00  0.11794235706E+03  0.11794235706E+03  0.00000000000E+00 0. -1.
         -4   -1    0    0    0  501 -0.00000000000E+00 -0.00000000000E+00 -0.12667836049E+03  0.12667836049E+03  0.00000000000E+00 0.  1.
         23    2    1    2    0    0 -0.34784830658E+02 -0.38525351403E+02 -0.16361340240E+02  0.13633585287E+03  0.12500233670E+03 0.  0.
         23    2    1    2    0    0  0.34784830658E+02  0.38525351403E+02  0.76253368152E+01  0.10828486468E+03  0.94727393149E+02 0.  0.
          5    1    3    3  502    0 -0.18802547685E+02  0.42581269576E+02 -0.25071965478E+02  0.53079127452E+02  0.47000000000E+01 0.  1.
         -5    1    3    3    0  502 -0.15982282973E+02 -0.81106620979E+02  0.87106252385E+01  0.83256725420E+02  0.47000000000E+01 0.  1.
        -11    1    4    4    0    0 -0.24968054932E+00  0.64303799697E+02  0.11931875760E+01  0.64315353474E+02  0.00000000000E+00 0.  1.
         11    1    4    4    0    0  0.35034511207E+02 -0.25778448294E+02  0.64321492392E+01  0.43969511207E+02  0.00000000000E+00 0. -1.
<mgrwt>
<rscale>  0 0.12792843E+03</rscale>
<asrwt>0</asrwt>
<pdfrwt beam="1">  1        4 0.18144978E-01 0.13535055E+03</pdfrwt>
<pdfrwt beam="2">  1       -4 0.19488979E-01 0.13535055E+03</pdfrwt>
<totfact> 0.10484573E+03</totfact>
</mgrwt>
</event>
<event>
 8    1  0.8504141E-006  0.2153540E+03  0.7546771E-02  0.1141398E+00
         -3   -1    0    0    0  501 -0.00000000000E+00  0.00000000000E+00  0.93306016890E+02  0.93306016890E+02  0.00000000000E+00 0.  1.
          3   -1    0    0  501    0  0.00000000000E+00 -0.00000000000E+00 -0.45594649512E+03  0.45594649512E+03  0.00000000000E+00 0. -1.
         23    2    1    2    0    0 -0.30404764602E+02 -0.17270808291E+03 -0.16549598684E+03  0.27159948361E+03  0.12499930488E+03 0.  0.
         23    2    1    2    0    0  0.30404764602E+02  0.17270808291E+03 -0.19714449139E+03  0.27765302840E+03  0.86444907793E+02 0.  0.
          5    1    3    3  502    0 -0.36604584702E+02 -0.18241557314E+03 -0.17536854020E+03  0.25571771905E+03  0.47000000000E+01 0. -1.
         -5    1    3    3    0  502  0.61998200998E+01  0.97074902251E+01  0.98725533545E+01  0.15881764558E+02  0.47000000000E+01 0. -1.
        -11    1    4    4    0    0 -0.18273356303E+02  0.27848955944E+02 -0.75792122030E+01  0.34160274521E+02  0.00000000000E+00 0. -1.
         11    1    4    4    0    0  0.48678120905E+02  0.14485912697E+03 -0.18956527919E+03  0.24349275388E+03  0.00000000000E+00 0.  1.
<mgrwt>
<rscale>  0 0.21021251E+03</rscale>
<asrwt>0</asrwt>
<pdfrwt beam="2">  1        3 0.70145617E-01 0.21535403E+03</pdfrwt>
<pdfrwt beam="1">  1       -3 0.14354771E-01 0.21535403E+03</pdfrwt>
<totfact> 0.19534036E+02</totfact>
</mgrwt>
</event>
<event>
 8    1  0.8504141E-006  0.1766567E+03  0.7546771E-02  0.1176915E+00
          1   -1    0    0  501    0  0.00000000000E+00  0.00000000000E+00  0.33157525253E+03  0.33157525253E+03  0.00000000000E+00 0. -1.
         -1   -1    0    0    0  501 -0.00000000000E+00 -0.00000000000E+00 -0.82908851508E+02  0.82908851508E+02  0.00000000000E+00 0.  1.
         23    2    1    2    0    0 -0.10711882606E+03  0.64084160225E+02  0.12493637995E+03  0.21637161827E+03  0.12500542256E+03 0.  0.
         23    2    1    2    0    0  0.10711882606E+03 -0.64084160225E+02  0.12373002108E+03  0.19811248577E+03  0.91423281571E+02 0.  0.
          5    1    3    3  502    0 -0.12498519372E+03  0.27068769485E+02  0.11868143607E+03  0.17453191741E+03  0.47000000000E+01 0. -1.
         -5    1    3    3    0  502  0.17866367654E+02  0.37015390740E+02  0.62549438817E+01  0.41839700856E+02  0.47000000000E+01 0. -1.
        -11    1    4    4    0    0  0.62283016216E+02 -0.74305766943E+02  0.44896636758E+02  0.10684675523E+03  0.00000000000E+00 0.  1.
         11    1    4    4    0    0  0.44835809846E+02  0.10221606718E+02  0.78833384320E+02  0.91265730544E+02  0.00000000000E+00 0. -1.
<mgrwt>
<rscale>  0 0.17089792E+03</rscale>
<asrwt>0</asrwt>
<pdfrwt beam="1">  1        1 0.51011577E-01 0.17665667E+03</pdfrwt>
<pdfrwt beam="2">  1       -1 0.12755208E-01 0.17665667E+03</pdfrwt>
<totfact> 0.31447984E+03</totfact>
</mgrwt>
</event>
<event>
 8    1  0.8504141E-006  0.1656785E+03  0.7546771E-02  0.1190456E+00
          1   -1    0    0  501    0  0.00000000000E+00  0.00000000000E+00  0.26390456782E+03  0.26390456782E+03  0.00000000000E+00 0. -1.
         -1   -1    0    0    0  501 -0.00000000000E+00 -0.00000000000E+00 -0.97470507916E+02  0.97470507916E+02  0.00000000000E+00 0.  1.
         23    2    1    2    0    0  0.99998844469E+02 -0.42713215621E+02  0.32911273978E+02  0.16891572066E+03  0.12500072419E+03 0.  0.
         23    2    1    2    0    0 -0.99998844469E+02  0.42713215621E+02  0.13352278592E+03  0.19245935507E+03  0.85953948782E+02 0.  0.
          5    1    3    3  502    0 -0.22910121614E+02 -0.95091954605E+01  0.32954803051E+02  0.41513943619E+02  0.47000000000E+01 0.  1.
         -5    1    3    3    0  502  0.12290896608E+03 -0.33204020160E+02 -0.43529073512E-01  0.12740177704E+03  0.47000000000E+01 0.  1.
        -11    1    4    4    0    0 -0.16774913262E+02  0.48746662144E+02  0.30557252397E+02  0.59928127446E+02  0.00000000000E+00 0.  1.
         11    1    4    4    0    0 -0.83223931207E+02 -0.60334465228E+01  0.10296553353E+03  0.13253122763E+03  0.00000000000E+00 0. -1.
<mgrwt>
<rscale>  0 0.15845172E+03</rscale>
<asrwt>0</asrwt>
<pdfrwt beam="1">  1        1 0.40600702E-01 0.16567851E+03</pdfrwt>
<pdfrwt beam="2">  1       -1 0.14995463E-01 0.16567851E+03</pdfrwt>
<totfact> 0.32356407E+03</totfact>
</mgrwt>
</event>
<event>
 8    1  0.8504141E-006  0.2909651E+03  0.7546771E-02  0.1091583E+00
         -1   -1    0    0    0  501 -0.00000000000E+00  0.00000000000E+00  0.11006836111E+03  0.11006836111E+03  0.00000000000E+00 0.  1.
          1   -1    0    0  501    0  0.00000000000E+00 -0.00000000000E+00 -0.10416854441E+04  0.10416854441E+04  0.00000000000E+00 0. -1.
         23    2    1    2    0    0 -0.26068915459E+03  0.32808231694E+02 -0.16097033245E+03  0.33252384705E+03  0.12500178213E+03 0.  0.
         23    2    1    2    0    0  0.26068915459E+03 -0.32808231694E+02 -0.77064675051E+03  0.81922995813E+03  0.90587498256E+02 0.  0.
          5    1    3    3  502    0 -0.28138399349E+02 -0.34281515144E+02 -0.57842829521E+01  0.44972655334E+02  0.47000000000E+01 0. -1.
         -5    1    3    3    0  502 -0.23255075524E+03  0.67089746838E+02 -0.15518604950E+03  0.28755119171E+03  0.47000000000E+01 0. -1.
        -11    1    4    4    0    0  0.11012602056E+03 -0.52692789258E+02 -0.27602817922E+03  0.30182085111E+03  0.00000000000E+00 0.  1.
         11    1    4    4    0    0  0.15056313403E+03  0.19884557564E+02 -0.49461857129E+03  0.51740910702E+03  0.00000000000E+00 0. -1.
<mgrwt>
<rscale>  0 0.28764831E+03</rscale>
<asrwt>0</asrwt>
<pdfrwt beam="2">  1        1 0.16025930E+00 0.29096505E+03</pdfrwt>
<pdfrwt beam="1">  1       -1 0.16933594E-01 0.29096505E+03</pdfrwt>
<totfact> 0.39500045E+02</totfact>
</mgrwt>
</event>
<event>
 8    1  0.8504141E-006  0.1363865E+03  0.7546771E-02  0.1230113E+00
         -1   -1    0    0    0  501 -0.00000000000E+00  0.00000000000E+00  0.17673021980E+03  0.17673021980E+03  0.00000000000E+00 0.  1.
          1   -1    0    0  501    0  0.00000000000E+00 -0.00000000000E+00 -0.10849671427E+03  0.10849671427E+03  0.00000000000E+00 0. -1.
         23    2    1    2    0    0 -0.51828110146E+02 -0.17026481344E+02  0.10540663112E+03  0.17237122312E+03  0.12500090643E+03 0.  0.
         23    2    1    2    0    0  0.51828110146E+02  0.17026481344E+02 -0.37173125587E+02  0.11285571095E+03  0.91534234903E+02 0.  0.
          5    1    3    3  502    0  0.18985301883E+02 -0.25849575259E+02 -0.12276717676E+02  0.34661939149E+02  0.47000000000E+01 0.  1.
         -5    1    3    3    0  502 -0.70813412029E+02  0.88230939152E+01  0.11768334879E+03  0.13770928397E+03  0.47000000000E+01 0.  1.
        -11    1    4    4    0    0 -0.36133899383E+01 -0.31800469796E+02 -0.17163004130E+02  0.36316596438E+02  0.00000000000E+00 0.  1.
         11    1    4    4    0    0  0.55441500085E+02  0.48826951140E+02 -0.20010121457E+02  0.76539114510E+02  0.00000000000E+00 0. -1.
<mgrwt>
<rscale>  0 0.12822565E+03</rscale>
<asrwt>0</asrwt>
<pdfrwt beam="2">  1        1 0.16691802E-01 0.13638651E+03</pdfrwt>
<pdfrwt beam="1">  1       -1 0.27189265E-01 0.13638651E+03</pdfrwt>
<totfact> 0.37572080E+03</totfact>
</mgrwt>
</event>
<event>
 8    1  0.8504141E-006  0.1348037E+03  0.7546771E-02  0.1234547E+00
         -2   -1    0    0    0  501 -0.00000000000E+00  0.00000000000E+00  0.24476437735E+02  0.24476437735E+02  0.00000000000E+00 0. -1.
          2   -1    0    0  501    0  0.00000000000E+00 -0.00000000000E+00 -0.59645517047E+03  0.59645517047E+03  0.00000000000E+00 0.  1.
         23    2    1    2    0    0 -0.25146915582E+02 -0.43711168154E+02 -0.25657887061E+03  0.28983571599E+03  0.12501596632E+03 0.  0.
         23    2    1    2    0    0  0.25146915582E+02  0.43711168154E+02 -0.31539986213E+03  0.33109589222E+03  0.87203114794E+02 0.  0.
          5    1    3    3  502    0 -0.19938608298E+02  0.34717247853E+02 -0.16114740980E+03  0.16611265179E+03  0.47000000000E+01 0.  1.
         -5    1    3    3    0  502 -0.52083072838E+01 -0.78428416008E+02 -0.95431460807E+02  0.12372306420E+03  0.47000000000E+01 0.  1.
        -11    1    4    4    0    0 -0.32241569374E+02  0.85446520259E+01 -0.11054437966E+03  0.11546683398E+03  0.00000000000E+00 0.  1.
         11    1    4    4    0    0  0.57388484955E+02  0.35166516128E+02 -0.20485548246E+03  0.21562905824E+03  0.00000000000E+00 0. -1.
<mgrwt>
<rscale>  0 0.12533452E+03</rscale>
<asrwt>0</asrwt>
<pdfrwt beam="2">  1        2 0.91762332E-01 0.13480366E+03</pdfrwt>
<pdfrwt beam="1">  1       -2 0.37656059E-02 0.13480366E+03</pdfrwt>
<totfact> 0.14506637E+04</totfact>
</mgrwt>
</event>
<event>
 8    1  0.8504141E-006  0.1635564E+03  0.7546771E-02  0.1190309E+00
         -1   -1    0    0    0  501 -0.00000000000E+00  0.00000000000E+00  0.23748271104E+03  0.23748271104E+03  0.00000000000E+00 0.  1.
          1   -1    0    0  501    0  0.00000000000E+00 -0.00000000000E+00 -0.10402636530E+03  0.10402636530E+03  0.00000000000E+00 0. -1.
         23    2    1    2    0    0  0.43863759650E+02  0.95924120612E+02  0.10451852097E+03  0.19409999495E+03  0.12500088195E+03 0.  0.
         23    2    1    2    0    0 -0.43863759650E+02 -0.95924120612E+02  0.28937824765E+02  0.14740908139E+03  0.98825974560E+02 0.  0.
          5    1    3    3  502    0  0.63625881361E+02 -0.12992776703E+01  0.47735899654E+02  0.79691574317E+02  0.47000000000E+01 0.  1.
         -5    1    3    3    0  502 -0.19762121711E+02  0.97223398282E+02  0.56782621317E+02  0.11440842063E+03  0.47000000000E+01 0.  1.
        -11    1    4    4    0    0 -0.75663535521E+02 -0.60240840848E+02  0.20739614147E+02  0.98914413048E+02  0.00000000000E+00 0. -1.
         11    1    4    4    0    0  0.31799775871E+02 -0.35683279764E+02  0.81982106178E+01  0.48494668341E+02  0.00000000000E+00 0.  1.
<mgrwt>
<rscale>  0 0.15857992E+03</rscale>
<asrwt>0</asrwt>
<pdfrwt beam="2">  1        1 0.16004056E-01 0.16355637E+03</pdfrwt>
<pdfrwt beam="1">  1       -1 0.36535802E-01 0.16355637E+03</pdfrwt>
<totfact> 0.24249558E+03</totfact>
</mgrwt>
</event>
<event>
 8    1  0.8504141E-006  0.1690778E+03  0.7546771E-02  0.1185281E+00
          2   -1    0    0  501    0  0.00000000000E+00  0.00000000000E+00  0.49831583407E+02  0.49831583407E+02  0.00000000000E+00 0. -1.
         -2   -1    0    0    0  501 -0.00000000000E+00 -0.00000000000E+00 -0.49897463741E+03  0.49897463741E+03  0.00000000000E+00 0.  1.
         23    2    1    2    0    0 -0.34991392245E+02 -0.10832329228E+03 -0.23772800908E+03  0.29172232552E+03  0.12501590188E+03 0.  0.
         23    2    1    2    0    0  0.34991392245E+02  0.10832329228E+03 -0.21141504492E+03  0.25708389530E+03  0.91855728308E+02 0.  0.
          5    1    3    3  502    0  0.34993767433E+02 -0.45705899679E+02 -0.33203149485E+02  0.66619307714E+02  0.47000000000E+01 0. -1.
         -5    1    3    3    0  502 -0.69985159678E+02 -0.62617392597E+02 -0.20452485960E+03  0.22510301780E+03  0.47000000000E+01 0. -1.
        -11    1    4    4    0    0  0.54434911112E+02  0.10084075188E+03 -0.20572308096E+03  0.23548673599E+03  0.00000000000E+00 0. -1.
         11    1    4    4    0    0 -0.19443518868E+02  0.74825403954E+01 -0.56919639691E+01  0.21597159317E+02  0.00000000000E+00 0.  1.
<mgrwt>
<rscale>  0 0.16306324E+03</rscale>
<asrwt>0</asrwt>
<pdfrwt beam="1">  1        2 0.76663975E-02 0.16907782E+03</pdfrwt>
<pdfrwt beam="2">  1       -2 0.76765329E-01 0.16907782E+03</pdfrwt>
<totfact> 0.13728561E+03</totfact>
</mgrwt>
</event>
<event>
 8    1  0.8504141E-006  0.1302136E+03  0.7546771E-02  0.1241458E+00
         -1   -1    0    0    0  501 -0.00000000000E+00  0.00000000000E+00  0.34526430021E+02  0.34526430021E+02  0.00000000000E+00 0.  1.
          1   -1    0    0  501    0  0.00000000000E+00 -0.00000000000E+00 -0.40546447323E+03  0.40546447323E+03  0.00000000000E+00 0. -1.
         23    2    1    2    0    0  0.94808794699E+01 -0.35231838537E+02 -0.14982506704E+03  0.19850221437E+03  0.12499763548E+03 0.  0.
         23    2    1    2    0    0 -0.94808794699E+01  0.35231838537E+02 -0.22111297617E+03  0.24148868887E+03  0.89970379022E+02 0.  0.
          5    1    3    3  502    0  0.30105110904E+01 -0.48721578388E+02 -0.16769992964E+03  0.17472324339E+03  0.47000000000E+01 0.  1.
         -5    1    3    3    0  502  0.64703683795E+01  0.13489739850E+02  0.17874862603E+02  0.23778970989E+02  0.47000000000E+01 0.  1.
        -11    1    4    4    0    0 -0.44052582353E+02  0.43043083784E+02 -0.13645413449E+03  0.14970994587E+03  0.00000000000E+00 0. -1.
         11    1    4    4    0    0  0.34571702883E+02 -0.78112452464E+01 -0.84658841675E+02  0.91778742998E+02  0.00000000000E+00 0.  1.
<mgrwt>
<rscale>  0 0.12099912E+03</rscale>
<asrwt>0</asrwt>
<pdfrwt beam="2">  1        1 0.62379146E-01 0.13021359E+03</pdfrwt>
<pdfrwt beam="1">  1       -1 0.53117587E-02 0.13021359E+03</pdfrwt>
<totfact> 0.90687672E+03</totfact>
</mgrwt>
</event>
<event>
 8    1  0.8504141E-006  0.1661644E+03  0.7546771E-02  0.1188206E+00
         -2   -1    0    0    0  501 -0.00000000000E+00  0.00000000000E+00  0.47239949469E+02  0.47239949469E+02  0.00000000000E+00 0. -1.
          2   -1    0    0  501    0  0.00000000000E+00 -0.00000000000E+00 -0.51509694766E+03  0.51509694766E+03  0.00000000000E+00 0.  1.
         23    2    1    2    0    0 -0.28621080175E+02 -0.10566736973E+03 -0.22353255613E+03  0.27852723821E+03  0.12500343802E+03 0.  0.
         23    2    1    2    0    0  0.28621080175E+02  0.10566736973E+03 -0.24432444206E+03  0.28380965892E+03  0.94173936162E+02 0.  0.
          5    1    3    3  502    0  0.16612178520E+02 -0.92221179405E+01  0.98704549716E+01  0.21920944684E+02  0.47000000000E+01 0. -1.
         -5    1    3    3    0  502 -0.45233258695E+02 -0.96445251789E+02 -0.23340301110E+03  0.25660629353E+03  0.47000000000E+01 0. -1.
        -11    1    4    4    0    0 -0.15748040174E+02  0.58754318484E+02 -0.18976105294E+03  0.19927199483E+03  0.00000000000E+00 0.  1.
         11    1    4    4    0    0  0.44369120349E+02  0.46913051245E+02 -0.54563389116E+02  0.84537664088E+02  0.00000000000E+00 0. -1.
<mgrwt>
<rscale>  0 0.16043566E+03</rscale>
<asrwt>0</asrwt>
<pdfrwt beam="2">  1        2 0.79245683E-01 0.16616443E+03</pdfrwt>
<pdfrwt beam="1">  1       -2 0.72676847E-02 0.16616443E+03</pdfrwt>
<totfact> 0.64237223E+03</totfact>
</mgrwt>
</event>
<event>
 8    1  0.8504141E-006  0.2172799E+03  0.7546771E-02  0.1138534E+00
          2   -1    0    0  501    0  0.00000000000E+00  0.00000000000E+00  0.18300099549E+04  0.18300099549E+04  0.00000000000E+00 0. -1.
         -2   -1    0    0    0  501 -0.00000000000E+00 -0.00000000000E+00 -0.24267104426E+02  0.24267104426E+02  0.00000000000E+00 0.  1.
         23    2    1    2    0    0 -0.11264685015E+03 -0.14396630677E+03  0.96104993652E+03  0.98530581087E+03  0.11745190559E+03 0.  0.
         23    2    1    2    0    0  0.11264685015E+03  0.14396630677E+03  0.84469291395E+03  0.86897124845E+03  0.90494759055E+02 0.  0.
          5    1    3    3  502    0 -0.67859049923E+02 -0.14758346055E+03  0.85040738642E+03  0.86579474551E+03  0.47000000000E+01 0. -1.
         -5    1    3    3    0  502 -0.44787800230E+02  0.36171537797E+01  0.11064255010E+03  0.11951106536E+03  0.47000000000E+01 0.  1.
        -11    1    4    4    0    0  0.63959491083E+02  0.14116249726E+03  0.62446409181E+03  0.64340738968E+03  0.00000000000E+00 0.  1.
         11    1    4    4    0    0  0.48687359070E+02  0.28038095014E+01  0.22022882214E+03  0.22556385877E+03  0.00000000000E+00 0. -1.
<mgrwt>
<rscale>  0 0.21387389E+03</rscale>
<asrwt>0</asrwt>
<pdfrwt beam="1">  1        2 0.28153989E+00 0.21727991E+03</pdfrwt>
<pdfrwt beam="2">  1       -2 0.37334021E-02 0.21727991E+03</pdfrwt>
<totfact> 0.27853749E+03</totfact>
</mgrwt>
</event>
<event>
 7    1  0.8504141E-006  0.1639285E+03  0.7546771E-02  0.1204090E+00
          2   -1    0    0  501    0  0.00000000000E+00  0.00000000000E+00  0.11571270118E+04  0.11571270118E+04  0.00000000000E+00 0. -1.
         -2   -1    0    0    0  501 -0.00000000000E+00 -0.00000000000E+00 -0.15869086022E+02  0.15869086022E+02  0.00000000000E+00 0.  1.
         23    2    1    2    0    0 -0.36009870936E+02  0.40843190264E+02  0.40512857980E+03  0.41883500291E+03  0.91261801956E+02 0.  0.
          5    1    1    2  502    0  0.20566412408E+02 -0.48875237356E+02  0.73408755220E+03  0.73601521074E+03  0.47000000000E+01 0. -1.
         -5    1    1    2    0  502  0.15443458528E+02  0.80320470914E+01  0.20417938171E+01  0.18145884211E+02  0.47000000000E+01 0.  1.
        -11    1    3    3    0    0 -0.64313751820E+02  0.12510111689E+02  0.27415248428E+03  0.28187292563E+03  0.00000000000E+00 0.  1.
         11    1    3    3    0    0  0.28303880884E+02  0.28333078575E+02  0.13097609553E+03  0.13696207729E+03  0.00000000000E+00 0. -1.
<mgrwt>
<rscale>  0 0.14709395E+03</rscale>
<asrwt>0</asrwt>
<pdfrwt beam="1">  1        2 0.17801947E+00 0.16392847E+03</pdfrwt>
<pdfrwt beam="2">  1       -2 0.24413988E-02 0.16392847E+03</pdfrwt>
<totfact> 0.11872242E+04</totfact>
</mgrwt>
</event>
<event>
 8    1  0.8504141E-006  0.1868791E+03  0.7546771E-02  0.1166397E+00
          2   -1    0    0  501    0  0.00000000000E+00  0.00000000000E+00  0.49231189721E+03  0.49231189721E+03  0.00000000000E+00 0.  1.
         -2   -1    0    0    0  501 -0.00000000000E+00 -0.00000000000E+00 -0.64914929570E+02  0.64914929570E+02  0.00000000000E+00 0. -1.
         23    2    1    2    0    0  0.13837268008E+03  0.12519588354E+02  0.18180509556E+03  0.26072378256E+03  0.12498023576E+03 0.  0.
         23    2    1    2    0    0 -0.13837268008E+03 -0.12519588354E+02  0.24559187207E+03  0.29650304422E+03  0.91076610155E+02 0.  0.
          5    1    3    3  502    0  0.17860627943E+02  0.39326324738E+02  0.10895454156E+03  0.11729767250E+03  0.47000000000E+01 0.  1.
         -5    1    3    3    0  502  0.12051205214E+03 -0.26806736384E+02  0.72850554006E+02  0.14342611006E+03  0.47000000000E+01 0.  1.
        -11    1    4    4    0    0 -0.28246201684E+02  0.35780188489E+02  0.75522865218E+02  0.88214358064E+02  0.00000000000E+00 0. -1.
         11    1    4    4    0    0 -0.11012647840E+03 -0.48299776844E+02  0.17006900686E+03  0.20828868616E+03  0.00000000000E+00 0.  1.
<mgrwt>
<rscale>  0 0.18146029E+03</rscale>
<asrwt>0</asrwt>
<pdfrwt beam="1">  1        2 0.75740289E-01 0.18687910E+03</pdfrwt>
<pdfrwt beam="2">  1       -2 0.99869126E-02 0.18687910E+03</pdfrwt>
<totfact> 0.41345470E+03</totfact>
</mgrwt>
</event>
<event>
 8    1  0.8504141E-006  0.1594117E+03  0.7546771E-02  0.1197138E+00
         -1   -1    0    0    0  501 -0.00000000000E+00  0.00000000000E+00  0.54435940181E+03  0.54435940181E+03  0.00000000000E+00 0.  1.
          1   -1    0    0  501    0  0.00000000000E+00 -0.00000000000E+00 -0.39646356979E+02  0.39646356979E+02  0.00000000000E+00 0. -1.
         23    2    1    2    0    0  0.67417183683E+02  0.72396783448E+02  0.27005542632E+03  0.31359531775E+03  0.12500287645E+03 0.  0.
         23    2    1    2    0    0 -0.67417183683E+02 -0.72396783448E+02  0.23465761850E+03  0.27041044103E+03  0.90946345650E+02 0.  0.
          5    1    3    3  502    0  0.85645125140E+02  0.30389409785E+02  0.90903511676E+02  0.12862403400E+03  0.47000000000E+01 0. -1.
         -5    1    3    3    0  502 -0.18227941457E+02  0.42007373663E+02  0.17915191465E+03  0.18497128375E+03  0.47000000000E+01 0. -1.
        -11    1    4    4    0    0 -0.30307612301E+02  0.56826492424E+01  0.13502257623E+03  0.13849888071E+03  0.00000000000E+00 0.  1.
         11    1    4    4    0    0 -0.37109571382E+02 -0.78079432690E+02  0.99635042271E+02  0.13191156032E+03  0.00000000000E+00 0. -1.
<mgrwt>
<rscale>  0 0.15274699E+03</rscale>
<asrwt>0</asrwt>
<pdfrwt beam="2">  1        1 0.60994399E-02 0.15941170E+03</pdfrwt>
<pdfrwt beam="1">  1       -1 0.83747595E-01 0.15941170E+03</pdfrwt>
<totfact> 0.18335638E+03</totfact>
</mgrwt>
</event>
<event>
 7    1  0.8504141E-006  0.1771978E+03  0.7546771E-02  0.1198765E+00
          2   -1    0    0  501    0  0.00000000000E+00  0.00000000000E+00  0.49569925204E+03  0.49569925204E+03  0.00000000000E+00 0. -1.
         -2   -1    0    0    0  501 -0.00000000000E+00 -0.00000000000E+00 -0.91605600120E+02  0.91605600120E+02  0.00000000000E+00 0.  1.
         23    2    1    2    0    0  0.10833658335E+02  0.25019606255E+02  0.39901239119E+03  0.41003425295E+03  0.90409354723E+02 0.  0.
          5    1    1    2  502    0  0.30123288332E+02  0.43952228321E+02  0.59664037445E+02  0.80131755494E+02  0.47000000000E+01 0. -1.
         -5    1    1    2    0  502 -0.40956946667E+02 -0.68971834576E+02 -0.54582776711E+02  0.97138843717E+02  0.47000000000E+01 0.  1.
        -11    1    3    3    0    0 -0.35256009102E+02  0.31975002252E+02  0.21567184421E+03  0.22086133961E+03  0.00000000000E+00 0.  1.
         11    1    3    3    0    0  0.46089667437E+02 -0.69553959965E+01  0.18334054698E+03  0.18917291334E+03  0.00000000000E+00 0. -1.
<mgrwt>
<rscale>  0 0.15139873E+03</rscale>
<asrwt>0</asrwt>
<pdfrwt beam="1">  1        2 0.76261422E-01 0.17719776E+03</pdfrwt>
<pdfrwt beam="2">  1       -2 0.14093170E-01 0.17719776E+03</pdfrwt>
<totfact> 0.23549617E+03</totfact>
</mgrwt>
</event>
<event>
 8    1  0.8504141E-006  0.1440104E+03  0.7546771E-02  0.1218433E+00
          4   -1    0    0  501    0  0.00000000000E+00  0.00000000000E+00  0.54251068086E+03  0.54251068086E+03  0.00000000000E+00 0.  1.
         -4   -1    0    0    0  501 -0.00000000000E+00 -0.00000000000E+00 -0.37866738477E+02  0.37866738477E+02  0.00000000000E+00 0. -1.
         23    2    1    2    0    0 -0.57124973608E+02 -0.43482080208E+02  0.15234361751E+03  0.20963675683E+03  0.12484005010E+03 0.  0.
         23    2    1    2    0    0  0.57124973608E+02  0.43482080208E+02  0.35230032488E+03  0.37074066251E+03  0.90438741811E+02 0.  0.
          5    1    3    3  502    0  0.14227740899E+02 -0.18806736150E+02 -0.13342186191E+02  0.27499561234E+02  0.47000000000E+01 0.  1.
         -5    1    3    3    0  502 -0.71352714508E+02 -0.24675344058E+02  0.16568580370E+03  0.18213719559E+03  0.47000000000E+01 0.  1.
        -11    1    4    4    0    0  0.24407182409E+02  0.66265094799E+02  0.16910856497E+03  0.18326068887E+03  0.00000000000E+00 0. -1.
         11    1    4    4    0    0  0.32717791200E+02 -0.22783014591E+02  0.18319175991E+03  0.18747997364E+03  0.00000000000E+00 0.  1.
<mgrwt>
<rscale>  0 0.13627363E+03</rscale>
<asrwt>0</asrwt>
<pdfrwt beam="1">  1        4 0.83463176E-01 0.14401039E+03</pdfrwt>
<pdfrwt beam="2">  1       -4 0.58256525E-02 0.14401039E+03</pdfrwt>
<totfact> 0.40508764E+02</totfact>
</mgrwt>
</event>
<event>
 8    1  0.8504141E-006  0.1255248E+03  0.7546771E-02  0.1249275E+00
          1   -1    0    0  501    0  0.00000000000E+00  0.00000000000E+00  0.26408352845E+02  0.26408352845E+02  0.00000000000E+00 0. -1.
         -1   -1    0    0    0  501 -0.00000000000E+00 -0.00000000000E+00 -0.55884110416E+03  0.55884110416E+03  0.00000000000E+00 0.  1.
         23    2    1    2    0    0 -0.10172977922E+02  0.56952830400E+01 -0.42631966394E+03  0.44441525819E+03  0.12498215923E+03 0.  0.
         23    2    1    2    0    0  0.10172977922E+02 -0.56952830400E+01 -0.10611308738E+03  0.14083419881E+03  0.91860538394E+02 0.  0.
          5    1    3    3  502    0  0.26022463475E+02  0.45463268792E+02 -0.93765309809E+02  0.10750860774E+03  0.47000000000E+01 0. -1.
         -5    1    3    3    0  502 -0.36195441397E+02 -0.39767985752E+02 -0.33255435413E+03  0.33690665045E+03  0.47000000000E+01 0. -1.
        -11    1    4    4    0    0  0.28171994163E+02  0.16371487036E+02 -0.10749445776E+03  0.11232428630E+03  0.00000000000E+00 0.  1.
         11    1    4    4    0    0 -0.17999016241E+02 -0.22066770076E+02  0.13813703889E+01  0.28509912511E+02  0.00000000000E+00 0. -1.
<mgrwt>
<rscale>  0 0.11633136E+03</rscale>
<asrwt>0</asrwt>
<pdfrwt beam="1">  1        1 0.40628236E-02 0.12552476E+03</pdfrwt>
<pdfrwt beam="2">  1       -1 0.85975553E-01 0.12552476E+03</pdfrwt>
<totfact> 0.29909926E+03</totfact>
</mgrwt>
</event>
<event>
 8    1  0.8504141E-006  0.1882431E+03  0.7546771E-02  0.1165002E+00
          1   -1    0    0  501    0  0.00000000000E+00  0.00000000000E+00  0.65475564475E+03  0.65475564475E+03  0.00000000000E+00 0. -1.
         -1   -1    0    0    0  501 -0.00000000000E+00 -0.00000000000E+00 -0.50363793740E+02  0.50363793740E+02  0.00000000000E+00 0.  1.
         23    2    1    2    0    0 -0.13122354378E+03  0.50900148729E+02  0.38803000917E+03  0.43128037181E+03  0.12500011004E+03 0.  0.
         23    2    1    2    0    0  0.13122354378E+03 -0.50900148729E+02  0.21636184184E+03  0.27383906668E+03  0.91460069180E+02 0.  0.
          5    1    3    3  502    0 -0.14807464466E+03  0.65463198109E+02  0.36272306181E+03  0.39724254589E+03  0.47000000000E+01 0.  1.
         -5    1    3    3    0  502  0.16851100887E+02 -0.14563049380E+02  0.25306947360E+02  0.34037825915E+02  0.47000000000E+01 0.  1.
        -11    1    4    4    0    0  0.19307033650E+02 -0.47644821161E+02  0.40878988790E+02  0.65680151159E+02  0.00000000000E+00 0.  1.
         11    1    4    4    0    0  0.11191651013E+03 -0.32553275681E+01  0.17548285305E+03  0.20815891552E+03  0.00000000000E+00 0. -1.
<mgrwt>
<rscale>  0 0.18292500E+03</rscale>
<asrwt>0</asrwt>
<pdfrwt beam="1">  1        1 0.10073163E+00 0.18824312E+03</pdfrwt>
<pdfrwt beam="2">  1       -1 0.77482764E-02 0.18824312E+03</pdfrwt>
<totfact> 0.27783676E+03</totfact>
</mgrwt>
</event>
<event>
 8    1  0.8504141E-006  0.1417414E+03  0.7546771E-02  0.1221036E+00
          3   -1    0    0  501    0  0.00000000000E+00  0.00000000000E+00  0.38975859068E+03  0.38975859068E+03  0.00000000000E+00 0. -1.
         -3   -1    0    0    0  501 -0.00000000000E+00 -0.00000000000E+00 -0.55324536444E+02  0.55324536444E+02  0.00000000000E+00 0.  1.
         23    2    1    2    0    0  0.74578399854E+01  0.66405604413E+02  0.72617686098E+02  0.15926066159E+03  0.12500122527E+03 0.  0.
         23    2    1    2    0    0 -0.74578399854E+01 -0.66405604413E+02  0.26181636814E+03  0.28582246554E+03  0.93173749021E+02 0.  0.
          5    1    3    3  502    0  0.96898047375E+01 -0.30325720530E+02 -0.80807825469E+01  0.33180275588E+02  0.47000000000E+01 0. -1.
         -5    1    3    3    0  502 -0.22319647520E+01  0.96731324943E+02  0.80698468645E+02  0.12608038600E+03  0.47000000000E+01 0. -1.
        -11    1    4    4    0    0 -0.31252444235E+02 -0.30509553393E+02  0.37975976192E+02  0.57876790569E+02  0.00000000000E+00 0.  1.
         11    1    4    4    0    0  0.23794604249E+02 -0.35896051020E+02  0.22384039195E+03  0.22794567497E+03  0.00000000000E+00 0. -1.
<mgrwt>
<rscale>  0 0.13442330E+03</rscale>
<asrwt>0</asrwt>
<pdfrwt beam="1">  1        3 0.59962858E-01 0.14174142E+03</pdfrwt>
<pdfrwt beam="2">  1       -3 0.85114674E-02 0.14174142E+03</pdfrwt>
<totfact> 0.61925214E+02</totfact>
</mgrwt>
</event>
<event>
 8    1  0.8504141E-006  0.1270335E+03  0.7546771E-02  0.1247643E+00
          2   -1    0    0  501    0  0.00000000000E+00  0.00000000000E+00  0.62429136964E+02  0.62429136964E+02  0.00000000000E+00 0. -1.
         -2   -1    0    0    0  501 -0.00000000000E+00 -0.00000000000E+00 -0.21138944770E+03  0.21138944770E+03  0.00000000000E+00 0.  1.
         23    2    1    2    0    0  0.11850799888E+02 -0.19317029205E+02 -0.12551745116E+03  0.17858374104E+03  0.12499573169E+03 0.  0.
         23    2    1    2    0    0 -0.11850799888E+02  0.19317029205E+02 -0.23442859576E+02  0.95234843629E+02  0.89479152324E+02 0.  0.
          5    1    3    3  502    0  0.18408330816E+02 -0.17104870444E+02 -0.15028381067E+03  0.15244263507E+03  0.47000000000E+01 0. -1.
         -5    1    3    3    0  502 -0.65575309281E+01 -0.22121587612E+01  0.24766359506E+02  0.26141105972E+02  0.47000000000E+01 0. -1.
        -11    1    4    4    0    0 -0.36761266141E+02  0.15513427997E+02  0.20288711084E+02  0.44762584085E+02  0.00000000000E+00 0. -1.
         11    1    4    4    0    0  0.24910466253E+02  0.38036012081E+01 -0.43731570660E+02  0.50472259544E+02  0.00000000000E+00 0.  1.
<mgrwt>
<rscale>  0 0.11728554E+03</rscale>
<asrwt>0</asrwt>
<pdfrwt beam="1">  1        2 0.96044826E-02 0.12703355E+03</pdfrwt>
<pdfrwt beam="2">  1       -2 0.32521454E-01 0.12703355E+03</pdfrwt>
<totfact> 0.56076782E+03</totfact>
</mgrwt>
</event>
<event>
 8    1  0.8504141E-006  0.1207267E+03  0.7546771E-02  0.1249993E+00
          1   -1    0    0  501    0  0.00000000000E+00  0.00000000000E+00  0.14345117642E+03  0.14345117642E+03  0.00000000000E+00 0. -1.
         -1   -1    0    0    0  501 -0.00000000000E+00 -0.00000000000E+00 -0.97774956113E+02  0.97774956113E+02  0.00000000000E+00 0.  1.
         23    2    1    2    0    0 -0.19659358626E+02  0.33225929066E+02 -0.15587386544E+02  0.12172885503E+03  0.11438747652E+03 0.  0.
         23    2    1    2    0    0  0.19659358626E+02 -0.33225929066E+02  0.61263606854E+02  0.11949727750E+03  0.95057440854E+02 0.  0.
          5    1    3    3  502    0 -0.64391823764E+02  0.28985609308E+02  0.71866835052E+01  0.71135159622E+02  0.47000000000E+01 0. -1.
         -5    1    3    3    0  502  0.44732465137E+02  0.42403197576E+01 -0.22774070049E+02  0.50593695412E+02  0.47000000000E+01 0.  1.
        -11    1    4    4    0    0 -0.33395491122E+02 -0.36241794864E+02  0.32972449301E+02  0.59295100431E+02  0.00000000000E+00 0. -1.
         11    1    4    4    0    0  0.53054849749E+02  0.30158657978E+01  0.28291157553E+02  0.60202177071E+02  0.00000000000E+00 0.  1.
<mgrwt>
<rscale>  0 0.11591442E+03</rscale>
<asrwt>0</asrwt>
<pdfrwt beam="1">  1        1 0.22069412E-01 0.12072675E+03</pdfrwt>
<pdfrwt beam="2">  1       -1 0.15042301E-01 0.12072675E+03</pdfrwt>
<totfact> 0.67637417E+03</totfact>
</mgrwt>
</event>
<event>
 8    1  0.8504141E-006  0.1660633E+03  0.7546771E-02  0.1188819E+00
         -1   -1    0    0    0  501 -0.00000000000E+00  0.00000000000E+00  0.73092443159E+02  0.73092443159E+02  0.00000000000E+00 0.  1.
          1   -1    0    0  501    0  0.00000000000E+00 -0.00000000000E+00 -0.32931901928E+03  0.32931901928E+03  0.00000000000E+00 0. -1.
         23    2    1    2    0    0  0.70397520446E+02  0.83642660104E+02 -0.11792973360E+03  0.20367726581E+03  0.12500040426E+03 0.  0.
         23    2    1    2    0    0 -0.70397520446E+02 -0.83642660104E+02 -0.13829684252E+03  0.19873419663E+03  0.91746164964E+02 0.  0.
          5    1    3    3  502    0  0.12880002038E+02  0.46518486117E+02 -0.12559353119E+03  0.13463167934E+03  0.47000000000E+01 0. -1.
         -5    1    3    3    0  502  0.57517518409E+02  0.37124173986E+02  0.76637975895E+01  0.69045586474E+02  0.47000000000E+01 0. -1.
        -11    1    4    4    0    0 -0.56386927130E+02 -0.19206933967E+02 -0.19174402431E+02  0.62578347470E+02  0.00000000000E+00 0.  1.
         11    1    4    4    0    0 -0.14010593317E+02 -0.64435726137E+02 -0.11912244009E+03  0.13615584916E+03  0.00000000000E+00 0. -1.
<mgrwt>
<rscale>  0 0.15989213E+03</rscale>
<asrwt>0</asrwt>
<pdfrwt beam="2">  1        1 0.50664464E-01 0.16606326E+03</pdfrwt>
<pdfrwt beam="1">  1       -1 0.11244991E-01 0.16606326E+03</pdfrwt>
<totfact> 0.38467599E+03</totfact>
</mgrwt>
</event>
<event>
 8    1  0.8504141E-006  0.1862505E+03  0.7546771E-02  0.1166927E+00
          2   -1    0    0  501    0  0.00000000000E+00  0.00000000000E+00  0.90113196172E+03  0.90113196172E+03  0.00000000000E+00 0. -1.
         -2   -1    0    0    0  501 -0.00000000000E+00 -0.00000000000E+00 -0.34386377314E+02  0.34386377314E+02  0.00000000000E+00 0.  1.
         23    2    1    2    0    0 -0.84692094535E+02  0.10905155795E+03  0.46435246110E+03  0.50031237765E+03  0.12499709568E+03 0.  0.
         23    2    1    2    0    0  0.84692094535E+02 -0.10905155795E+03  0.40239312330E+03  0.43520596138E+03  0.91755163213E+02 0.  0.
          5    1    3    3  502    0 -0.47258483592E+02  0.13174433776E+03  0.31775797338E+03  0.34724941245E+03  0.47000000000E+01 0.  1.
         -5    1    3    3    0  502 -0.37433610943E+02 -0.22692779807E+02  0.14659448773E+03  0.15306296520E+03  0.47000000000E+01 0.  1.
        -11    1    4    4    0    0 -0.18760646194E+02 -0.58512416257E+01  0.46599749779E+02  0.50574060086E+02  0.00000000000E+00 0.  1.
         11    1    4    4    0    0  0.10345274073E+03 -0.10320031632E+03  0.35579337352E+03  0.38463190130E+03  0.00000000000E+00 0. -1.
<mgrwt>
<rscale>  0 0.18090817E+03</rscale>
<asrwt>0</asrwt>
<pdfrwt beam="1">  1        2 0.13863567E+00 0.18625055E+03</pdfrwt>
<pdfrwt beam="2">  1       -2 0.52902126E-02 0.18625055E+03</pdfrwt>
<totfact> 0.53656340E+03</totfact>
</mgrwt>
</event>
<event>
 8    1  0.8504141E-006  0.1304461E+03  0.7546771E-02  0.1240201E+00
          1   -1    0    0  501    0  0.00000000000E+00  0.00000000000E+00  0.28183228789E+03  0.28183228789E+03  0.00000000000E+00 0. -1.
         -1   -1    0    0    0  501 -0.00000000000E+00 -0.00000000000E+00 -0.56331666788E+02  0.56331666788E+02  0.00000000000E+00 0.  1.
         23    2    1    2    0    0 -0.30526287824E+02  0.21457504173E+02  0.56256239511E+02  0.14205969263E+03  0.12499565213E+03 0.  0.
         23    2    1    2    0    0  0.30526287824E+02 -0.21457504173E+02  0.16924438159E+03  0.19610426205E+03  0.91765691634E+02 0.  0.
          5    1    3    3  502    0 -0.44826558001E+02 -0.44150682605E+02  0.28970683986E+02  0.69426893977E+02  0.47000000000E+01 0.  1.
         -5    1    3    3    0  502  0.14300270178E+02  0.65608186778E+02  0.27285555525E+02  0.72632798650E+02  0.47000000000E+01 0.  1.
        -11    1    4    4    0    0  0.21865555386E+02 -0.45346015577E+02  0.39759417991E+02  0.64149629461E+02  0.00000000000E+00 0.  1.
         11    1    4    4    0    0  0.86607324372E+01  0.23888511404E+02  0.12948496360E+03  0.13195463259E+03  0.00000000000E+00 0. -1.
<mgrwt>
<rscale>  0 0.12177267E+03</rscale>
<asrwt>0</asrwt>
<pdfrwt beam="1">  1        1 0.43358813E-01 0.13044613E+03</pdfrwt>
<pdfrwt beam="2">  1       -1 0.86664105E-02 0.13044613E+03</pdfrwt>
<totfact> 0.68564119E+03</totfact>
</mgrwt>
</event>
<event>
 8    1  0.8504141E-006  0.1485028E+03  0.7546771E-02  0.1212614E+00
          1   -1    0    0  501    0  0.00000000000E+00  0.00000000000E+00  0.47539643513E+03  0.47539643513E+03  0.00000000000E+00 0. -1.
         -1   -1    0    0    0  501 -0.00000000000E+00 -0.00000000000E+00 -0.64699560626E+02  0.64699560626E+02  0.00000000000E+00 0.  1.
         23    2    1    2    0    0  0.26234323151E+02  0.75764438445E+02  0.44512174577E+02  0.15503036531E+03  0.12499836254E+03 0.  0.
         23    2    1    2    0    0 -0.26234323151E+02 -0.75764438445E+02  0.36618469993E+03  0.38506563045E+03  0.88067107638E+02 0.  0.
          5    1    3    3  502    0  0.49352125657E+02  0.67275108925E+02 -0.19904933025E+02  0.85906163611E+02  0.47000000000E+01 0. -1.
         -5    1    3    3    0  502 -0.23117802506E+02  0.84893295202E+01  0.64417107601E+02  0.69124201696E+02  0.47000000000E+01 0. -1.
        -11    1    4    4    0    0  0.96097817076E+01 -0.63570905135E+02  0.31445686408E+03  0.32096218975E+03  0.00000000000E+00 0. -1.
         11    1    4    4    0    0 -0.35844104859E+02 -0.12193533309E+02  0.51727835856E+02  0.64103440704E+02  0.00000000000E+00 0.  1.
<mgrwt>
<rscale>  0 0.14053257E+03</rscale>
<asrwt>0</asrwt>
<pdfrwt beam="1">  1        1 0.73137911E-01 0.14850280E+03</pdfrwt>
<pdfrwt beam="2">  1       -1 0.99537788E-02 0.14850280E+03</pdfrwt>
<totfact> 0.28990142E+03</totfact>
</mgrwt>
</event>
<event>
 8    1  0.8504141E-006  0.1431594E+03  0.7546771E-02  0.1219174E+00
          2   -1    0    0  501    0  0.00000000000E+00  0.00000000000E+00  0.34623640641E+03  0.34623640641E+03  0.00000000000E+00 0. -1.
         -2   -1    0    0    0  501 -0.00000000000E+00 -0.00000000000E+00 -0.48395239078E+02  0.48395239078E+02  0.00000000000E+00 0.  1.
         23    2    1    2    0    0 -0.87826512814E+01 -0.69231211831E+02  0.16653013536E+03  0.21960624129E+03  0.12499807828E+03 0.  0.
         23    2    1    2    0    0  0.87826512814E+01  0.69231211831E+02  0.13131103197E+03  0.17502540420E+03  0.92310396724E+02 0.  0.
          5    1    3    3  502    0 -0.60562254614E+02 -0.66529275344E+02  0.92687654362E+02  0.12925564759E+03  0.47000000000E+01 0.  1.
         -5    1    3    3    0  502  0.51779603333E+02 -0.27019364861E+01  0.73842480998E+02  0.90350593700E+02  0.47000000000E+01 0.  1.
        -11    1    4    4    0    0  0.69281204974E+01  0.18392122714E+02 -0.11948819251E+02  0.23000941569E+02  0.00000000000E+00 0.  1.
         11    1    4    4    0    0  0.18545307840E+01  0.50839089117E+02  0.14325985122E+03  0.15202446263E+03  0.00000000000E+00 0. -1.
<mgrwt>
<rscale>  0 0.13574310E+03</rscale>
<asrwt>0</asrwt>
<pdfrwt beam="1">  1        2 0.53267138E-01 0.14315940E+03</pdfrwt>
<pdfrwt beam="2">  1       -2 0.74454216E-02 0.14315940E+03</pdfrwt>
<totfact> 0.94251519E+03</totfact>
</mgrwt>
</event>
<event>
 8    1  0.8504141E-006  0.1288723E+03  0.7546771E-02  0.1244279E+00
          1   -1    0    0  501    0  0.00000000000E+00  0.00000000000E+00  0.25540540955E+02  0.25540540955E+02  0.00000000000E+00 0. -1.
         -1   -1    0    0    0  501 -0.00000000000E+00 -0.00000000000E+00 -0.96852582013E+03  0.96852582013E+03  0.00000000000E+00 0.  1.
         23    2    1    2    0    0  0.29234821706E+02  0.11351137659E+02 -0.85570466356E+03  0.86535457252E+03  0.12499816724E+03 0.  0.
         23    2    1    2    0    0 -0.29234821706E+02 -0.11351137659E+02 -0.87280615608E+02  0.12871178856E+03  0.89248504340E+02 0.  0.
          5    1    3    3  502    0 -0.48525794035E+02  0.14177203065E+02 -0.35784824055E+03  0.36143214998E+03  0.47000000000E+01 0.  1.
         -5    1    3    3    0  502  0.77760615741E+02 -0.28260654061E+01 -0.49785642302E+03  0.50392242255E+03  0.47000000000E+01 0.  1.
        -11    1    4    4    0    0 -0.27440585697E+02  0.23267760858E+02 -0.12942154154E+01  0.36000686552E+02  0.00000000000E+00 0. -1.
         11    1    4    4    0    0 -0.17942360097E+01 -0.34618898516E+02 -0.85986400193E+02  0.92711102007E+02  0.00000000000E+00 0.  1.
<mgrwt>
<rscale>  0 0.11928624E+03</rscale>
<asrwt>0</asrwt>
<pdfrwt beam="1">  1        1 0.39293136E-02 0.12887228E+03</pdfrwt>
<pdfrwt beam="2">  1       -1 0.14900399E+00 0.12887228E+03</pdfrwt>
<totfact> 0.88160874E+02</totfact>
</mgrwt>
</event>
<event>
 8    1  0.8504141E-006  0.1265601E+03  0.7546771E-02  0.1247865E+00
          1   -1    0    0  501    0  0.00000000000E+00  0.00000000000E+00  0.46140406946E+03  0.46140406946E+03  0.00000000000E+00 0.  1.
         -1   -1    0    0    0  501 -0.00000000000E+00 -0.00000000000E+00 -0.26108494587E+02  0.26108494587E+02  0.00000000000E+00 0. -1.
         23    2    1    2    0    0 -0.15855742943E+02  0.11929394546E+02  0.25442598973E+03  0.28416553969E+03  0.12499501855E+03 0.  0.
         23    2    1    2    0    0  0.15855742943E+02 -0.11929394546E+02  0.18086958515E+03  0.20334702436E+03  0.90788162465E+02 0.  0.
          5    1    3    3  502    0  0.29277163271E+02  0.39102665783E+01  0.47629268450E+01  0.30285606252E+02  0.47000000000E+01 0. -1.
         -5    1    3    3    0  502 -0.45132906215E+02  0.80191279680E+01  0.24966306288E+03  0.25387993344E+03  0.47000000000E+01 0. -1.
        -11    1    4    4    0    0  0.88915161337E+01  0.39386380659E+02  0.66483161054E+02  0.77784039136E+02  0.00000000000E+00 0.  1.
         11    1    4    4    0    0  0.69642268098E+01 -0.51315775206E+02  0.11438642410E+03  0.12556298522E+03  0.00000000000E+00 0. -1.
<mgrwt>
<rscale>  0 0.11715561E+03</rscale>
<asrwt>0</asrwt>
<pdfrwt beam="1">  1        1 0.70985235E-01 0.12656014E+03</pdfrwt>
<pdfrwt beam="2">  1       -1 0.40166918E-02 0.12656014E+03</pdfrwt>
<totfact> 0.11590179E+04</totfact>
</mgrwt>
</event>
<event>
 8    1  0.8504141E-006  0.1311933E+03  0.7546771E-02  0.1237578E+00
          2   -1    0    0  501    0  0.00000000000E+00  0.00000000000E+00  0.97145295208E+02  0.97145295208E+02  0.00000000000E+00 0. -1.
         -2   -1    0    0    0  501 -0.00000000000E+00 -0.00000000000E+00 -0.15732887266E+03  0.15732887266E+03  0.00000000000E+00 0.  1.
         23    2    1    2    0    0 -0.12018199147E+02  0.43911632188E+02 -0.74330875587E+02  0.15078712682E+03  0.12304068431E+03 0.  0.
         23    2    1    2    0    0  0.12018199147E+02 -0.43911632188E+02  0.14147298140E+02  0.10368704105E+03  0.92077075780E+02 0.  0.
          5    1    3    3  502    0  0.31498323232E+01  0.28196746127E+02  0.31482760514E+02  0.42640733406E+02  0.47000000000E+01 0. -1.
         -5    1    3    3    0  502 -0.15168031470E+02  0.15714886062E+02 -0.10581363610E+03  0.10814639341E+03  0.47000000000E+01 0.  1.
        -11    1    4    4    0    0  0.42663848069E+02 -0.51751328714E+02  0.22889992597E+02  0.70868580604E+02  0.00000000000E+00 0. -1.
         11    1    4    4    0    0 -0.30645648922E+02  0.78396965261E+01 -0.87426944567E+01  0.32818460443E+02  0.00000000000E+00 0.  1.
<mgrwt>
<rscale>  0 0.12340839E+03</rscale>
<asrwt>0</asrwt>
<pdfrwt beam="1">  1        2 0.14945430E-01 0.13119329E+03</pdfrwt>
<pdfrwt beam="2">  1       -2 0.24204442E-01 0.13119329E+03</pdfrwt>
<totfact> 0.55882422E+03</totfact>
</mgrwt>
</event>
<event>
 8    1  0.8504141E-006  0.1707845E+03  0.7546771E-02  0.1183307E+00
          1   -1    0    0  501    0  0.00000000000E+00  0.00000000000E+00  0.64508688993E+03  0.64508688993E+03  0.00000000000E+00 0. -1.
         -1   -1    0    0    0  501 -0.00000000000E+00 -0.00000000000E+00 -0.46317368596E+02  0.46317368596E+02  0.00000000000E+00 0.  1.
         23    2    1    2    0    0 -0.11245178664E+03  0.29974293728E+02  0.18463506443E+03  0.25151031885E+03  0.12499388333E+03 0.  0.
         23    2    1    2    0    0  0.11245178664E+03 -0.29974293728E+02  0.41413445691E+03  0.43989393967E+03  0.91953614173E+02 0.  0.
          5    1    3    3  502    0 -0.10690950647E+03  0.54115714927E+02  0.19098487596E+03  0.22551156516E+03  0.47000000000E+01 0.  1.
         -5    1    3    3    0  502 -0.55422801788E+01 -0.24141421199E+02 -0.63498115345E+01  0.25998753693E+02  0.47000000000E+01 0.  1.
        -11    1    4    4    0    0  0.11103444494E+03 -0.50673585503E+02  0.29979575051E+03  0.32368804775E+03  0.00000000000E+00 0.  1.
         11    1    4    4    0    0  0.14173417007E+01  0.20699291775E+02  0.11433870639E+03  0.11620589192E+03  0.00000000000E+00 0. -1.
<mgrwt>
<rscale>  0 0.16486841E+03</rscale>
<asrwt>0</asrwt>
<pdfrwt beam="1">  1        1 0.99244131E-01 0.17078446E+03</pdfrwt>
<pdfrwt beam="2">  1       -1 0.71257495E-02 0.17078446E+03</pdfrwt>
<totfact> 0.32113545E+03</totfact>
</mgrwt>
</event>
<event>
 8    1  0.8504141E-006  0.1538398E+03  0.7546771E-02  0.1204369E+00
          2   -1    0    0  501    0  0.00000000000E+00  0.00000000000E+00  0.36250583278E+03  0.36250583278E+03  0.00000000000E+00 0. -1.
         -2   -1    0    0    0  501 -0.00000000000E+00 -0.00000000000E+00 -0.54742545691E+02  0.54742545691E+02  0.00000000000E+00 0.  1.
         23    2    1    2    0    0  0.72299492481E+02 -0.53034262519E+02  0.17342224406E+03  0.23182313726E+03  0.12500737026E+03 0.  0.
         23    2    1    2    0    0 -0.72299492481E+02  0.53034262519E+02  0.13434104303E+03  0.18542524122E+03  0.91077739451E+02 0.  0.
          5    1    3    3  502    0  0.96989771053E+02 -0.64749333580E+01  0.87252438937E+02  0.13070584743E+03  0.47000000000E+01 0.  1.
         -5    1    3    3    0  502 -0.24690278572E+02 -0.46559329161E+02  0.86169805121E+02  0.10111728983E+03  0.47000000000E+01 0.  1.
        -11    1    4    4    0    0 -0.44516702947E+02  0.16363997627E+02  0.44618783791E+01  0.47638488833E+02  0.00000000000E+00 0.  1.
         11    1    4    4    0    0 -0.27782789533E+02  0.36670264892E+02  0.12987916465E+03  0.13778675238E+03  0.00000000000E+00 0. -1.
<mgrwt>
<rscale>  0 0.14687284E+03</rscale>
<asrwt>0</asrwt>
<pdfrwt beam="1">  1        2 0.55770127E-01 0.15383983E+03</pdfrwt>
<pdfrwt beam="2">  1       -2 0.84219303E-02 0.15383983E+03</pdfrwt>
<totfact> 0.74530044E+03</totfact>
</mgrwt>
</event>
<event>
 8    1  0.8504141E-006  0.1444574E+03  0.7546771E-02  0.1220015E+00
         -1   -1    0    0    0  501 -0.00000000000E+00  0.00000000000E+00  0.47910544271E+03  0.47910544271E+03  0.00000000000E+00 0.  1.
          1   -1    0    0  501    0  0.00000000000E+00 -0.00000000000E+00 -0.46404839655E+02  0.46404839655E+02  0.00000000000E+00 0. -1.
         23    2    1    2    0    0 -0.72400803611E+02 -0.13608049131E+01  0.37251392844E+03  0.39954293879E+03  0.12499681955E+03 0.  0.
         23    2    1    2    0    0  0.72400803611E+02  0.13608049131E+01  0.60186674611E+02  0.12596734358E+03  0.83675609906E+02 0.  0.
          5    1    3    3  502    0  0.28810987906E+02  0.21072746053E+02  0.57165254515E+02  0.67558048921E+02  0.47000000000E+01 0.  1.
         -5    1    3    3    0  502 -0.10121179152E+03 -0.22433550966E+02  0.31534867393E+03  0.33198488986E+03  0.47000000000E+01 0.  1.
        -11    1    4    4    0    0  0.81130834268E+02  0.21428245908E+02  0.30930683039E+02  0.89432036458E+02  0.00000000000E+00 0. -1.
         11    1    4    4    0    0 -0.87300306565E+01 -0.20067440995E+02  0.29255991572E+02  0.36535307118E+02  0.00000000000E+00 0.  1.
<mgrwt>
<rscale>  0 0.13514536E+03</rscale>
<asrwt>0</asrwt>
<pdfrwt beam="2">  1        1 0.71392065E-02 0.14445737E+03</pdfrwt>
<pdfrwt beam="1">  1       -1 0.73708526E-01 0.14445737E+03</pdfrwt>
<totfact> 0.19142236E+03</totfact>
</mgrwt>
</event>
<event>
 8    1  0.8504141E-006  0.1519136E+03  0.7546771E-02  0.1206898E+00
          2   -1    0    0  501    0  0.00000000000E+00  0.00000000000E+00  0.88950417801E+02  0.88950417801E+02  0.00000000000E+00 0. -1.
         -2   -1    0    0    0  501 -0.00000000000E+00 -0.00000000000E+00 -0.23704740654E+03  0.23704740654E+03  0.00000000000E+00 0.  1.
         23    2    1    2    0    0  0.73680214052E+02 -0.44970468032E+02 -0.12809675782E+03  0.19871218493E+03  0.12500654438E+03 0.  0.
         23    2    1    2    0    0 -0.73680214052E+02  0.44970468032E+02 -0.20000230923E+02  0.12728563941E+03  0.91381113070E+02 0.  0.
          5    1    3    3  502    0 -0.21493579977E+02  0.22331371028E+02 -0.47522584774E+02  0.56931100252E+02  0.47000000000E+01 0. -1.
         -5    1    3    3    0  502  0.95173794029E+02 -0.67301839060E+02 -0.80574173044E+02  0.14178108468E+03  0.47000000000E+01 0. -1.
        -11    1    4    4    0    0 -0.61415658008E+02  0.72199328764E+02 -0.22163174119E+02  0.97343887377E+02  0.00000000000E+00 0.  1.
         11    1    4    4    0    0 -0.12264556044E+02 -0.27228860732E+02  0.21629431960E+01  0.29941752036E+02  0.00000000000E+00 0. -1.
<mgrwt>
<rscale>  0 0.14488896E+03</rscale>
<asrwt>0</asrwt>
<pdfrwt beam="1">  1        2 0.13684680E-01 0.15191364E+03</pdfrwt>
<pdfrwt beam="2">  1       -2 0.36468831E-01 0.15191364E+03</pdfrwt>
<totfact> 0.29938494E+03</totfact>
</mgrwt>
</event>
<event>
 8    1  0.8504141E-006  0.1252302E+03  0.7546771E-02  0.1249936E+00
         -1   -1    0    0    0  501 -0.00000000000E+00  0.00000000000E+00  0.14675176997E+03  0.14675176997E+03  0.00000000000E+00 0.  1.
          1   -1    0    0  501    0  0.00000000000E+00 -0.00000000000E+00 -0.94093630791E+02  0.94093630791E+02  0.00000000000E+00 0. -1.
         23    2    1    2    0    0  0.66141638194E+01 -0.31391175136E+01  0.75230406341E+02  0.14608975440E+03  0.12501600330E+03 0.  0.
         23    2    1    2    0    0 -0.66141638194E+01  0.31391175136E+01 -0.22572267156E+02  0.94755646368E+02  0.91736165454E+02 0.  0.
          5    1    3    3  502    0 -0.23293470394E+02  0.71245763263E+01 -0.28359913216E+02  0.37679172343E+02  0.47000000000E+01 0. -1.
         -5    1    3    3    0  502  0.29907634213E+02 -0.10263693840E+02  0.10359031956E+03  0.10841058205E+03  0.47000000000E+01 0. -1.
        -11    1    4    4    0    0  0.66669558303E+01  0.41517483685E+02 -0.32267221707E+02  0.53003050367E+02  0.00000000000E+00 0. -1.
         11    1    4    4    0    0 -0.13281119650E+02 -0.38378366171E+02  0.96949545503E+01  0.41752596001E+02  0.00000000000E+00 0.  1.
<mgrwt>
<rscale>  0 0.11594756E+03</rscale>
<asrwt>0</asrwt>
<pdfrwt beam="2">  1        1 0.14475943E-01 0.12523020E+03</pdfrwt>
<pdfrwt beam="1">  1       -1 0.22577195E-01 0.12523020E+03</pdfrwt>
<totfact> 0.60905804E+03</totfact>
</mgrwt>
</event>
<event>
 8    1  0.8504141E-006  0.4332742E+03  0.7546771E-02  0.1033447E+00
         -2   -1    0    0    0  501 -0.00000000000E+00  0.00000000000E+00  0.51154447481E+03  0.51154447481E+03  0.00000000000E+00 0.  1.
          2   -1    0    0  501    0  0.00000000000E+00 -0.00000000000E+00 -0.79126092461E+03  0.79126092461E+03  0.00000000000E+00 0. -1.
         23    2    1    2    0    0  0.31125853545E+02 -0.41368252600E+03  0.34023513511E+03  0.55089607059E+03  0.12499792940E+03 0.  0.
         23    2    1    2    0    0 -0.31125853545E+02  0.41368252600E+03 -0.61995158491E+03  0.75190932883E+03  0.94475499805E+02 0.  0.
          5    1    3    3  502    0 -0.27505373010E+02 -0.19192447361E+03  0.98138212677E+02  0.21735856988E+03  0.47000000000E+01 0. -1.
         -5    1    3    3    0  502  0.58631226555E+02 -0.22175805239E+03  0.24209692244E+03  0.33353750071E+03  0.47000000000E+01 0. -1.
        -11    1    4    4    0    0 -0.49583976544E+02  0.10385742653E+03 -0.16515634751E+03  0.20129966443E+03  0.00000000000E+00 0.  1.
         11    1    4    4    0    0  0.18458122999E+02  0.30982509947E+03 -0.45479523740E+03  0.55060966440E+03  0.00000000000E+00 0. -1.
<mgrwt>
<rscale>  0 0.43131071E+03</rscale>
<asrwt>0</asrwt>
<pdfrwt beam="2">  1        2 0.12173245E+00 0.43327420E+03</pdfrwt>
<pdfrwt beam="1">  1       -2 0.78699151E-01 0.43327420E+03</pdfrwt>
<totfact> 0.52467750E+01</totfact>
</mgrwt>
</event>
<event>
 8    1  0.8504141E-006  0.2035767E+03  0.7546771E-02  0.1150936E+00
         -3   -1    0    0    0  501 -0.00000000000E+00  0.00000000000E+00  0.31113033088E+03  0.31113033088E+03  0.00000000000E+00 0.  1.
          3   -1    0    0  501    0  0.00000000000E+00 -0.00000000000E+00 -0.13232674344E+03  0.13232674344E+03  0.00000000000E+00 0. -1.
         23    2    1    2    0    0  0.53859883247E+02 -0.15138886624E+03  0.15849295096E+03  0.25799901662E+03  0.12499600485E+03 0.  0.
         23    2    1    2    0    0 -0.53859883247E+02  0.15138886624E+03  0.20310636487E+02  0.18545805770E+03  0.90347625116E+02 0.  0.
          5    1    3    3  502    0 -0.27531874372E+02 -0.62356736970E+02  0.14057756351E+02  0.69757273926E+02  0.47000000000E+01 0. -1.
         -5    1    3    3    0  502  0.81391757619E+02 -0.89032129274E+02  0.14443519461E+03  0.18824174269E+03  0.47000000000E+01 0. -1.
        -11    1    4    4    0    0 -0.78795554537E+02  0.10121775213E+03  0.16000982389E+02  0.12926640785E+03  0.00000000000E+00 0. -1.
         11    1    4    4    0    0  0.24935671290E+02  0.50171114110E+02  0.43096540983E+01  0.56191649844E+02  0.00000000000E+00 0.  1.
<mgrwt>
<rscale>  0 0.19858775E+03</rscale>
<asrwt>0</asrwt>
<pdfrwt beam="2">  1        3 0.20357961E-01 0.20357671E+03</pdfrwt>
<pdfrwt beam="1">  1       -3 0.47866204E-01 0.20357671E+03</pdfrwt>
<totfact> 0.23196421E+02</totfact>
</mgrwt>
</event>
<event>
 8    1  0.8504141E-006  0.1402410E+03  0.7546771E-02  0.1223738E+00
         -1   -1    0    0    0  501 -0.00000000000E+00  0.00000000000E+00  0.86088299238E+02  0.86088299238E+02  0.00000000000E+00 0.  1.
          1   -1    0    0  501    0  0.00000000000E+00 -0.00000000000E+00 -0.18534711888E+03  0.18534711888E+03  0.00000000000E+00 0. -1.
         23    2    1    2    0    0  0.63404140038E+02 -0.47949318231E+01 -0.63836428467E+02  0.15408645508E+03  0.12499787876E+03 0.  0.
         23    2    1    2    0    0 -0.63404140038E+02  0.47949318231E+01 -0.35422391171E+02  0.11734896304E+03  0.92048666392E+02 0.  0.
          5    1    3    3  502    0  0.42910691118E+02 -0.34308680722E+02  0.23188681239E+02  0.59818207284E+02  0.47000000000E+01 0.  1.
         -5    1    3    3    0  502  0.20493448920E+02  0.29513748899E+02 -0.87025109706E+02  0.94268247793E+02  0.47000000000E+01 0.  1.
        -11    1    4    4    0    0  0.78456021948E-01 -0.31377053825E+02  0.79658722485E+01  0.32372531300E+02  0.00000000000E+00 0.  1.
         11    1    4    4    0    0 -0.63482596060E+02  0.36171985648E+02 -0.43388263419E+02  0.84976431737E+02  0.00000000000E+00 0. -1.
<mgrwt>
<rscale>  0 0.13253777E+03</rscale>
<asrwt>0</asrwt>
<pdfrwt beam="2">  1        1 0.28514941E-01 0.14024103E+03</pdfrwt>
<pdfrwt beam="1">  1       -1 0.13244354E-01 0.14024103E+03</pdfrwt>
<totfact> 0.60443878E+03</totfact>
</mgrwt>
</event>
<event>
 8    1  0.8504141E-006  0.2135445E+03  0.7546771E-02  0.1141893E+00
         -2   -1    0    0    0  501 -0.00000000000E+00  0.00000000000E+00  0.29085962312E+03  0.29085962312E+03  0.00000000000E+00 0.  1.
          2   -1    0    0  501    0  0.00000000000E+00 -0.00000000000E+00 -0.14698939428E+03  0.14698939428E+03  0.00000000000E+00 0. -1.
         23    2    1    2    0    0  0.21003221808E+02  0.17841034284E+03  0.95210070685E+02  0.23380803732E+03  0.11545499121E+03 0.  0.
         23    2    1    2    0    0 -0.21003221808E+02 -0.17841034284E+03  0.48660158164E+02  0.20404098008E+03  0.83627296983E+02 0.  0.
          5    1    3    3  502    0  0.13418445916E+02  0.18725846172E+03  0.61147749182E+02  0.19750170482E+03  0.47000000000E+01 0. -1.
         -5    1    3    3    0  502  0.75847758919E+01 -0.88481188818E+01  0.34062321503E+02  0.36306332495E+02  0.47000000000E+01 0.  1.
        -11    1    4    4    0    0  0.27937469381E+02 -0.45291915263E+02  0.29720380458E+02  0.60952118898E+02  0.00000000000E+00 0. -1.
         11    1    4    4    0    0 -0.48940691189E+02 -0.13311842758E+03  0.18939777706E+02  0.14308886118E+03  0.00000000000E+00 0.  1.
<mgrwt>
<rscale>  0 0.20958820E+03</rscale>
<asrwt>0</asrwt>
<pdfrwt beam="2">  1        2 0.22613753E-01 0.21354447E+03</pdfrwt>
<pdfrwt beam="1">  1       -2 0.44747634E-01 0.21354447E+03</pdfrwt>
<totfact> 0.11481275E+03</totfact>
</mgrwt>
</event>
<event>
 7    1  0.8504141E-006  0.1470920E+03  0.7546771E-02  0.1214557E+00
          2   -1    0    0  501    0  0.00000000000E+00  0.00000000000E+00  0.42009289022E+03  0.42009289022E+03  0.00000000000E+00 0. -1.
         -2   -1    0    0    0  501 -0.00000000000E+00 -0.00000000000E+00 -0.59724200802E+02  0.59724200802E+02  0.00000000000E+00 0.  1.
         23    2    1    2    0    0 -0.69114618116E+02 -0.15103376313E+02  0.29740838769E+03  0.31981694419E+03  0.93947785019E+02 0.  0.
          5    1    1    2  502    0 -0.32814829463E+02 -0.45584951580E+01  0.42497153519E+02  0.54089656756E+02  0.47000000000E+01 0. -1.
         -5    1    1    2    0  502  0.10192944758E+03  0.19661871471E+02  0.20463148211E+02  0.10591049008E+03  0.47000000000E+01 0.  1.
        -11    1    3    3    0    0 -0.39567380640E+02 -0.54323531718E+02  0.19472659120E+03  0.20599774035E+03  0.00000000000E+00 0.  1.
         11    1    3    3    0    0 -0.29547237476E+02  0.39220155405E+02  0.10268179648E+03  0.11381920384E+03  0.00000000000E+00 0. -1.
<mgrwt>
<rscale>  0 0.13909097E+03</rscale>
<asrwt>0</asrwt>
<pdfrwt beam="1">  1        2 0.64629674E-01 0.14709197E+03</pdfrwt>
<pdfrwt beam="2">  1       -2 0.91883388E-02 0.14709197E+03</pdfrwt>
<totfact> 0.55413113E+03</totfact>
</mgrwt>
</event>
<event>
 8    1  0.8504141E-006  0.1535184E+03  0.7546771E-02  0.1204024E+00
          1   -1    0    0  501    0  0.00000000000E+00  0.00000000000E+00  0.13592205162E+03  0.13592205162E+03  0.00000000000E+00 0. -1.
         -1   -1    0    0    0  501 -0.00000000000E+00 -0.00000000000E+00 -0.16743454271E+03  0.16743454271E+03  0.00000000000E+00 0.  1.
         23    2    1    2    0    0 -0.43185219036E+02  0.77963828715E+02 -0.69226478418E+02  0.16840485714E+03  0.12499827545E+03 0.  0.
         23    2    1    2    0    0  0.43185219036E+02 -0.77963828715E+02  0.37713987320E+02  0.13495173718E+03  0.94054796786E+02 0.  0.
          5    1    3    3  502    0 -0.55913718466E+02  0.10715975941E+03 -0.49863581572E+02  0.13083586938E+03  0.47000000000E+01 0. -1.
         -5    1    3    3    0  502  0.12728499430E+02 -0.29195930698E+02 -0.19362896846E+02  0.37568987760E+02  0.47000000000E+01 0. -1.
        -11    1    4    4    0    0  0.72550017635E+02 -0.48873999342E+02  0.18695699064E+02  0.89452233254E+02  0.00000000000E+00 0.  1.
         11    1    4    4    0    0 -0.29364798600E+02 -0.29089829373E+02  0.19018288257E+02  0.45499503931E+02  0.00000000000E+00 0. -1.
<mgrwt>
<rscale>  0 0.14714666E+03</rscale>
<asrwt>0</asrwt>
<pdfrwt beam="1">  1        1 0.20911085E-01 0.15351837E+03</pdfrwt>
<pdfrwt beam="2">  1       -1 0.25759160E-01 0.15351837E+03</pdfrwt>
<totfact> 0.30988138E+03</totfact>
</mgrwt>
</event>
<event>
 8    1  0.8504141E-006  0.1466812E+03  0.7546771E-02  0.1214291E+00
          2   -1    0    0  501    0  0.00000000000E+00  0.00000000000E+00  0.37131398057E+03  0.37131398057E+03  0.00000000000E+00 0. -1.
         -2   -1    0    0    0  501 -0.00000000000E+00 -0.00000000000E+00 -0.50993297664E+02  0.50993297664E+02  0.00000000000E+00 0.  1.
         23    2    1    2    0    0  0.76348614265E+02 -0.77248924329E+01  0.12154782632E+03  0.19049735995E+03  0.12500634064E+03 0.  0.
         23    2    1    2    0    0 -0.76348614265E+02  0.77248924329E+01  0.19877285659E+03  0.23180991828E+03  0.91303914684E+02 0.  0.
          5    1    3    3  502    0  0.68941325121E+02 -0.61271333915E+02  0.79337208251E+02  0.12175206480E+03  0.47000000000E+01 0.  1.
         -5    1    3    3    0  502  0.74072891447E+01  0.53546441482E+02  0.42210618071E+02  0.68745295154E+02  0.47000000000E+01 0.  1.
        -11    1    4    4    0    0 -0.74417223809E+02  0.34732370850E+02  0.10003419009E+03  0.12942604054E+03  0.00000000000E+00 0. -1.
         11    1    4    4    0    0 -0.19313904566E+01 -0.27007478417E+02  0.98738666499E+02  0.10238387774E+03  0.00000000000E+00 0.  1.
<mgrwt>
<rscale>  0 0.13928780E+03</rscale>
<asrwt>0</asrwt>
<pdfrwt beam="1">  1        2 0.57125226E-01 0.14668119E+03</pdfrwt>
<pdfrwt beam="2">  1       -2 0.78451230E-02 0.14668119E+03</pdfrwt>
<totfact> 0.80837467E+03</totfact>
</mgrwt>
</event>
<event>
 7    1  0.8504141E-006  0.1863283E+03  0.7546771E-02  0.1189077E+00
         -2   -1    0    0    0  501 -0.00000000000E+00  0.00000000000E+00  0.58332769252E+02  0.58332769252E+02  0.00000000000E+00 0.  1.
          2   -1    0    0  501    0  0.00000000000E+00 -0.00000000000E+00 -0.36454140584E+03  0.36454140584E+03  0.00000000000E+00 0. -1.
         23    2    1    2    0    0  0.41762615695E+01 -0.40409807165E+02 -0.14551846349E+03  0.17682628403E+03  0.91877733055E+02 0.  0.
          5    1    1    2  502    0 -0.86699959726E+02 -0.98082613888E+01 -0.95328926990E+02  0.12931658567E+03  0.47000000000E+01 0. -1.
         -5    1    1    2    0  502  0.82523698156E+02  0.50218068554E+02 -0.65361246116E+02  0.11673130540E+03  0.47000000000E+01 0.  1.
        -11    1    3    3    0    0 -0.23642140634E+01 -0.56274632214E+02 -0.14902304349E+03  0.15931193059E+03  0.00000000000E+00 0. -1.
         11    1    3    3    0    0  0.65404756328E+01  0.15864825049E+02  0.35045799976E+01  0.17514353437E+02  0.00000000000E+00 0.  1.
<mgrwt>
<rscale>  0 0.15966355E+03</rscale>
<asrwt>0</asrwt>
<pdfrwt beam="2">  1        2 0.56083294E-01 0.18632829E+03</pdfrwt>
<pdfrwt beam="1">  1       -2 0.89742721E-02 0.18632829E+03</pdfrwt>
<totfact> 0.67850809E+03</totfact>
</mgrwt>
</event>
<event>
 7    1  0.8504141E-006  0.1932569E+03  0.7546771E-02  0.1174554E+00
         -1   -1    0    0    0  501 -0.00000000000E+00  0.00000000000E+00  0.63760539380E+02  0.63760539380E+02  0.00000000000E+00 0.  1.
          1   -1    0    0  501    0  0.00000000000E+00 -0.00000000000E+00 -0.40632322695E+03  0.40632322695E+03  0.00000000000E+00 0. -1.
         23    2    1    2    0    0  0.47014618254E+02  0.66334598262E+02 -0.17127698798E+03  0.21184547552E+03  0.94509500206E+02 0.  0.
          5    1    1    2  502    0  0.61365752493E+02 -0.27996303517E+02 -0.24912592288E+02  0.72057448221E+02  0.47000000000E+01 0.  1.
         -5    1    1    2    0  502 -0.10838037075E+03 -0.38338294746E+02 -0.14637310730E+03  0.18618084259E+03  0.47000000000E+01 0. -1.
        -11    1    3    3    0    0  0.86485553414E+01 -0.12767808854E+02  0.38458547461E+01  0.15893553761E+02  0.00000000000E+00 0.  1.
         11    1    3    3    0    0  0.38366062912E+02  0.79102407117E+02 -0.17512284273E+03  0.19595192176E+03  0.00000000000E+00 0. -1.
<mgrwt>
<rscale>  0 0.17319767E+03</rscale>
<asrwt>0</asrwt>
<pdfrwt beam="2">  1        1 0.62511265E-01 0.19325689E+03</pdfrwt>
<pdfrwt beam="1">  1       -1 0.98093139E-02 0.19325689E+03</pdfrwt>
<totfact> 0.36651084E+03</totfact>
</mgrwt>
</event>
<event>
 8    1  0.8504141E-006  0.1344792E+03  0.7546771E-02  0.1234352E+00
          3   -1    0    0  501    0  0.00000000000E+00  0.00000000000E+00  0.49066565632E+02  0.49066565632E+02  0.00000000000E+00 0. -1.
         -3   -1    0    0    0  501 -0.00000000000E+00 -0.00000000000E+00 -0.53322885575E+03  0.53322885575E+03  0.00000000000E+00 0.  1.
         23    2    1    2    0    0 -0.39499621949E+02 -0.30005743162E+02 -0.45769181679E+03  0.47703926523E+03  0.12499638656E+03 0.  0.
         23    2    1    2    0    0  0.39499621949E+02  0.30005743162E+02 -0.26470473322E+02  0.10525615615E+03  0.88980940057E+02 0.  0.
          5    1    3    3  502    0 -0.29531643769E+02 -0.75076280802E+02 -0.35902211264E+03  0.36800480063E+03  0.47000000000E+01 0.  1.
         -5    1    3    3    0  502 -0.99679781799E+01  0.45070537640E+02 -0.98669704149E+02  0.10903446459E+03  0.47000000000E+01 0.  1.
        -11    1    4    4    0    0 -0.14010680182E+02 -0.12683010849E+02 -0.31376594699E+02  0.36628521923E+02  0.00000000000E+00 0.  1.
         11    1    4    4    0    0  0.53510302131E+02  0.42688754010E+02  0.49061213762E+01  0.68627634230E+02  0.00000000000E+00 0. -1.
<mgrwt>
<rscale>  0 0.12546035E+03</rscale>
<asrwt>0</asrwt>
<pdfrwt beam="1">  1        3 0.75487023E-02 0.13447922E+03</pdfrwt>
<pdfrwt beam="2">  1       -3 0.82035209E-01 0.13447922E+03</pdfrwt>
<totfact> 0.38429411E+02</totfact>
</mgrwt>
</event>
<event>
 8    1  0.8504141E-006  0.2451386E+03  0.7546771E-02  0.1119019E+00
          1   -1    0    0  501    0  0.00000000000E+00  0.00000000000E+00  0.56637519553E+02  0.56637519553E+02  0.00000000000E+00 0. -1.
         -1   -1    0    0    0  501 -0.00000000000E+00 -0.00000000000E+00 -0.99734547727E+03  0.99734547727E+03  0.00000000000E+00 0.  1.
         23    2    1    2    0    0  0.89396719127E+02  0.19099009013E+03 -0.45985103492E+03  0.52111027295E+03  0.12499581728E+03 0.  0.
         23    2    1    2    0    0 -0.89396719127E+02 -0.19099009013E+03 -0.48085692280E+03  0.53287272388E+03  0.90889887945E+02 0.  0.
          5    1    3    3  502    0  0.62689913353E+02  0.20432487778E+03 -0.41794550943E+03  0.46944565156E+03  0.47000000000E+01 0. -1.
         -5    1    3    3    0  502  0.26706805774E+02 -0.13334787656E+02 -0.41905525493E+02  0.51664621390E+02  0.47000000000E+01 0. -1.
        -11    1    4    4    0    0 -0.10547598347E+03 -0.18393592288E+03 -0.44138871550E+03  0.48967499935E+03  0.00000000000E+00 0.  1.
         11    1    4    4    0    0  0.16079264340E+02 -0.70541672514E+01 -0.39468207296E+02  0.43197724529E+02  0.00000000000E+00 0. -1.
<mgrwt>
<rscale>  0 0.24116594E+03</rscale>
<asrwt>0</asrwt>
<pdfrwt beam="1">  1        1 0.87134652E-02 0.24513862E+03</pdfrwt>
<pdfrwt beam="2">  1       -1 0.15343775E+00 0.24513862E+03</pdfrwt>
<totfact> 0.27610071E+02</totfact>
</mgrwt>
</event>
<event>
 8    1  0.8504141E-006  0.1368969E+03  0.7546771E-02  0.1229837E+00
          2   -1    0    0  501    0  0.00000000000E+00  0.00000000000E+00  0.33852744719E+03  0.33852744719E+03  0.00000000000E+00 0. -1.
         -2   -1    0    0    0  501 -0.00000000000E+00 -0.00000000000E+00 -0.43563842614E+02  0.43563842614E+02  0.00000000000E+00 0.  1.
         23    2    1    2    0    0 -0.45160182231E+02  0.32809998426E+02  0.16792581413E+03  0.21665606104E+03  0.12499932672E+03 0.  0.
         23    2    1    2    0    0  0.45160182231E+02 -0.32809998426E+02  0.12703779045E+03  0.16543522876E+03  0.90079279841E+02 0.  0.
          5    1    3    3  502    0 -0.87005334480E+02  0.23459513298E+02  0.13504951313E+03  0.16242148253E+03  0.47000000000E+01 0.  1.
         -5    1    3    3    0  502  0.41845152249E+02  0.93504851285E+01  0.32876300998E+02  0.54234578510E+02  0.47000000000E+01 0.  1.
        -11    1    4    4    0    0  0.29159379632E+02 -0.20977249732E+02  0.13808028548E+03  0.14267613558E+03  0.00000000000E+00 0. -1.
         11    1    4    4    0    0  0.16000802598E+02 -0.11832748694E+02 -0.11042495035E+02  0.22759093173E+02  0.00000000000E+00 0.  1.
<mgrwt>
<rscale>  0 0.12840851E+03</rscale>
<asrwt>0</asrwt>
<pdfrwt beam="1">  1        2 0.52081144E-01 0.13689693E+03</pdfrwt>
<pdfrwt beam="2">  1       -2 0.67021299E-02 0.13689693E+03</pdfrwt>
<totfact> 0.11305183E+04</totfact>
</mgrwt>
</event>
<event>
 8    1  0.8504141E-006  0.1826032E+03  0.7546771E-02  0.1170176E+00
          1   -1    0    0  501    0  0.00000000000E+00  0.00000000000E+00  0.43220009312E+03  0.43220009312E+03  0.00000000000E+00 0. -1.
         -1   -1    0    0    0  501 -0.00000000000E+00 -0.00000000000E+00 -0.10594010582E+03  0.10594010582E+03  0.00000000000E+00 0.  1.
         23    2    1    2    0    0  0.11741485832E+02  0.13259521173E+03  0.10796199508E+02  0.18292210145E+03  0.12499833843E+03 0.  0.
         23    2    1    2    0    0 -0.11741485832E+02 -0.13259521173E+03  0.31546378779E+03  0.35521809750E+03  0.94568190827E+02 0.  0.
          5    1    3    3  502    0 -0.29652293454E+02  0.12440652528E+03 -0.21248065789E+02  0.12972976659E+03  0.47000000000E+01 0. -1.
         -5    1    3    3    0  502  0.41393779287E+02  0.81886864530E+01  0.32044265298E+02  0.53192334861E+02  0.47000000000E+01 0. -1.
        -11    1    4    4    0    0  0.18996522140E+02 -0.46194325778E+02  0.37331605333E+02  0.62357295838E+02  0.00000000000E+00 0.  1.
         11    1    4    4    0    0 -0.30738007972E+02 -0.86400885954E+02  0.27813218246E+03  0.29286080166E+03  0.00000000000E+00 0. -1.
<mgrwt>
<rscale>  0 0.17756973E+03</rscale>
<asrwt>0</asrwt>
<pdfrwt beam="1">  1        1 0.66492321E-01 0.18260322E+03</pdfrwt>
<pdfrwt beam="2">  1       -1 0.16298478E-01 0.18260322E+03</pdfrwt>
<totfact> 0.15297676E+03</totfact>
</mgrwt>
</event>
<event>
 8    1  0.8504141E-006  0.1559233E+03  0.7546771E-02  0.1201451E+00
         -1   -1    0    0    0  501 -0.00000000000E+00  0.00000000000E+00  0.35634157407E+03  0.35634157407E+03  0.00000000000E+00 0.  1.
          1   -1    0    0  501    0  0.00000000000E+00 -0.00000000000E+00 -0.61268835666E+02  0.61268835666E+02  0.00000000000E+00 0. -1.
         23    2    1    2    0    0  0.88736678680E+02 -0.28504487740E+02  0.21026738982E+03  0.26177176464E+03  0.12500151030E+03 0.  0.
         23    2    1    2    0    0 -0.88736678680E+02  0.28504487740E+02  0.84805348580E+02  0.15583864509E+03  0.91689869620E+02 0.  0.
          5    1    3    3  502    0  0.58796491801E+02  0.45537502517E+02  0.83966371733E+02  0.11226367696E+03  0.47000000000E+01 0. -1.
         -5    1    3    3    0  502  0.29940186879E+02 -0.74041990257E+02  0.12630101809E+03  0.14950808768E+03  0.47000000000E+01 0. -1.
        -11    1    4    4    0    0 -0.65857073845E+02 -0.25808757140E+02  0.56122839323E+02  0.90294070759E+02  0.00000000000E+00 0.  1.
         11    1    4    4    0    0 -0.22879604835E+02  0.54313244880E+02  0.28682509257E+02  0.65544574330E+02  0.00000000000E+00 0. -1.
<mgrwt>
<rscale>  0 0.14920656E+03</rscale>
<asrwt>0</asrwt>
<pdfrwt beam="2">  1        1 0.94259749E-02 0.15592332E+03</pdfrwt>
<pdfrwt beam="1">  1       -1 0.54821779E-01 0.15592332E+03</pdfrwt>
<totfact> 0.23428720E+03</totfact>
</mgrwt>
</event>
<event>
 8    1  0.8504141E-006  0.1264891E+03  0.7546771E-02  0.1247130E+00
          1   -1    0    0  501    0  0.00000000000E+00  0.00000000000E+00  0.19956087571E+03  0.19956087571E+03  0.00000000000E+00 0. -1.
         -1   -1    0    0    0  501 -0.00000000000E+00 -0.00000000000E+00 -0.67888718070E+02  0.67888718070E+02  0.00000000000E+00 0.  1.
         23    2    1    2    0    0 -0.18922060269E+02  0.37115529625E+01  0.32741625482E+02  0.13065793341E+03  0.12501064568E+03 0.  0.
         23    2    1    2    0    0  0.18922060269E+02 -0.37115529625E+01  0.98930532162E+02  0.13679166037E+03  0.92481826122E+02 0.  0.
          5    1    3    3  502    0 -0.38691188132E+01  0.39901752644E+02  0.67112342525E+02  0.78315237749E+02  0.47000000000E+01 0. -1.
         -5    1    3    3    0  502 -0.15052941456E+02 -0.36190199681E+02 -0.34370717042E+02  0.52342695665E+02  0.47000000000E+01 0. -1.
        -11    1    4    4    0    0 -0.54478903718E+01 -0.38810175963E+02  0.81899053476E+02  0.90792974553E+02  0.00000000000E+00 0. -1.
         11    1    4    4    0    0  0.24369950641E+02  0.35098623001E+02  0.17031478686E+02  0.45998685818E+02  0.00000000000E+00 0.  1.
<mgrwt>
<rscale>  0 0.11758826E+03</rscale>
<asrwt>0</asrwt>
<pdfrwt beam="1">  1        1 0.30701673E-01 0.12648906E+03</pdfrwt>
<pdfrwt beam="2">  1       -1 0.10444418E-01 0.12648906E+03</pdfrwt>
<totfact> 0.78925774E+03</totfact>
</mgrwt>
</event>
<event>
 8    1  0.8504141E-006  0.1714184E+03  0.7546771E-02  0.1181090E+00
          1   -1    0    0  501    0  0.00000000000E+00  0.00000000000E+00  0.44198173273E+03  0.44198173273E+03  0.00000000000E+00 0. -1.
         -1   -1    0    0    0  501 -0.00000000000E+00 -0.00000000000E+00 -0.82535791076E+02  0.82535791076E+02  0.00000000000E+00 0.  1.
         23    2    1    2    0    0 -0.10653828984E+03 -0.49066644821E+02  0.49608269989E+02  0.17845237537E+03  0.12500530784E+03 0.  0.
         23    2    1    2    0    0  0.10653828984E+03  0.49066644821E+02  0.30983767166E+03  0.34606514844E+03  0.10001880495E+03 0.  0.
          5    1    3    3  502    0 -0.19353640397E+02  0.30283859028E+02 -0.20069630207E+02  0.41431335616E+02  0.47000000000E+01 0. -1.
         -5    1    3    3    0  502 -0.87184649442E+02 -0.79350503850E+02  0.69677900196E+02  0.13702103975E+03  0.47000000000E+01 0. -1.
        -11    1    4    4    0    0  0.38586894885E+02  0.99353394643E-01  0.18247300501E+02  0.42683981814E+02  0.00000000000E+00 0.  1.
         11    1    4    4    0    0  0.67951394954E+02  0.48967291427E+02  0.29159037116E+03  0.30338116662E+03  0.00000000000E+00 0. -1.
<mgrwt>
<rscale>  0 0.16692746E+03</rscale>
<asrwt>0</asrwt>
<pdfrwt beam="1">  1        1 0.67997188E-01 0.17141841E+03</pdfrwt>
<pdfrwt beam="2">  1       -1 0.12697814E-01 0.17141841E+03</pdfrwt>
<totfact> 0.21978240E+03</totfact>
</mgrwt>
</event>
<event>
 8    1  0.8504141E-006  0.1943120E+03  0.7546771E-02  0.1159233E+00
         -1   -1    0    0    0  501 -0.00000000000E+00  0.00000000000E+00  0.43998138348E+02  0.43998138348E+02  0.00000000000E+00 0.  1.
          1   -1    0    0  501    0  0.00000000000E+00 -0.00000000000E+00 -0.79075042226E+03  0.79075042226E+03  0.00000000000E+00 0. -1.
         23    2    1    2    0    0 -0.66289299774E+02 -0.13316240224E+03 -0.45593310823E+03  0.49561291886E+03  0.12502267606E+03 0.  0.
         23    2    1    2    0    0  0.66289299774E+02  0.13316240224E+03 -0.29081917569E+03  0.33913564175E+03  0.91163007426E+02 0.  0.
          5    1    3    3  502    0 -0.53046624613E+02  0.12671634780E+01 -0.18966504445E+03  0.19700372883E+03  0.47000000000E+01 0. -1.
         -5    1    3    3    0  502 -0.13242675161E+02 -0.13442956572E+03 -0.26626806377E+03  0.29860919003E+03  0.47000000000E+01 0. -1.
        -11    1    4    4    0    0  0.57629279045E+02  0.98359883728E+02 -0.12372882573E+03  0.16823977784E+03  0.00000000000E+00 0.  1.
         11    1    4    4    0    0  0.86600207291E+01  0.34802518510E+02 -0.16709034995E+03  0.17089586391E+03  0.00000000000E+00 0. -1.
<mgrwt>
<rscale>  0 0.18914739E+03</rscale>
<asrwt>0</asrwt>
<pdfrwt beam="2">  1        1 0.12165392E+00 0.19431203E+03</pdfrwt>
<pdfrwt beam="1">  1       -1 0.67689441E-02 0.19431203E+03</pdfrwt>
<totfact> 0.25884967E+03</totfact>
</mgrwt>
</event>
<event>
 8    1  0.8504141E-006  0.1262864E+03  0.7546771E-02  0.1249410E+00
          3   -1    0    0  501    0  0.00000000000E+00  0.00000000000E+00  0.20995403312E+02  0.20995403312E+02  0.00000000000E+00 0. -1.
         -3   -1    0    0    0  501 -0.00000000000E+00 -0.00000000000E+00 -0.58047364778E+03  0.58047364778E+03  0.00000000000E+00 0.  1.
         23    2    1    2    0    0 -0.90324030559E+00 -0.17949362251E+02 -0.37902343582E+03  0.39950847968E+03  0.12500105993E+03 0.  0.
         23    2    1    2    0    0  0.90324030559E+00  0.17949362251E+02 -0.18045480865E+03  0.20196057142E+03  0.88888351283E+02 0.  0.
          5    1    3    3  502    0 -0.39533979471E+02 -0.56539127145E+02 -0.24860027148E+03  0.25803835647E+03  0.47000000000E+01 0.  1.
         -5    1    3    3    0  502  0.38630739165E+02  0.38589764895E+02 -0.13042316434E+03  0.14147012321E+03  0.47000000000E+01 0.  1.
        -11    1    4    4    0    0 -0.39873861058E+02  0.23059496783E+02 -0.12283100853E+03  0.13118354258E+03  0.00000000000E+00 0.  1.
         11    1    4    4    0    0  0.40777101363E+02 -0.51101345324E+01 -0.57623800119E+02  0.70777028835E+02  0.00000000000E+00 0. -1.
<mgrwt>
<rscale>  0 0.11625289E+03</rscale>
<asrwt>0</asrwt>
<pdfrwt beam="1">  1        3 0.32300623E-02 0.12628642E+03</pdfrwt>
<pdfrwt beam="2">  1       -3 0.89303632E-01 0.12628642E+03</pdfrwt>
<totfact> 0.12086662E+03</totfact>
</mgrwt>
</event>
<event>
 8    1  0.8504141E-006  0.1337024E+03  0.7546771E-02  0.1234664E+00
         -2   -1    0    0    0  501 -0.00000000000E+00  0.00000000000E+00  0.61590819947E+02  0.61590819947E+02  0.00000000000E+00 0.  1.
          2   -1    0    0  501    0  0.00000000000E+00 -0.00000000000E+00 -0.25289927439E+03  0.25289927439E+03  0.00000000000E+00 0. -1.
         23    2    1    2    0    0  0.42765706474E+02 -0.20473679287E+02 -0.57277695193E+02  0.14545464234E+03  0.12501296499E+03 0.  0.
         23    2    1    2    0    0 -0.42765706474E+02  0.20473679287E+02 -0.13403075925E+03  0.16903545200E+03  0.91436657936E+02 0.  0.
          5    1    3    3  502    0  0.16482725400E+02  0.42994968587E+02 -0.60912481047E+02  0.76502731374E+02  0.47000000000E+01 0. -1.
         -5    1    3    3    0  502  0.26282981074E+02 -0.63468647874E+02  0.36347858541E+01  0.68951910962E+02  0.47000000000E+01 0. -1.
        -11    1    4    4    0    0  0.13665405206E+02  0.40427920025E+02 -0.63827436003E+02  0.76779565014E+02  0.00000000000E+00 0. -1.
         11    1    4    4    0    0 -0.56431111680E+02 -0.19954240738E+02 -0.70203323251E+02  0.92255886991E+02  0.00000000000E+00 0.  1.
<mgrwt>
<rscale>  0 0.12525996E+03</rscale>
<asrwt>0</asrwt>
<pdfrwt beam="2">  1        2 0.38907581E-01 0.13370235E+03</pdfrwt>
<pdfrwt beam="1">  1       -2 0.94755108E-02 0.13370235E+03</pdfrwt>
<totfact> 0.90069761E+03</totfact>
</mgrwt>
</event>
<event>
 8    1  0.8504141E-006  0.1391045E+03  0.7546771E-02  0.1226307E+00
         -2   -1    0    0    0  501 -0.00000000000E+00  0.00000000000E+00  0.23596219153E+02  0.23596219153E+02  0.00000000000E+00 0.  1.
          2   -1    0    0  501    0  0.00000000000E+00 -0.00000000000E+00 -0.65340445848E+03  0.65340445848E+03  0.00000000000E+00 0. -1.
         23    2    1    2    0    0  0.45564370573E+02 -0.40607766658E+02 -0.37605131911E+03  0.40095467733E+03  0.12499982437E+03 0.  0.
         23    2    1    2    0    0 -0.45564370573E+02  0.40607766658E+02 -0.25375692022E+03  0.27604600030E+03  0.89909494181E+02 0.  0.
          5    1    3    3  502    0  0.44959575040E+02  0.82358114584E+01 -0.33151852442E+03  0.33468763647E+03  0.47000000000E+01 0. -1.
         -5    1    3    3    0  502  0.60479553348E+00 -0.48843578117E+02 -0.44532794692E+02  0.66267040857E+02  0.47000000000E+01 0. -1.
        -11    1    4    4    0    0 -0.42273152241E+02  0.18767788693E+01 -0.38182275006E+02  0.56994980691E+02  0.00000000000E+00 0.  1.
         11    1    4    4    0    0 -0.32912183326E+01  0.38730987789E+02 -0.21557464521E+03  0.21905101961E+03  0.00000000000E+00 0. -1.
<mgrwt>
<rscale>  0 0.13077709E+03</rscale>
<asrwt>0</asrwt>
<pdfrwt beam="2">  1        2 0.10052377E+00 0.13910449E+03</pdfrwt>
<pdfrwt beam="1">  1       -2 0.36301872E-02 0.13910449E+03</pdfrwt>
<totfact> 0.13822604E+04</totfact>
</mgrwt>
</event>
<event>
 8    1  0.8504141E-006  0.2198243E+03  0.7546771E-02  0.1137452E+00
         -1   -1    0    0    0  501 -0.00000000000E+00  0.00000000000E+00  0.22593952462E+03  0.22593952462E+03  0.00000000000E+00 0.  1.
          1   -1    0    0  501    0  0.00000000000E+00 -0.00000000000E+00 -0.20074191184E+03  0.20074191184E+03  0.00000000000E+00 0. -1.
         23    2    1    2    0    0 -0.88255146661E+02  0.15782541785E+03  0.41928585683E+02  0.22378719259E+03  0.12499947135E+03 0.  0.
         23    2    1    2    0    0  0.88255146661E+02 -0.15782541785E+03 -0.16730972897E+02  0.20289424387E+03  0.90489310466E+02 0.  0.
          5    1    3    3  502    0 -0.48165334340E+02  0.99103565606E+02  0.86129159599E+02  0.13993476438E+03  0.47000000000E+01 0. -1.
         -5    1    3    3    0  502 -0.40089812321E+02  0.58721852244E+02 -0.44200573916E+02  0.83852428214E+02  0.47000000000E+01 0. -1.
        -11    1    4    4    0    0  0.34932230235E+02 -0.49548086923E+02 -0.49010585638E+02  0.77957110846E+02  0.00000000000E+00 0.  1.
         11    1    4    4    0    0  0.53322916426E+02 -0.10827733093E+03  0.32279612741E+02  0.12493713302E+03  0.00000000000E+00 0. -1.
<mgrwt>
<rscale>  0 0.21528002E+03</rscale>
<asrwt>0</asrwt>
<pdfrwt beam="2">  1        1 0.30883371E-01 0.21982425E+03</pdfrwt>
<pdfrwt beam="1">  1       -1 0.34759927E-01 0.21982425E+03</pdfrwt>
<totfact> 0.11521942E+03</totfact>
</mgrwt>
</event>
<event>
 8    1  0.8504141E-006  0.1402257E+03  0.7546771E-02  0.1224131E+00
          1   -1    0    0  501    0  0.00000000000E+00  0.00000000000E+00  0.18954499695E+03  0.18954499695E+03  0.00000000000E+00 0. -1.
         -1   -1    0    0    0  501 -0.00000000000E+00 -0.00000000000E+00 -0.94882816354E+02  0.94882816354E+02  0.00000000000E+00 0.  1.
         23    2    1    2    0    0  0.26145322175E+02  0.57911825216E+02  0.26498388331E+01  0.14025068967E+03  0.12500350769E+03 0.  0.
         23    2    1    2    0    0 -0.26145322175E+02 -0.57911825216E+02  0.92012341766E+02  0.14417712364E+03  0.91013265914E+02 0.  0.
          5    1    3    3  502    0 -0.42228291099E+02  0.59754636777E+00 -0.21611607701E+02  0.47673233772E+02  0.47000000000E+01 0.  1.
         -5    1    3    3    0  502  0.68373613274E+02  0.57314278848E+02  0.24261446534E+02  0.92577455895E+02  0.47000000000E+01 0.  1.
        -11    1    4    4    0    0 -0.11654795844E+01  0.23613480541E+02  0.93643097474E+01  0.25429217506E+02  0.00000000000E+00 0.  1.
         11    1    4    4    0    0 -0.24979842591E+02 -0.81525305757E+02  0.82648032018E+02  0.11874790613E+03  0.00000000000E+00 0. -1.
<mgrwt>
<rscale>  0 0.13226665E+03</rscale>
<asrwt>0</asrwt>
<pdfrwt beam="1">  1        1 0.29160769E-01 0.14022565E+03</pdfrwt>
<pdfrwt beam="2">  1       -1 0.14597356E-01 0.14022565E+03</pdfrwt>
<totfact> 0.50504731E+03</totfact>
</mgrwt>
</event>
<event>
 8    1  0.8504141E-006  0.1879286E+03  0.7546771E-02  0.1166226E+00
         -1   -1    0    0    0  501 -0.00000000000E+00  0.00000000000E+00  0.42306967269E+02  0.42306967269E+02  0.00000000000E+00 0.  1.
          1   -1    0    0  501    0  0.00000000000E+00 -0.00000000000E+00 -0.85430300956E+03  0.85430300956E+03  0.00000000000E+00 0. -1.
         23    2    1    2    0    0  0.45971610886E+02 -0.13256555374E+03 -0.26028529466E+03  0.32103830537E+03  0.12502057370E+03 0.  0.
         23    2    1    2    0    0 -0.45971610886E+02  0.13256555374E+03 -0.55171074763E+03  0.57557167147E+03  0.84917518184E+02 0.  0.
          5    1    3    3  502    0  0.54450199656E+02 -0.12449405829E+03 -0.27183140001E+03  0.30393748506E+03  0.47000000000E+01 0. -1.
         -5    1    3    3    0  502 -0.84785887703E+01 -0.80714954549E+01  0.11546105351E+02  0.17100820308E+02  0.47000000000E+01 0. -1.
        -11    1    4    4    0    0  0.78156546151E+00  0.77472060519E+02 -0.16650756947E+03  0.18364994336E+03  0.00000000000E+00 0.  1.
         11    1    4    4    0    0 -0.46753176347E+02  0.55093493222E+02 -0.38520317817E+03  0.39192172811E+03  0.00000000000E+00 0. -1.
<mgrwt>
<rscale>  0 0.18163923E+03</rscale>
<asrwt>0</asrwt>
<pdfrwt beam="2">  1        1 0.13143124E+00 0.18792860E+03</pdfrwt>
<pdfrwt beam="1">  1       -1 0.65087637E-02 0.18792860E+03</pdfrwt>
<totfact> 0.24353435E+03</totfact>
</mgrwt>
</event>
<event>
 8    1  0.8504141E-006  0.2104041E+03  0.7546771E-02  0.1145284E+00
          1   -1    0    0  501    0  0.00000000000E+00  0.00000000000E+00  0.29536072774E+03  0.29536072774E+03  0.00000000000E+00 0. -1.
         -1   -1    0    0    0  501 -0.00000000000E+00 -0.00000000000E+00 -0.13991871304E+03  0.13991871304E+03  0.00000000000E+00 0.  1.
         23    2    1    2    0    0 -0.64954900960E+02 -0.15629583285E+03  0.46774009574E+02  0.21554046293E+03  0.12498942621E+03 0.  0.
         23    2    1    2    0    0  0.64954900960E+02  0.15629583285E+03  0.10866800512E+03  0.21973897785E+03  0.88481390842E+02 0.  0.
          5    1    3    3  502    0 -0.88248921232E+02 -0.97129873402E+02 -0.78923282963E+01  0.13155403168E+03  0.47000000000E+01 0.  1.
         -5    1    3    3    0  502  0.23294020271E+02 -0.59165959446E+02  0.54666337870E+02  0.83986431248E+02  0.47000000000E+01 0.  1.
        -11    1    4    4    0    0  0.10420320040E+02  0.11555096410E+03  0.39166134136E+02  0.12245241703E+03  0.00000000000E+00 0. -1.
         11    1    4    4    0    0  0.54534580920E+02  0.40744868751E+02  0.69501870987E+02  0.97286560821E+02  0.00000000000E+00 0.  1.
<mgrwt>
<rscale>  0 0.20537249E+03</rscale>
<asrwt>0</asrwt>
<pdfrwt beam="1">  1        1 0.45440112E-01 0.21040409E+03</pdfrwt>
<pdfrwt beam="2">  1       -1 0.21525956E-01 0.21040409E+03</pdfrwt>
<totfact> 0.15867800E+03</totfact>
</mgrwt>
</event>
<event>
 8    1  0.8504141E-006  0.1375940E+03  0.7546771E-02  0.1227850E+00
         -2   -1    0    0    0  501 -0.00000000000E+00  0.00000000000E+00  0.10475494417E+03  0.10475494417E+03  0.00000000000E+00 0. -1.
          2   -1    0    0  501    0  0.00000000000E+00 -0.00000000000E+00 -0.16660672795E+03  0.16660672795E+03  0.00000000000E+00 0.  1.
         23    2    1    2    0    0 -0.23091811952E+02  0.52664154020E+02  0.14692221199E+02  0.13837615285E+03  0.12500141366E+03 0.  0.
         23    2    1    2    0    0  0.23091811952E+02 -0.52664154020E+02 -0.76544004979E+02  0.13298551927E+03  0.92300697396E+02 0.  0.
          5    1    3    3  502    0 -0.65559744238E+02 -0.34818647840E+01  0.16279181159E+02  0.67803430489E+02  0.47000000000E+01 0.  1.
         -5    1    3    3    0  502  0.42467932285E+02  0.56146018804E+02 -0.15869599600E+01  0.70572722365E+02  0.47000000000E+01 0.  1.
        -11    1    4    4    0    0 -0.35325767225E+02 -0.27730309831E+02 -0.36782905632E+02  0.58050513005E+02  0.00000000000E+00 0.  1.
         11    1    4    4    0    0  0.58417579177E+02 -0.24933844189E+02 -0.39761099347E+02  0.74935006267E+02  0.00000000000E+00 0. -1.
<mgrwt>
<rscale>  0 0.12973436E+03</rscale>
<asrwt>0</asrwt>
<pdfrwt beam="2">  1        2 0.25631804E-01 0.13759396E+03</pdfrwt>
<pdfrwt beam="1">  1       -2 0.16116145E-01 0.13759396E+03</pdfrwt>
<totfact> 0.60463351E+03</totfact>
</mgrwt>
</event>
<event>
 8    1  0.8504141E-006  0.1289265E+03  0.7546771E-02  0.1243966E+00
          2   -1    0    0  501    0  0.00000000000E+00  0.00000000000E+00  0.53370941340E+03  0.53370941340E+03  0.00000000000E+00 0. -1.
         -2   -1    0    0    0  501 -0.00000000000E+00 -0.00000000000E+00 -0.25272040843E+02  0.25272040843E+02  0.00000000000E+00 0.  1.
         23    2    1    2    0    0 -0.31618540447E+02  0.47692253224E+00  0.21681621745E+03  0.25225245911E+03  0.12498828516E+03 0.  0.
         23    2    1    2    0    0  0.31618540447E+02 -0.47692253224E+00  0.29162115511E+03  0.30672899513E+03  0.89665036606E+02 0.  0.
          5    1    3    3  502    0 -0.45761950393E+02  0.55141659333E+02  0.11058688029E+03  0.13185714539E+03  0.47000000000E+01 0. -1.
         -5    1    3    3    0  502  0.14143409945E+02 -0.54664736801E+02  0.10622933716E+03  0.12039531373E+03  0.47000000000E+01 0. -1.
        -11    1    4    4    0    0 -0.27661334956E+02  0.16050107008E+02  0.12748775542E+03  0.13143775397E+03  0.00000000000E+00 0.  1.
         11    1    4    4    0    0  0.59279875403E+02 -0.16527029540E+02  0.16413339970E+03  0.17529124116E+03  0.00000000000E+00 0. -1.
<mgrwt>
<rscale>  0 0.11947478E+03</rscale>
<asrwt>0</asrwt>
<pdfrwt beam="1">  1        2 0.82109132E-01 0.12892646E+03</pdfrwt>
<pdfrwt beam="2">  1       -2 0.38880067E-02 0.12892646E+03</pdfrwt>
<totfact> 0.15616401E+04</totfact>
</mgrwt>
</event>
<event>
 8    1  0.8504141E-006  0.2243164E+03  0.7546771E-02  0.1134309E+00
          1   -1    0    0  501    0  0.00000000000E+00  0.00000000000E+00  0.16320654317E+03  0.16320654317E+03  0.00000000000E+00 0. -1.
         -1   -1    0    0    0  501 -0.00000000000E+00 -0.00000000000E+00 -0.28398655376E+03  0.28398655376E+03  0.00000000000E+00 0.  1.
         23    2    1    2    0    0 -0.11066752620E+02 -0.18593053443E+03 -0.48958237419E+02  0.22959690444E+03  0.12500077148E+03 0.  0.
         23    2    1    2    0    0  0.11066752620E+02  0.18593053443E+03 -0.71821773180E+02  0.21759619249E+03  0.86585791199E+02 0.  0.
          5    1    3    3  502    0 -0.43493548210E+02 -0.15378633095E+03 -0.75238580312E+02  0.17670556950E+03  0.47000000000E+01 0.  1.
         -5    1    3    3    0  502  0.32426795590E+02 -0.32144203477E+02  0.26280342893E+02  0.52891334943E+02  0.47000000000E+01 0.  1.
        -11    1    4    4    0    0  0.31473034367E+02  0.15096604203E+03 -0.25890255205E+02  0.15637008362E+03  0.00000000000E+00 0. -1.
         11    1    4    4    0    0 -0.20406281747E+02  0.34964492400E+02 -0.45931517974E+02  0.61226108867E+02  0.00000000000E+00 0.  1.
<mgrwt>
<rscale>  0 0.21943028E+03</rscale>
<asrwt>0</asrwt>
<pdfrwt beam="1">  1        1 0.25108699E-01 0.22431636E+03</pdfrwt>
<pdfrwt beam="2">  1       -1 0.43690238E-01 0.22431636E+03</pdfrwt>
<totfact> 0.10000641E+03</totfact>
</mgrwt>
</event>
<event>
 8    1  0.8504141E-006  0.1753063E+03  0.7546771E-02  0.1177993E+00
         -1   -1    0    0    0  501 -0.00000000000E+00  0.00000000000E+00  0.29280140157E+02  0.29280140157E+02  0.00000000000E+00 0.  1.
          1   -1    0    0  501    0  0.00000000000E+00 -0.00000000000E+00 -0.99448390952E+03  0.99448390952E+03  0.00000000000E+00 0. -1.
         23    2    1    2    0    0 -0.99161422144E+02  0.72623901590E+02 -0.37972517273E+03  0.41823857969E+03  0.12500033604E+03 0.  0.
         23    2    1    2    0    0  0.99161422144E+02 -0.72623901590E+02 -0.58547859664E+03  0.60552546999E+03  0.93641278114E+02 0.  0.
          5    1    3    3  502    0 -0.55259631800E+02  0.98114199596E+02 -0.32235239240E+03  0.34148671710E+03  0.47000000000E+01 0.  1.
         -5    1    3    3    0  502 -0.43901790344E+02 -0.25490298006E+02 -0.57372780325E+02  0.76751862583E+02  0.47000000000E+01 0.  1.
        -11    1    4    4    0    0  0.39412912604E+02 -0.67814706217E+02 -0.45787069460E+03  0.46454040193E+03  0.00000000000E+00 0. -1.
         11    1    4    4    0    0  0.59748509539E+02 -0.48091953733E+01 -0.12760790204E+03  0.14098506806E+03  0.00000000000E+00 0.  1.
<mgrwt>
<rscale>  0 0.16986079E+03</rscale>
<asrwt>0</asrwt>
<pdfrwt beam="2">  1        1 0.15299751E+00 0.17530631E+03</pdfrwt>
<pdfrwt beam="1">  1       -1 0.45046372E-02 0.17530631E+03</pdfrwt>
<totfact> 0.32898362E+03</totfact>
</mgrwt>
</event>
<event>
 8    1  0.8504141E-006  0.1294146E+03  0.7546771E-02  0.1241521E+00
         -1   -1    0    0    0  501 -0.00000000000E+00  0.00000000000E+00  0.15662114873E+03  0.15662114873E+03  0.00000000000E+00 0.  1.
          1   -1    0    0  501    0  0.00000000000E+00 -0.00000000000E+00 -0.10299507158E+03  0.10299507158E+03  0.00000000000E+00 0. -1.
         23    2    1    2    0    0 -0.88995142115E+01  0.32362910577E+02  0.86337286353E+02  0.15557073711E+03  0.12498627083E+03 0.  0.
         23    2    1    2    0    0  0.88995142115E+01 -0.32362910577E+02 -0.32711209200E+02  0.10404548320E+03  0.92891765155E+02 0.  0.
          5    1    3    3  502    0  0.10205137653E+02  0.78256675204E+02  0.46734425725E+02  0.91839254114E+02  0.47000000000E+01 0. -1.
         -5    1    3    3    0  502 -0.19104651864E+02 -0.45893764627E+02  0.39602860628E+02  0.63731482992E+02  0.47000000000E+01 0. -1.
        -11    1    4    4    0    0  0.17089226543E+02 -0.13926382220E+02  0.30534156445E+02  0.37660596057E+02  0.00000000000E+00 0.  1.
         11    1    4    4    0    0 -0.81897123314E+01 -0.18436528357E+02 -0.63245365645E+02  0.66384887147E+02  0.00000000000E+00 0. -1.
<mgrwt>
<rscale>  0 0.12096040E+03</rscale>
<asrwt>0</asrwt>
<pdfrwt beam="2">  1        1 0.15845396E-01 0.12941456E+03</pdfrwt>
<pdfrwt beam="1">  1       -1 0.24095561E-01 0.12941456E+03</pdfrwt>
<totfact> 0.48859318E+03</totfact>
</mgrwt>
</event>
<event>
 8    1  0.8504141E-006  0.1214796E+03  0.7546771E-02  0.1250256E+00
          1   -1    0    0  501    0  0.00000000000E+00  0.00000000000E+00  0.70804190602E+02  0.70804190602E+02  0.00000000000E+00 0. -1.
         -1   -1    0    0    0  501 -0.00000000000E+00 -0.00000000000E+00 -0.17411983118E+03  0.17411983118E+03  0.00000000000E+00 0.  1.
         23    2    1    2    0    0  0.44016137786E+02  0.31826573021E+01 -0.64025295550E+02  0.13731908101E+03  0.11318013008E+03 0.  0.
         23    2    1    2    0    0 -0.44016137786E+02 -0.31826573021E+01 -0.39290345026E+02  0.10760494077E+03  0.89930764332E+02 0.  0.
          5    1    3    3  502    0  0.54938192078E+02  0.36814652779E+02 -0.26768679603E+01  0.66353441735E+02  0.47000000000E+01 0. -1.
         -5    1    3    3    0  502 -0.10922054292E+02 -0.33631995477E+02 -0.61348427590E+02  0.70965639273E+02  0.47000000000E+01 0.  1.
        -11    1    4    4    0    0 -0.42058257551E+02  0.35189350216E+02 -0.42020339529E+02  0.69086151514E+02  0.00000000000E+00 0.  1.
         11    1    4    4    0    0 -0.19578802349E+01 -0.38372007518E+02  0.27299945027E+01  0.38518789259E+02  0.00000000000E+00 0. -1.
<mgrwt>
<rscale>  0 0.11576244E+03</rscale>
<asrwt>0</asrwt>
<pdfrwt beam="1">  1        1 0.10892952E-01 0.12147959E+03</pdfrwt>
<pdfrwt beam="2">  1       -1 0.26787666E-01 0.12147959E+03</pdfrwt>
<totfact> 0.66580026E+03</totfact>
</mgrwt>
</event>
<event>
 8    1  0.8504141E-006  0.1308020E+03  0.7546771E-02  0.1239622E+00
         -2   -1    0    0    0  501 -0.00000000000E+00  0.00000000000E+00  0.78408287049E+02  0.78408287049E+02  0.00000000000E+00 0. -1.
          2   -1    0    0  501    0  0.00000000000E+00 -0.00000000000E+00 -0.16903223086E+03  0.16903223086E+03  0.00000000000E+00 0.  1.
         23    2    1    2    0    0  0.33385700099E+02  0.19225576519E+02 -0.49581785488E+02  0.13988398069E+03  0.12499978736E+03 0.  0.
         23    2    1    2    0    0 -0.33385700099E+02 -0.19225576519E+02 -0.41042158322E+02  0.10755653721E+03  0.91649998221E+02 0.  0.
          5    1    3    3  502    0  0.73020414500E+02 -0.68946004814E+01 -0.35283583165E+01  0.73580267477E+02  0.47000000000E+01 0.  1.
         -5    1    3    3    0  502 -0.39634714401E+02  0.26120177001E+02 -0.46053427171E+02  0.66303713218E+02  0.47000000000E+01 0.  1.
        -11    1    4    4    0    0  0.28384108139E+02  0.11044534730E+02 -0.15547941742E+02  0.34196166959E+02  0.00000000000E+00 0.  1.
         11    1    4    4    0    0 -0.61769808238E+02 -0.30270111249E+02 -0.25494216580E+02  0.73360370254E+02  0.00000000000E+00 0. -1.
<mgrwt>
<rscale>  0 0.12213137E+03</rscale>
<asrwt>0</asrwt>
<pdfrwt beam="2">  1        2 0.26004958E-01 0.13080204E+03</pdfrwt>
<pdfrwt beam="1">  1       -2 0.12062814E-01 0.13080204E+03</pdfrwt>
<totfact> 0.94833318E+03</totfact>
</mgrwt>
</event>
<event>
 8    1  0.8504141E-006  0.2176300E+03  0.7546771E-02  0.1139075E+00
         -2   -1    0    0    0  501 -0.00000000000E+00  0.00000000000E+00  0.10418290976E+03  0.10418290976E+03  0.00000000000E+00 0.  1.
          2   -1    0    0  501    0  0.00000000000E+00 -0.00000000000E+00 -0.42074077207E+03  0.42074077207E+03  0.00000000000E+00 0. -1.
         23    2    1    2    0    0 -0.61104110277E+02  0.16731893851E+03 -0.14913013180E+03  0.26382307523E+03  0.12503391274E+03 0.  0.
         23    2    1    2    0    0  0.61104110277E+02 -0.16731893851E+03 -0.16742773051E+03  0.26110060659E+03  0.91717731879E+02 0.  0.
          5    1    3    3  502    0 -0.39770005366E+02  0.13472141427E+03 -0.37452631287E+02  0.14545206214E+03  0.47000000000E+01 0. -1.
         -5    1    3    3    0  502 -0.21334104911E+02  0.32597524242E+02 -0.11167750052E+03  0.11837101309E+03  0.47000000000E+01 0. -1.
        -11    1    4    4    0    0  0.34087500517E+02 -0.79384145815E+02 -0.14104446022E+03  0.16540054431E+03  0.00000000000E+00 0. -1.
         11    1    4    4    0    0  0.27016609759E+02 -0.87934792699E+02 -0.26383270285E+02  0.95700062282E+02  0.00000000000E+00 0.  1.
<mgrwt>
<rscale>  0 0.21317597E+03</rscale>
<asrwt>0</asrwt>
<pdfrwt beam="2">  1        2 0.64729349E-01 0.21763000E+03</pdfrwt>
<pdfrwt beam="1">  1       -2 0.16028140E-01 0.21763000E+03</pdfrwt>
<totfact> 0.22940902E+03</totfact>
</mgrwt>
</event>
<event>
 8    1  0.8504141E-006  0.1507208E+03  0.7546771E-02  0.1208699E+00
          1   -1    0    0  501    0  0.00000000000E+00  0.00000000000E+00  0.47737709708E+03  0.47737709708E+03  0.00000000000E+00 0. -1.
         -1   -1    0    0    0  501 -0.00000000000E+00 -0.00000000000E+00 -0.55799949349E+02  0.55799949349E+02  0.00000000000E+00 0.  1.
         23    2    1    2    0    0 -0.84161131098E+02  0.31207657898E+01  0.81695807859E+02  0.17143794535E+03  0.12499571559E+03 0.  0.
         23    2    1    2    0    0  0.84161131098E+02 -0.31207657898E+01  0.33988133988E+03  0.36173910109E+03  0.90791061741E+02 0.  0.
          5    1    3    3  502    0 -0.11613825290E+03  0.12611164754E+02  0.60533995541E+02  0.13165709202E+03  0.47000000000E+01 0. -1.
         -5    1    3    3    0  502  0.31977121799E+02 -0.94903989645E+01  0.21161812319E+02  0.39780853330E+02  0.47000000000E+01 0. -1.
        -11    1    4    4    0    0  0.50180546540E+02 -0.19084757781E+02  0.30752577292E+03  0.31217689895E+03  0.00000000000E+00 0. -1.
         11    1    4    4    0    0  0.33980584559E+02  0.15963991991E+02  0.32355566958E+02  0.49562202135E+02  0.00000000000E+00 0.  1.
<mgrwt>
<rscale>  0 0.14349720E+03</rscale>
<asrwt>0</asrwt>
<pdfrwt beam="1">  1        1 0.73442628E-01 0.15072082E+03</pdfrwt>
<pdfrwt beam="2">  1       -1 0.85846079E-02 0.15072082E+03</pdfrwt>
<totfact> 0.36147345E+03</totfact>
</mgrwt>
</event>
<event>
 8    1  0.8504141E-006  0.1455081E+03  0.7546771E-02  0.1216414E+00
          1   -1    0    0  501    0  0.00000000000E+00  0.00000000000E+00  0.67406445154E+02  0.67406445154E+02  0.00000000000E+00 0. -1.
         -1   -1    0    0    0  501 -0.00000000000E+00 -0.00000000000E+00 -0.27859789471E+03  0.27859789471E+03  0.00000000000E+00 0.  1.
         23    2    1    2    0    0 -0.70787448701E+02  0.23155561451E+02 -0.16603547967E+03  0.22077222094E+03  0.12500220042E+03 0.  0.
         23    2    1    2    0    0  0.70787448701E+02 -0.23155561451E+02 -0.45155969884E+02  0.12523211892E+03  0.89983215511E+02 0.  0.
          5    1    3    3  502    0 -0.59793290338E+02 -0.37132073182E+02 -0.41366050597E+02  0.81775721154E+02  0.47000000000E+01 0.  1.
         -5    1    3    3    0  502 -0.10994158364E+02  0.60287634633E+02 -0.12466942907E+03  0.13899649979E+03  0.47000000000E+01 0.  1.
        -11    1    4    4    0    0  0.76941892354E+02 -0.13152636988E+02  0.53094621269E+00  0.78059775574E+02  0.00000000000E+00 0. -1.
         11    1    4    4    0    0 -0.61544436529E+01 -0.10002924463E+02 -0.45686916097E+02  0.47172343347E+02  0.00000000000E+00 0.  1.
<mgrwt>
<rscale>  0 0.13773143E+03</rscale>
<asrwt>0</asrwt>
<pdfrwt beam="1">  1        1 0.10370222E-01 0.14550805E+03</pdfrwt>
<pdfrwt beam="2">  1       -1 0.42861215E-01 0.14550805E+03</pdfrwt>
<totfact> 0.32184250E+03</totfact>
</mgrwt>
</event>
<event>
 8    1  0.8504141E-006  0.1433254E+03  0.7546771E-02  0.1219024E+00
         -3   -1    0    0    0  501 -0.00000000000E+00  0.00000000000E+00  0.70012784324E+03  0.70012784324E+03  0.00000000000E+00 0.  1.
          3   -1    0    0  501    0  0.00000000000E+00 -0.00000000000E+00 -0.28561903886E+02  0.28561903886E+02  0.00000000000E+00 0. -1.
         23    2    1    2    0    0 -0.43680660589E+02 -0.54838873213E+02  0.51146421884E+03  0.53116647812E+03  0.12500751257E+03 0.  0.
         23    2    1    2    0    0  0.43680660589E+02  0.54838873213E+02  0.16010172051E+03  0.19752326900E+03  0.92019447745E+02 0.  0.
          5    1    3    3  502    0 -0.19431405810E+02 -0.28222204257E+02  0.48500614400E+03  0.48623772176E+03  0.47000000000E+01 0.  1.
         -5    1    3    3    0  502 -0.24249254779E+02 -0.26616668956E+02  0.26458074841E+02  0.44928756359E+02  0.47000000000E+01 0.  1.
        -11    1    4    4    0    0 -0.95379513516E+01 -0.11199590453E+02  0.78367520938E+02  0.79736263270E+02  0.00000000000E+00 0.  1.
         11    1    4    4    0    0  0.53218611941E+02  0.66038463666E+02  0.81734199572E+02  0.11778700573E+03  0.00000000000E+00 0. -1.
<mgrwt>
<rscale>  0 0.13585047E+03</rscale>
<asrwt>0</asrwt>
<pdfrwt beam="2">  1        3 0.43941396E-02 0.14332544E+03</pdfrwt>
<pdfrwt beam="1">  1       -3 0.10771196E+00 0.14332544E+03</pdfrwt>
<totfact> 0.49901591E+02</totfact>
</mgrwt>
</event>
<event>
 8    1  0.8504141E-006  0.1401389E+03  0.7546771E-02  0.1223478E+00
         -2   -1    0    0    0  501 -0.00000000000E+00  0.00000000000E+00  0.27188174307E+02  0.27188174307E+02  0.00000000000E+00 0.  1.
          2   -1    0    0  501    0  0.00000000000E+00 -0.00000000000E+00 -0.59826057762E+03  0.59826057762E+03  0.00000000000E+00 0. -1.
         23    2    1    2    0    0  0.52090292490E+02  0.36072575418E+02 -0.27515494968E+03  0.30878657993E+03  0.12499710534E+03 0.  0.
         23    2    1    2    0    0 -0.52090292490E+02 -0.36072575418E+02 -0.29591745363E+03  0.31666217200E+03  0.93237130693E+02 0.  0.
          5    1    3    3  502    0  0.86381067517E+02  0.24561092616E+02 -0.12328772380E+03  0.15260042246E+03  0.47000000000E+01 0.  1.
         -5    1    3    3    0  502 -0.34290775027E+02  0.11511482802E+02 -0.15186722587E+03  0.15618615746E+03  0.47000000000E+01 0.  1.
        -11    1    4    4    0    0  0.17279889964E+01 -0.54942014385E+02 -0.16324872789E+03  0.17225492170E+03  0.00000000000E+00 0. -1.
         11    1    4    4    0    0 -0.53818281486E+02  0.18869438968E+02 -0.13266872574E+03  0.14440725030E+03  0.00000000000E+00 0.  1.
<mgrwt>
<rscale>  0 0.13271736E+03</rscale>
<asrwt>0</asrwt>
<pdfrwt beam="2">  1        2 0.92040083E-01 0.14013888E+03</pdfrwt>
<pdfrwt beam="1">  1       -2 0.41827963E-02 0.14013888E+03</pdfrwt>
<totfact> 0.12401863E+04</totfact>
</mgrwt>
</event>
<event>
 8    1  0.8504141E-006  0.1560939E+03  0.7546771E-02  0.1201099E+00
         -1   -1    0    0    0  501 -0.00000000000E+00  0.00000000000E+00  0.15478586705E+03  0.15478586705E+03  0.00000000000E+00 0.  1.
          1   -1    0    0  501    0  0.00000000000E+00 -0.00000000000E+00 -0.13389313824E+03  0.13389313824E+03  0.00000000000E+00 0. -1.
         23    2    1    2    0    0 -0.35103868581E+02  0.86660300134E+02  0.19941017991E+02  0.15736251473E+03  0.12499211029E+03 0.  0.
         23    2    1    2    0    0  0.35103868581E+02 -0.86660300134E+02  0.95171081882E+00  0.13131649056E+03  0.92199922625E+02 0.  0.
          5    1    3    3  502    0 -0.65725364309E+02  0.95745990021E+02  0.35492234061E+02  0.12152739114E+03  0.47000000000E+01 0.  1.
         -5    1    3    3    0  502  0.30621495728E+02 -0.90856898873E+01 -0.15551216070E+02  0.35835123589E+02  0.47000000000E+01 0.  1.
        -11    1    4    4    0    0  0.26353652569E+01 -0.11662227393E+02  0.39273491477E+02  0.41053134236E+02  0.00000000000E+00 0.  1.
         11    1    4    4    0    0  0.32468503324E+02 -0.74998072741E+02 -0.38321780658E+02  0.90263356329E+02  0.00000000000E+00 0. -1.
<mgrwt>
<rscale>  0 0.14949150E+03</rscale>
<asrwt>0</asrwt>
<pdfrwt beam="2">  1        1 0.20598944E-01 0.15609394E+03</pdfrwt>
<pdfrwt beam="1">  1       -1 0.23813210E-01 0.15609394E+03</pdfrwt>
<totfact> 0.35978216E+03</totfact>
</mgrwt>
</event>
<event>
 8    1  0.8504141E-006  0.1357721E+03  0.7546771E-02  0.1231871E+00
          4   -1    0    0  501    0  0.00000000000E+00  0.00000000000E+00  0.19137136161E+03  0.19137136161E+03  0.00000000000E+00 0.  1.
         -4   -1    0    0    0  501 -0.00000000000E+00 -0.00000000000E+00 -0.75267663942E+02  0.75267663942E+02  0.00000000000E+00 0. -1.
         23    2    1    2    0    0  0.93578606589E+01  0.52169730000E+02  0.61969117284E+02  0.14924555064E+03  0.12499925042E+03 0.  0.
         23    2    1    2    0    0 -0.93578606589E+01 -0.52169730000E+02  0.54134580384E+02  0.11739347491E+03  0.89673992181E+02 0.  0.
          5    1    3    3  502    0 -0.42121130905E+02  0.28152626416E+01  0.65071356574E+02  0.77707701155E+02  0.47000000000E+01 0.  1.
         -5    1    3    3    0  502  0.51478991563E+02  0.49354467358E+02 -0.31022392902E+01  0.71537849487E+02  0.47000000000E+01 0.  1.
        -11    1    4    4    0    0  0.34569281537E+02 -0.19949493364E+01  0.59833463809E+01  0.35139941417E+02  0.00000000000E+00 0. -1.
         11    1    4    4    0    0 -0.43927142196E+02 -0.50174780663E+02  0.48151234003E+02  0.82253533493E+02  0.00000000000E+00 0.  1.
<mgrwt>
<rscale>  0 0.12706911E+03</rscale>
<asrwt>0</asrwt>
<pdfrwt beam="1">  1        4 0.29441748E-01 0.13577210E+03</pdfrwt>
<pdfrwt beam="2">  1       -4 0.11579641E-01 0.13577210E+03</pdfrwt>
<totfact> 0.10744227E+03</totfact>
</mgrwt>
</event>
